<LesHouchesEvents version="3.0">
<!--
file generated with POWHEG-BOX-V2
Input file powheg.input contained:
! ggHH production parameters:
mtdep 0              ! 0: Higgs effective field theory (HEFT)

hmass 125            ! Higgs boson mass
topmass 173          ! top quark mass (THIS VALUE IS HARD CODED IN THE VIRTUAL
hdecaymode -1        ! PDG code for Higgs boson decay products (it affects only the SMC)
!                      allowed values are:
!                      0 all decay channels open
!                      1-6 d dbar, u ubar,..., t tbar (as in HERWIG)
!                      7-9 e+ e-, mu+ mu-, tau+ tau-
!                      10  W+W-
!                      11  ZZ
!                      12  gamma gamma
!                      -1  all decay channels closed

! general parameters:
numevts  3000        ! number of events to be generated
ih1         1        ! hadron 1 (1 for protons, -1 for antiprotons)
ih2         1        ! hadron 2 (1 for protons, -1 for antiprotons)
ebeam1 7000d0        ! energy of beam 1
ebeam2 7000d0        ! energy of beam 2
! To be set only if using LHA pdfs
lhans1 90200         ! pdf set for hadron 1 (LHA numbering)
lhans2 90200 	     ! pdf set for hadron 2 (LHA numbering)
! To be set only if using internal mlm pdf
# ndns1 131          ! pdf set for hadron 1 (mlm numbering)
# ndns2 131          ! pdf set for hadron 2 (mlm numbering)
! To be set only if using different pdf sets for the two incoming hadrons
! QCDLambda5 0.25    ! for not equal pdf sets

! Parameters to allow or not the use of stored data
use-old-grid    1    ! if 1 use old grid if file pwggrids.dat is present (<> 1 regenerate)
use-old-ubound  1    ! if 1 use norm of upper bounding function stored in pwgubound.dat, if present;
!
ncall1  10000        ! number of calls for initializing the integration grid
itmx1       3        ! number of iterations for initializing the integration grid
ncall2  10000        ! number of calls for computing the integral and finding upper bound
itmx2       3        ! number of iterations for computing the integral and finding upper bound
foldcsi     1        ! number of folds on csi integration
foldy       1        ! number of folds on  y  integration
foldphi     1        ! number of folds on phi integration
nubound 10000        ! number of bbarra calls to setup norm of upper bounding function
# icsimax   1        ! <= 100, number of csi subdivision when computing the upper bounds
# iymax     1        ! <= 100, number of y subdivision when computing the upper bounds
# xupbound 2d0       ! increase upper bound for radiation generation

! OPTIONAL PARAMETERS

! scale settings:
#fixedscale   1      ! (dafault 0) Use muren = mufac = 2*m_H
facscfact   1d0      ! (default 1d0) fac scale factor: mufact = muref * facscfact
renscfact   1d0      ! (default 1d0) ren scale factor: muren  = muref * renscfact

! Born, plots and powheg strategy:
#bornonly         1  ! (default 0) if 1 do Born only
# testplots 1
fastbtlbound      1  ! fast evaluation of Btilde upper bounds
storemintupb      1  ! store function calls in binary file for more precise generation
ubexcess_correct  1  ! corrects for error in upper bound estimate
storeinfo_rwgt    1  ! store info to allow for reweighting
softtest          0  ! no check of the soft limit in the real
colltest          0  ! no check of the collinear limit in the real

! PARAMETERS needed for ggHH
hdamp           250

! PARAMETERS for parallel runnning
! -- non parallel (for testing purposes only)
#iseed    547        !  Start the random number generator with seed iseed
#rand1     0         !  skipping  rand2*100000000+rand1 numbers.
#rand2     0         !  (see RM48 short writeup in CERNLIB)

! -- parallel
manyseeds 1          ! Used to perform multiple runs with different random
                     ! seeds in the same directory.
                     ! If set to 1, the program asks for an integer j;
                     ! The file pwgseeds.dat at line j is read, and the
                     ! integer at line j is used to initialize the random
                     ! sequence for the generation of the event.
                     ! The event file is called pwgevents-'j'.lhe
parallelstage 4
xgriditeration 1
maxseeds    1000

! PARAMETERS for reweighting
#rwl_file 'reweight_setup.xml'


! PARAMETERS for Pythia8
#py8tune  xxx
#py8hepmc 1
#py8nohad 1
#py8nompi 1
End of powheg.input content
PDF package: lha
 Random number generator initialized with:            8             0             0
-->
<init>
     2212     2212  7.00000E+03  7.00000E+03     -1     -1     -1     -1     -4      1
  3.19670E-02  5.76697E-06  1.00000E+00   9999
</init>
<event>
      5   9999  3.19816E-02  2.87069E+01 -1.00000E+00  1.54381E-01
      21    -1     0     0   511   501  0.000000000E+00  0.000000000E+00  3.479994023E+02  3.479994023E+02  0.000000000E+00  0.00000E+00  9.000E+00
      21    -1     0     0   501   502  0.000000000E+00  0.000000000E+00 -2.272008028E+02  2.272008028E+02  0.000000000E+00  0.00000E+00  9.000E+00
      25     1     1     2     0     0 -8.876319781E+01 -1.284705363E+02 -8.589060082E+00  2.002057840E+02  1.250000000E+02  0.00000E+00  9.000E+00
      25     1     1     2     0     0  1.067647636E+02  1.508318972E+02 -1.895035725E+01  2.239042027E+02  1.250000000E+02  0.00000E+00  9.000E+00
      21     1     1     2   511   502 -1.800156575E+01 -2.236136094E+01  1.483380169E+02  1.510902184E+02  2.697398305E-06  0.00000E+00  9.000E+00
#rwgt            1           1   2.7389196631496228E-002           8          76           0
</event>
<event>
      5   9999  3.19816E-02  9.53761E+01 -1.00000E+00  1.24760E-01
      21    -1     0     0   512   501  0.000000000E+00  0.000000000E+00  4.803099718E+02  4.803099718E+02  0.000000000E+00  0.00000E+00  9.000E+00
      21    -1     0     0   501   502  0.000000000E+00  0.000000000E+00 -1.091717421E+03  1.091717421E+03  0.000000000E+00  0.00000E+00  9.000E+00
      25     1     1     2     0     0  5.576195725E+02 -1.280626528E+02 -6.206105550E+02  8.533007041E+02  1.250000000E+02  0.00000E+00  9.000E+00
      25     1     1     2     0     0 -5.667728759E+02  2.229985235E+02  2.393259321E+01  6.222198995E+02  1.250000000E+02  0.00000E+00  9.000E+00
      21     1     1     2   512   502  9.153303405E+00 -9.493587076E+01 -1.472948703E+01  9.650678893E+01  1.792108581E-06  0.00000E+00  9.000E+00
#rwgt            1           1   2.4702719070213184E-002           8         195           0
</event>
<event>
      5   9999  3.19816E-02  1.85978E+02 -1.00000E+00  1.12809E-01
      21    -1     0     0   502   501  0.000000000E+00  0.000000000E+00  3.017844940E+02  3.017844940E+02  0.000000000E+00  0.00000E+00  9.000E+00
      21    -1     0     0   511   502  0.000000000E+00  0.000000000E+00 -4.893900306E+02  4.893900306E+02  0.000000000E+00  0.00000E+00  9.000E+00
      25     1     1     2     0     0  2.286089194E+02 -3.324800170E+01  7.468570757E+01  2.730758550E+02  1.250000000E+02  0.00000E+00  9.000E+00
      25     1     1     2     0     0 -1.612967760E+02 -1.401217499E+02 -8.658417609E+01  2.622452560E+02  1.250000000E+02  0.00000E+00  9.000E+00
      21     1     1     2   511   501 -6.731214342E+01  1.733697516E+02 -1.757070681E+02  2.558534136E+02  1.907348633E-06  0.00000E+00  9.000E+00
#rwgt            2          11   3.3078171358230744E-003           8         617           0
</event>
<event>
      5   9999  3.19816E-02  3.04665E+01 -1.00000E+00  1.52576E-01
      21    -1     0     0   502   512  0.000000000E+00  0.000000000E+00  1.372811228E+02  1.372811228E+02  0.000000000E+00  0.00000E+00  9.000E+00
      21    -1     0     0   501   502  0.000000000E+00  0.000000000E+00 -2.875808747E+02  2.875808747E+02  0.000000000E+00  0.00000E+00  9.000E+00
      25     1     1     2     0     0 -1.244586594E+02 -2.707480361E+01 -1.024579104E+02  2.057805294E+02  1.250000000E+02  0.00000E+00  9.000E+00
      25     1     1     2     0     0  1.340340770E+02 -1.847828710E+00 -3.949747614E+01  1.874929303E+02  1.250000000E+02  0.00000E+00  9.000E+00
      21     1     1     2   501   512 -9.575417668E+00  2.892263232E+01 -8.344365382E+00  3.158853776E+01  2.665600750E-07  0.00000E+00  9.000E+00
#rwgt            1           1   2.5171773853192751E-002           8         667           0
</event>
<event>
      5   9999  3.19816E-02  1.29027E+02 -1.00000E+00  1.19046E-01
      21    -1     0     0   511   501  0.000000000E+00  0.000000000E+00  7.563188379E+02  7.563188379E+02  0.000000000E+00  0.00000E+00  9.000E+00
      21    -1     0     0   501   502  0.000000000E+00  0.000000000E+00 -1.463756521E+03  1.463756521E+03  0.000000000E+00  0.00000E+00  9.000E+00
      25     1     1     2     0     0  4.745398644E+02 -8.396996333E+01 -9.214770412E+02  1.047370028E+03  1.250000000E+02  0.00000E+00  9.000E+00
      25     1     1     2     0     0 -4.745548227E+02  2.129974434E+02 -3.199502101E+02  6.233484800E+02  1.250000000E+02  0.00000E+00  9.000E+00
      21     1     1     2   511   502  1.495826137E-02 -1.290274800E+02  5.339895682E+02  5.493568511E+02  7.629394531E-06  0.00000E+00  9.000E+00
#rwgt            1           1   2.9490319545599747E-002           8         731           0
</event>
<event>
      5   9999  3.19816E-02  7.50568E+01 -1.00000E+00  1.29705E-01
      21    -1     0     0   502   512  0.000000000E+00  0.000000000E+00  1.461358700E+03  1.461358700E+03  0.000000000E+00  0.00000E+00  9.000E+00
      21    -1     0     0   501   502  0.000000000E+00  0.000000000E+00 -5.791352551E+02  5.791352551E+02  0.000000000E+00  0.00000E+00  9.000E+00
      25     1     1     2     0     0  4.930344451E+02  3.437820776E+02 -2.877331857E+02  6.780003445E+02  1.250000000E+02  0.00000E+00  9.000E+00
      25     1     1     2     0     0 -4.409588038E+02 -2.897297336E+02  6.942711350E+02  8.809230353E+02  1.250000000E+02  0.00000E+00  9.000E+00
      21     1     1     2   501   512 -5.207564128E+01 -5.405234403E+01  4.756854952E+02  4.815705749E+02  0.000000000E+00  0.00000E+00  9.000E+00
#rwgt            1           1   2.0497182807608354E-002           8         798           0
</event>
<event>
      5   9999  3.19816E-02  7.91547E+01 -1.00000E+00  1.28573E-01
       2    -1     0     0   502     0  0.000000000E+00  0.000000000E+00  2.870747806E+03  2.870747806E+03  0.000000000E+00  0.00000E+00  9.000E+00
      21    -1     0     0   501   502  0.000000000E+00  0.000000000E+00 -1.005025456E+02  1.005025456E+02  0.000000000E+00  0.00000E+00  9.000E+00
      25     1     1     2     0     0  1.377565614E+00 -9.044904587E+01 -3.330362350E+01  1.578513824E+02  1.250000000E+02  0.00000E+00  9.000E+00
      25     1     1     2     0     0  1.431808389E+01  1.286614201E+01  9.792221453E+02  9.873558401E+02  1.250000000E+02  0.00000E+00  9.000E+00
       2     1     1     2   501     0 -1.569564950E+01  7.758290386E+01  1.824326738E+03  1.826043129E+03  2.157918644E-05  0.00000E+00  9.000E+00
#rwgt            2          18   1.1352458115847972E-003           8         949           0
</event>
<event>
      5   9999  3.19816E-02  1.19432E+01 -1.00000E+00  1.87245E-01
      21    -1     0     0   502   501  0.000000000E+00  0.000000000E+00  1.423524139E+02  1.423524139E+02  0.000000000E+00  0.00000E+00  9.000E+00
       2    -1     0     0   501     0  0.000000000E+00  0.000000000E+00 -1.926984960E+03  1.926984960E+03  0.000000000E+00  0.00000E+00  9.000E+00
      25     1     1     2     0     0  1.391330691E+01  2.461420754E+01 -2.478476789E+02  2.790213455E+02  1.250000000E+02  0.00000E+00  9.000E+00
      25     1     1     2     0     0 -8.181357900E+00 -1.413634016E+01  9.539746726E+01  1.580899981E+02  1.250000000E+02  0.00000E+00  9.000E+00
       2     1     1     2   502     0 -5.731949011E+00 -1.047786738E+01 -1.632182334E+03  1.632226030E+03  2.157918644E-05  0.00000E+00  9.000E+00
#rwgt            1           1   2.3931420789587602E-002           8         968           0
</event>
<event>
      5   9999  3.19816E-02  6.36766E+02 -1.00000E+00  9.59576E-02
      21    -1     0     0   502   501  0.000000000E+00  0.000000000E+00  8.385911337E+02  8.385911337E+02  0.000000000E+00  0.00000E+00  9.000E+00
       1    -1     0     0   501     0  0.000000000E+00  0.000000000E+00 -8.528050842E+02  8.528050842E+02  0.000000000E+00  0.00000E+00  9.000E+00
      25     1     1     2     0     0 -1.815385313E+02 -1.984992342E+02  2.268869981E+02  3.734446334E+02  1.250000000E+02  0.00000E+00  9.000E+00
      25     1     1     2     0     0  3.161717092E+02 -4.238709969E+02  1.587045305E+02  5.660771147E+02  1.250000000E+02  0.00000E+00  9.000E+00
       1     1     1     2   502     0 -1.346331780E+02  6.223702311E+02 -3.998054792E+02  7.518744698E+02  1.705984480E-05  0.00000E+00  9.000E+00
#rwgt            2          12   5.0992722086119801E-004           8        1236           0
</event>
<event>
      5   9999  3.19816E-02  9.50391E+01 -1.00000E+00  1.24830E-01
      21    -1     0     0   502   501  0.000000000E+00  0.000000000E+00  2.916892580E+02  2.916892580E+02  0.000000000E+00  0.00000E+00  9.000E+00
      21    -1     0     0   501   511  0.000000000E+00  0.000000000E+00 -4.841419182E+02  4.841419182E+02  0.000000000E+00  0.00000E+00  9.000E+00
      25     1     1     2     0     0  2.470935957E+02 -1.220156603E+02 -1.815724861E+01  3.031464202E+02  1.250000000E+02  0.00000E+00  9.000E+00
      25     1     1     2     0     0 -3.158511967E+02  5.640447733E+01 -1.365624966E+02  3.704291552E+02  1.250000000E+02  0.00000E+00  9.000E+00
      21     1     1     2   502   511  6.875760102E+01  6.561118297E+01 -3.773291506E+01  1.022556009E+02  1.168007728E-06  0.00000E+00  9.000E+00
#rwgt            2          11   3.4022394561463447E-003           8        1420           0
</event>
<event>
      5   9999  3.19816E-02  2.38547E+02 -1.00000E+00  1.08931E-01
      21    -1     0     0   512   501  0.000000000E+00  0.000000000E+00  1.068003918E+03  1.068003918E+03  0.000000000E+00  0.00000E+00  9.000E+00
      21    -1     0     0   501   502  0.000000000E+00  0.000000000E+00 -2.908383801E+02  2.908383801E+02  0.000000000E+00  0.00000E+00  9.000E+00
      25     1     1     2     0     0 -6.140677352E+01 -1.608829922E+02  9.825290246E+01  2.343773919E+02  1.250000000E+02  0.00000E+00  9.000E+00
      25     1     1     2     0     0 -1.771392865E+02  1.614889775E+02 -1.162641831E+02  2.942777208E+02  1.250000000E+02  0.00000E+00  9.000E+00
      21     1     1     2   512   502  2.385460600E+02 -6.059853542E-01  7.951768185E+02  8.301871853E+02  1.078959322E-05  0.00000E+00  9.000E+00
#rwgt            1           1   2.7128504050412453E-002           8        1440           0
</event>
<event>
      5   9999  3.19816E-02  3.03790E+02 -1.00000E+00  1.05415E-01
      21    -1     0     0   511   501  0.000000000E+00  0.000000000E+00  6.242868833E+02  6.242868833E+02  0.000000000E+00  0.00000E+00  9.000E+00
      21    -1     0     0   501   502  0.000000000E+00  0.000000000E+00 -7.131358545E+02  7.131358545E+02  0.000000000E+00  0.00000E+00  9.000E+00
      25     1     1     2     0     0  6.446158669E+01 -7.801049056E+01 -3.055006697E+02  3.452485945E+02  1.250000000E+02  0.00000E+00  9.000E+00
      25     1     1     2     0     0  1.267896884E+01  3.718437527E+02 -2.278046163E+02  4.538154646E+02  1.250000000E+02  0.00000E+00  9.000E+00
      21     1     1     2   511   502 -7.714055553E+01 -2.938332621E+02  4.444563149E+02  5.383586788E+02  5.394796609E-06  0.00000E+00  9.000E+00
#rwgt            2          11   5.4645854416848346E-003           8        1654           0
</event>
<event>
      5   9999  3.19816E-02  2.26527E+01 -1.00000E+00  1.62026E-01
      21    -1     0     0   512   501  0.000000000E+00  0.000000000E+00  1.918867084E+02  1.918867084E+02  0.000000000E+00  0.00000E+00  9.000E+00
      21    -1     0     0   501   502  0.000000000E+00  0.000000000E+00 -2.853525527E+02  2.853525527E+02  0.000000000E+00  0.00000E+00  9.000E+00
      25     1     1     2     0     0 -8.436060726E+01  1.492161588E+02 -1.676342522E+00  2.121555661E+02  1.250000000E+02  0.00000E+00  9.000E+00
      25     1     1     2     0     0  6.323800366E+01 -1.574001836E+02 -1.084333040E+02  2.369739317E+02  1.250000000E+02  0.00000E+00  9.000E+00
      21     1     1     2   512   502  2.112260360E+01  8.184024764E+00  1.664380211E+01  2.810976330E+01  3.371747881E-07  0.00000E+00  9.000E+00
#rwgt            1           1   2.4584167150860446E-002           8        1674           0
</event>
<event>
      5   9999  3.19816E-02  3.42340E+01 -1.00000E+00  1.49161E-01
      21    -1     0     0   502   501  0.000000000E+00  0.000000000E+00  4.444741919E+02  4.444741919E+02  0.000000000E+00  0.00000E+00  9.000E+00
      21    -1     0     0   511   502  0.000000000E+00  0.000000000E+00 -4.615504975E+02  4.615504975E+02  0.000000000E+00  0.00000E+00  9.000E+00
      25     1     1     2     0     0  3.977364511E+01 -1.625893858E+01 -3.485122181E+02  3.727359147E+02  1.250000000E+02  0.00000E+00  9.000E+00
      25     1     1     2     0     0 -7.274806539E+01  2.545977636E+01  4.164805377E+02  4.416124087E+02  1.250000000E+02  0.00000E+00  9.000E+00
      21     1     1     2   511   501  3.297442028E+01 -9.200837781E+00 -8.504462516E+01  9.167636597E+01  9.536743164E-07  0.00000E+00  9.000E+00
#rwgt            1           1   2.6937074682278923E-002           8        1794           0
</event>
<event>
      5   9999  3.65065E-02  1.72174E+01 -1.00000E+00  1.71923E-01
      21    -1     0     0   512   501  0.000000000E+00  0.000000000E+00  4.801957038E+02  4.801957038E+02  0.000000000E+00  0.00000E+00  9.000E+00
      21    -1     0     0   501   502  0.000000000E+00  0.000000000E+00 -1.317852967E+02  1.317852967E+02  0.000000000E+00  0.00000E+00  9.000E+00
      25     1     1     2     0     0  1.536807816E+01 -1.526386466E+02  1.449812311E+02  2.453146788E+02  1.250000000E+02  0.00000E+00  9.000E+00
      25     1     1     2     0     0 -1.316767587E+01  1.355624715E+02  2.400548315E+01  1.864184395E+02  1.250000000E+02  0.00000E+00  9.000E+00
      21     1     1     2   512   502 -2.200402285E+00  1.707617510E+01  1.794236927E+02  1.802478822E+02  2.697398305E-06  0.00000E+00  9.000E+00
#rwgt            1           1   3.2461306597591805E-002           8        1880           0
</event>
<event>
      5   9999  3.19816E-02  2.95129E+01 -1.00000E+00  1.53535E-01
      21    -1     0     0   502   511  0.000000000E+00  0.000000000E+00  4.585474965E+02  4.585474965E+02  0.000000000E+00  0.00000E+00  9.000E+00
      21    -1     0     0   501   502  0.000000000E+00  0.000000000E+00 -9.234142283E+02  9.234142283E+02  0.000000000E+00  0.00000E+00  9.000E+00
      25     1     1     2     0     0 -5.652998096E+00 -5.328880504E+02  3.398245548E+01  5.484354456E+02  1.250000000E+02  0.00000E+00  9.000E+00
      25     1     1     2     0     0  6.194627262E+00  5.623959883E+02 -5.354225392E+02  7.865303024E+02  1.250000000E+02  0.00000E+00  9.000E+00
      21     1     1     2   501   511 -5.416291660E-01 -2.950793789E+01  3.657335194E+01  4.699597677E+01  4.768371582E-07  0.00000E+00  9.000E+00
#rwgt            1           1   2.2012473603871006E-002           8        2094           0
</event>
<event>
      5   9999  3.19816E-02  1.35159E+01 -1.00000E+00  1.81755E-01
      21    -1     0     0   502   501  0.000000000E+00  0.000000000E+00  8.618719193E+02  8.618719193E+02  0.000000000E+00  0.00000E+00  9.000E+00
      21    -1     0     0   512   502  0.000000000E+00  0.000000000E+00 -7.725907039E+01  7.725907039E+01  0.000000000E+00  0.00000E+00  9.000E+00
      25     1     1     2     0     0  1.148525364E+02 -3.915991907E+01  3.987528665E+02  4.351476220E+02  1.250000000E+02  0.00000E+00  9.000E+00
      25     1     1     2     0     0 -1.133735043E+02  5.259461550E+01  4.262202982E+02  4.614200772E+02  1.250000000E+02  0.00000E+00  9.000E+00
      21     1     1     2   512   501 -1.479032071E+00 -1.343469643E+01 -4.036031580E+01  4.256329047E+01  2.023048729E-06  0.00000E+00  9.000E+00
#rwgt            1           1   2.5634448281761313E-002           8        2330           0
</event>
<event>
      5   9999  3.19816E-02  2.91527E+01 -1.00000E+00  1.53909E-01
      21    -1     0     0   511   501  0.000000000E+00  0.000000000E+00  6.366891271E+02  6.366891271E+02  0.000000000E+00  0.00000E+00  9.000E+00
      21    -1     0     0   501   502  0.000000000E+00  0.000000000E+00 -7.707897821E+02  7.707897821E+02  0.000000000E+00  0.00000E+00  9.000E+00
      25     1     1     2     0     0  1.165170547E+02 -2.144422834E+02 -7.063000629E+02  7.576585615E+02  1.250000000E+02  0.00000E+00  9.000E+00
      25     1     1     2     0     0 -1.404104723E+02  1.977394305E+02  5.470700302E+02  6.113318257E+02  1.250000000E+02  0.00000E+00  9.000E+00
      21     1     1     2   511   502  2.389341761E+01  1.670285289E+01  2.512937767E+01  3.848852195E+01  4.768371582E-07  0.00000E+00  9.000E+00
#rwgt            1           1   2.5398321798364772E-002           8        2524           0
</event>
<event>
      5   9999  3.19816E-02  1.90618E+01 -1.00000E+00  1.68109E-01
      21    -1     0     0   502   512  0.000000000E+00  0.000000000E+00  1.039954702E+03  1.039954702E+03  0.000000000E+00  0.00000E+00  9.000E+00
      21    -1     0     0   501   502  0.000000000E+00  0.000000000E+00 -2.530826261E+02  2.530826261E+02  0.000000000E+00  0.00000E+00  9.000E+00
      25     1     1     2     0     0 -3.849654377E+02  7.831256389E+01  4.964578330E+02  6.453112628E+02  1.250000000E+02  0.00000E+00  9.000E+00
      25     1     1     2     0     0  3.674972780E+02 -7.068274841E+01  3.999121854E+01  3.965786150E+02  1.250000000E+02  0.00000E+00  9.000E+00
      21     1     1     2   501   512  1.746815971E+01 -7.629815484E+00  2.504230246E+02  2.511474506E+02  2.697398305E-06  0.00000E+00  9.000E+00
#rwgt            1           1   2.5323561333739416E-002           8        2710           0
</event>
<event>
      5   9999  3.19816E-02  4.02595E+01 -1.00000E+00  1.44666E-01
      21    -1     0     0   502   501  0.000000000E+00  0.000000000E+00  3.006395648E+02  3.006395648E+02  0.000000000E+00  0.00000E+00  9.000E+00
      21    -1     0     0   501   511  0.000000000E+00  0.000000000E+00 -4.342398238E+02  4.342398238E+02  0.000000000E+00  0.00000E+00  9.000E+00
      25     1     1     2     0     0  8.455681689E+00  3.040081970E+02 -1.354910865E+02  3.556336836E+02  1.250000000E+02  0.00000E+00  9.000E+00
      25     1     1     2     0     0  3.180111610E+01 -3.035398309E+02  2.842309634E+01  3.310296245E+02  1.250000000E+02  0.00000E+00  9.000E+00
      21     1     1     2   502   511 -4.025679779E+01 -4.683660770E-01 -2.653226886E+01  4.821608058E+01  6.743495762E-07  0.00000E+00  9.000E+00
#rwgt            1           1   2.7371113972728581E-002           8        2927           0
</event>
<event>
      5   9999  3.19816E-02  1.95974E+01 -1.00000E+00  1.67101E-01
      21    -1     0     0   502   501  0.000000000E+00  0.000000000E+00  1.031080064E+02  1.031080064E+02  0.000000000E+00  0.00000E+00  9.000E+00
      21    -1     0     0   501   512  0.000000000E+00  0.000000000E+00 -1.236306956E+03  1.236306956E+03  0.000000000E+00  0.00000E+00  9.000E+00
      25     1     1     2     0     0  3.165509239E+02 -1.083553392E+01 -3.686241302E+02  5.018273065E+02  1.250000000E+02  0.00000E+00  9.000E+00
      25     1     1     2     0     0 -2.969627927E+02  1.143778222E+01 -7.184997912E+02  7.875180462E+02  1.250000000E+02  0.00000E+00  9.000E+00
      21     1     1     2   502   512 -1.958813120E+01 -6.022482945E-01 -4.607502786E+01  5.006960934E+01  6.743495762E-07  0.00000E+00  9.000E+00
#rwgt            1           1   2.8816330652232675E-002           8        3078           0
</event>
<event>
      5   9999  3.19816E-02  1.38076E+02 -1.00000E+00  1.17837E-01
      21    -1     0     0   502   501  0.000000000E+00  0.000000000E+00  6.004184993E+02  6.004184993E+02  0.000000000E+00  0.00000E+00  9.000E+00
      21    -1     0     0   501   511  0.000000000E+00  0.000000000E+00 -5.112111261E+02  5.112111261E+02  0.000000000E+00  0.00000E+00  9.000E+00
      25     1     1     2     0     0  7.248909803E+00  7.731358703E+01  5.187303912E+02  5.391995514E+02  1.250000000E+02  0.00000E+00  9.000E+00
      25     1     1     2     0     0 -1.013651849E+02 -1.783444951E+02 -2.663557065E+02  3.586809474E+02  1.250000000E+02  0.00000E+00  9.000E+00
      21     1     1     2   502   511  9.411627506E+01  1.010309081E+02 -1.631673116E+02  2.137491267E+02  0.000000000E+00  0.00000E+00  9.000E+00
#rwgt            2          11   3.3984342667390532E-003           8        3279           0
</event>
<event>
      5   9999  3.19816E-02  5.57000E+01 -1.00000E+00  1.36452E-01
      21    -1     0     0   502   512  0.000000000E+00  0.000000000E+00  1.646037994E+03  1.646037994E+03  0.000000000E+00  0.00000E+00  9.000E+00
      21    -1     0     0   501   502  0.000000000E+00  0.000000000E+00 -8.066297926E+02  8.066297926E+02  0.000000000E+00  0.00000E+00  9.000E+00
      25     1     1     2     0     0 -5.014236475E+02 -3.660156893E+02 -1.256459316E+02  6.456044139E+02  1.250000000E+02  0.00000E+00  9.000E+00
      25     1     1     2     0     0  5.504188546E+02  3.395211451E+02 -1.622614798E+02  6.783725461E+02  1.250000000E+02  0.00000E+00  9.000E+00
      21     1     1     2   501   512 -4.899520708E+01  2.649454419E+01  1.127315612E+03  1.128690826E+03  1.525878906E-05  0.00000E+00  9.000E+00
#rwgt            1           1   2.9497744579226999E-002           8        3299           0
</event>
<event>
      5   9999  3.19816E-02  7.75457E+01 -1.00000E+00  1.29008E-01
      21    -1     0     0   511   501  0.000000000E+00  0.000000000E+00  3.499633258E+03  3.499633258E+03  0.000000000E+00  0.00000E+00  9.000E+00
      21    -1     0     0   501   502  0.000000000E+00  0.000000000E+00 -2.604650864E+01  2.604650864E+01  0.000000000E+00  0.00000E+00  9.000E+00
      25     1     1     2     0     0 -1.603174961E+00  9.065841366E+01  2.095802048E+03  2.101483462E+03  1.250000000E+02  0.00000E+00  9.000E+00
      25     1     1     2     0     0  5.392005248E+01 -3.341957969E+01  2.020861996E+02  2.459432301E+02  1.250000000E+02  0.00000E+00  9.000E+00
      21     1     1     2   511   502 -5.231687752E+01 -5.723883398E+01  1.175698501E+03  1.178253074E+03  2.157918644E-05  0.00000E+00  9.000E+00
#rwgt            1           1   5.9516540850979127E-002           8        3484           0
</event>
<event>
      5   9999  3.19816E-02  1.55471E+02 -1.00000E+00  1.15780E-01
      21    -1     0     0   502   501  0.000000000E+00  0.000000000E+00  9.221689088E+02  9.221689088E+02  0.000000000E+00  0.00000E+00  9.000E+00
      21    -1     0     0   501   512  0.000000000E+00  0.000000000E+00 -1.027744393E+03  1.027744393E+03  0.000000000E+00  0.00000E+00  9.000E+00
      25     1     1     2     0     0  5.539685606E+02 -3.960986523E+02 -1.734799019E+02  7.137895942E+02  1.250000000E+02  0.00000E+00  9.000E+00
      25     1     1     2     0     0 -5.315443706E+02  2.422537056E+02  4.986744937E+02  7.781564923E+02  1.250000000E+02  0.00000E+00  9.000E+00
      21     1     1     2   502   512 -2.242418995E+01  1.538449466E+02 -4.307700764E+02  4.579672157E+02  0.000000000E+00  0.00000E+00  9.000E+00
#rwgt            1           1   3.0690210326657929E-002           8        3557           0
</event>
<event>
      5   9999  3.19816E-02  2.23244E+02 -1.00000E+00  1.09937E-01
      21    -1     0     0   502   501  0.000000000E+00  0.000000000E+00  4.314630756E+03  4.314630756E+03  0.000000000E+00  0.00000E+00  9.000E+00
      21    -1     0     0   511   502  0.000000000E+00  0.000000000E+00 -3.583074699E+01  3.583074699E+01  0.000000000E+00  0.00000E+00  9.000E+00
      25     1     1     2     0     0  2.404329822E+01 -1.654795344E+02  3.215062006E+03  3.221833369E+03  1.250000000E+02  0.00000E+00  9.000E+00
      25     1     1     2     0     0 -3.693727856E+01 -5.739172093E+01  2.862172344E+02  3.196927861E+02  1.250000000E+02  0.00000E+00  9.000E+00
      21     1     1     2   511   501  1.289398033E+01  2.228712554E+02  7.775207684E+02  8.089353476E+02  1.525878906E-05  0.00000E+00  9.000E+00
#rwgt            1           1   1.6974972005936034E-002           8        3634           0
</event>
<event>
      5   9999  3.19816E-02  2.56773E+01 -1.00000E+00  1.57886E-01
       3    -1     0     0   502     0  0.000000000E+00  0.000000000E+00  4.137446180E+03  4.137446180E+03  0.000000000E+00  0.00000E+00  9.000E+00
      21    -1     0     0   501   502  0.000000000E+00  0.000000000E+00 -3.564203159E+02  3.564203159E+02  0.000000000E+00  0.00000E+00  9.000E+00
      25     1     1     2     0     0 -2.089480979E+02 -3.519071852E+02  1.075994516E+03  1.157966827E+03  1.250000000E+02  0.00000E+00  9.000E+00
      25     1     1     2     0     0  2.282948406E+02  3.687899688E+02 -1.538635432E+02  4.768894686E+02  1.250000000E+02  0.00000E+00  9.000E+00
       3     1     1     2   501     0 -1.934674269E+01 -1.688278361E+01  2.858894891E+03  2.859010200E+03  0.000000000E+00  0.00000E+00  9.000E+00
#rwgt            1           1   2.5077068647174454E-002           8        3670           0
</event>
<event>
      5   9999  3.19816E-02  4.93444E+01 -1.00000E+00  1.39403E-01
      21    -1     0     0   502   501  0.000000000E+00  0.000000000E+00  5.719636396E+01  5.719636396E+01  0.000000000E+00  0.00000E+00  9.000E+00
      21    -1     0     0   511   502  0.000000000E+00  0.000000000E+00 -7.097229188E+02  7.097229188E+02  0.000000000E+00  0.00000E+00  9.000E+00
      25     1     1     2     0     0 -9.565156261E+01 -5.212652570E+01 -3.015200289E+02  3.441013280E+02  1.250000000E+02  0.00000E+00  9.000E+00
      25     1     1     2     0     0  4.866432823E+01  6.719536470E+01 -1.369073050E+02  2.031059921E+02  1.250000000E+02  0.00000E+00  9.000E+00
      21     1     1     2   511   501  4.698723438E+01 -1.506883900E+01 -2.140992210E+02  2.197119626E+02  2.697398305E-06  0.00000E+00  9.000E+00
#rwgt            1           1   2.8426612970143462E-002           8        3881           0
</event>
<event>
      5   9999  3.19816E-02  5.19172E+02 -1.00000E+00  9.83900E-02
      21    -1     0     0   502   501  0.000000000E+00  0.000000000E+00  3.673512267E+02  3.673512267E+02  0.000000000E+00  0.00000E+00  9.000E+00
      21    -1     0     0   512   502  0.000000000E+00  0.000000000E+00 -1.361893205E+03  1.361893205E+03  0.000000000E+00  0.00000E+00  9.000E+00
      25     1     1     2     0     0 -3.884119608E+01 -7.174148535E+01 -1.161936237E+02  1.891598198E+02  1.250000000E+02  0.00000E+00  9.000E+00
      25     1     1     2     0     0  5.398034161E+02 -6.455198700E+01 -4.682874862E+01  5.597969442E+02  1.250000000E+02  0.00000E+00  9.000E+00
      21     1     1     2   512   501 -5.009622200E+02  1.362934723E+02 -8.315196064E+02  9.802876681E+02  1.525878906E-05  0.00000E+00  9.000E+00
#rwgt            2          11   2.3505514929014720E-003           8        4086           0
</event>
<event>
      5   9999  3.19816E-02  3.31176E+02 -1.00000E+00  1.04215E-01
      21    -1     0     0   502   501  0.000000000E+00  0.000000000E+00  1.169924623E+03  1.169924623E+03  0.000000000E+00  0.00000E+00  9.000E+00
      -3    -1     0     0     0   502  0.000000000E+00  0.000000000E+00 -3.362478748E+02  3.362478748E+02  0.000000000E+00  0.00000E+00  9.000E+00
      25     1     1     2     0     0 -3.827949614E+02 -2.893526066E+02  1.351346668E+02  5.139487247E+02  1.250000000E+02  0.00000E+00  9.000E+00
      25     1     1     2     0     0  2.945677377E+02 -2.985518372E+01  5.319781928E+02  6.215201378E+02  1.250000000E+02  0.00000E+00  9.000E+00
      -3     1     1     2     0   501  8.822722370E+01  3.192077903E+02  1.665638888E+02  3.707036356E+02  2.697398305E-06  0.00000E+00  9.000E+00
#rwgt            1           1   2.8713642293723550E-002           8        4106           0
</event>
<event>
      5   9999  3.19816E-02  4.89674E+01 -1.00000E+00  1.39595E-01
      21    -1     0     0   511   501  0.000000000E+00  0.000000000E+00  5.317750107E+02  5.317750107E+02  0.000000000E+00  0.00000E+00  9.000E+00
      21    -1     0     0   501   502  0.000000000E+00  0.000000000E+00 -5.201269221E+02  5.201269221E+02  0.000000000E+00  0.00000E+00  9.000E+00
      25     1     1     2     0     0 -3.474899563E+02 -1.660239696E+02  1.415067813E+02  4.289083787E+02  1.250000000E+02  0.00000E+00  9.000E+00
      25     1     1     2     0     0  3.482956979E+02  2.149847886E+02 -2.483350705E+02  4.947965842E+02  1.250000000E+02  0.00000E+00  9.000E+00
      21     1     1     2   511   502 -8.057416235E-01 -4.896081907E+01  1.184763777E+02  1.281969699E+02  0.000000000E+00  0.00000E+00  9.000E+00
#rwgt            1           1   2.4518478491630042E-002           8        4137           0
</event>
<event>
      5   9999  3.19816E-02  1.91752E+02 -1.00000E+00  1.12318E-01
      21    -1     0     0   502   501  0.000000000E+00  0.000000000E+00  6.212650639E+02  6.212650639E+02  0.000000000E+00  0.00000E+00  9.000E+00
      21    -1     0     0   512   502  0.000000000E+00  0.000000000E+00 -1.045885450E+03  1.045885450E+03  0.000000000E+00  0.00000E+00  9.000E+00
      25     1     1     2     0     0  3.896857509E+02 -2.315774514E+02 -5.439547583E+02  7.190235598E+02  1.250000000E+02  0.00000E+00  9.000E+00
      25     1     1     2     0     0 -4.651000605E+02  4.078765831E+02  2.870960062E+02  6.933473084E+02  1.250000000E+02  0.00000E+00  9.000E+00
      21     1     1     2   512   501  7.541430964E+01 -1.762991317E+02 -1.677616336E+02  2.547796453E+02  4.672030912E-06  0.00000E+00  9.000E+00
#rwgt            1           1   3.1760054252333948E-002           8        4252           0
</event>
<event>
      5   9999  3.19816E-02  3.58353E+01 -1.00000E+00  1.47865E-01
      21    -1     0     0   511   501  0.000000000E+00  0.000000000E+00  5.492393570E+01  5.492393570E+01  0.000000000E+00  0.00000E+00  9.000E+00
      21    -1     0     0   501   502  0.000000000E+00  0.000000000E+00 -2.588819287E+03  2.588819287E+03  0.000000000E+00  0.00000E+00  9.000E+00
      25     1     1     2     0     0 -1.490484669E+02  1.689584445E+02 -3.708376990E+02  4.515617349E+02  1.250000000E+02  0.00000E+00  9.000E+00
      25     1     1     2     0     0  1.162185945E+02 -1.545928225E+02 -2.133040751E+03  2.145435515E+03  1.250000000E+02  0.00000E+00  9.000E+00
      21     1     1     2   511   502  3.282987240E+01 -1.436562199E+01 -3.001690089E+01  4.674597262E+01  3.371747881E-07  0.00000E+00  9.000E+00
#rwgt            1           1   7.5421400775941602E-002           8        4334           0
</event>
<event>
      5   9999  3.19816E-02  6.37715E+01 -1.00000E+00  1.33304E-01
      21    -1     0     0   502   501  0.000000000E+00  0.000000000E+00  1.509147016E+02  1.509147016E+02  0.000000000E+00  0.00000E+00  9.000E+00
      21    -1     0     0   512   502  0.000000000E+00  0.000000000E+00 -2.319648166E+03  2.319648166E+03  0.000000000E+00  0.00000E+00  9.000E+00
      25     1     1     2     0     0 -2.202267602E+02 -4.176165485E+02 -1.307283416E+03  1.395535144E+03  1.250000000E+02  0.00000E+00  9.000E+00
      25     1     1     2     0     0  2.632185738E+02  3.705154738E+02 -4.273033946E+02  6.362223864E+02  1.250000000E+02  0.00000E+00  9.000E+00
      21     1     1     2   512   501 -4.299181361E+01  4.710107477E+01 -4.341466539E+02  4.388053376E+02  0.000000000E+00  0.00000E+00  9.000E+00
#rwgt            1           1   2.9940754965672944E-002           8        4483           0
</event>
<event>
      5   9999  3.19816E-02  7.72152E+01 -1.00000E+00  1.29099E-01
      21    -1     0     0   502   501  0.000000000E+00  0.000000000E+00  2.258210848E+02  2.258210848E+02  0.000000000E+00  0.00000E+00  9.000E+00
       2    -1     0     0   501     0  0.000000000E+00  0.000000000E+00 -1.269516021E+03  1.269516021E+03  0.000000000E+00  0.00000E+00  9.000E+00
      25     1     1     2     0     0 -2.724999135E+02 -1.502657088E+02 -2.687489916E+02  4.297522619E+02  1.250000000E+02  0.00000E+00  9.000E+00
      25     1     1     2     0     0  2.670778338E+02  7.324112083E+01 -1.764083431E+01  3.043534625E+02  1.250000000E+02  0.00000E+00  9.000E+00
       2     1     1     2   502     0  5.422079664E+00  7.702458795E+01 -7.573051105E+02  7.612313817E+02  1.078959322E-05  0.00000E+00  9.000E+00
#rwgt            1           1   3.1395548263394843E-002           8        4555           0
</event>
<event>
      5   9999  3.19816E-02  4.28394E+01 -1.00000E+00  1.43017E-01
      21    -1     0     0   502   511  0.000000000E+00  0.000000000E+00  2.062106961E+02  2.062106961E+02  0.000000000E+00  0.00000E+00  9.000E+00
      21    -1     0     0   501   502  0.000000000E+00  0.000000000E+00 -5.677007590E+02  5.677007590E+02  0.000000000E+00  0.00000E+00  9.000E+00
      25     1     1     2     0     0  2.783592050E+01 -4.880389596E+01 -4.754952265E+02  4.948508555E+02  1.250000000E+02  0.00000E+00  9.000E+00
      25     1     1     2     0     0 -6.774094311E+01  6.438608429E+01 -1.272622721E+00  1.560801807E+02  1.250000000E+02  0.00000E+00  9.000E+00
      21     1     1     2   501   511  3.990502261E+01 -1.558218833E+01  1.152777863E+02  1.229804189E+02  0.000000000E+00  0.00000E+00  9.000E+00
#rwgt            1           1   2.7338069715481278E-002           8        4630           0
</event>
<event>
      5   9999  3.19816E-02  1.19840E+02 -1.00000E+00  1.20393E-01
      21    -1     0     0   502   501  0.000000000E+00  0.000000000E+00  3.847078091E+02  3.847078091E+02  0.000000000E+00  0.00000E+00  9.000E+00
       2    -1     0     0   501     0  0.000000000E+00  0.000000000E+00 -9.498683293E+02  9.498683293E+02  0.000000000E+00  0.00000E+00  9.000E+00
      25     1     1     2     0     0 -1.461781608E+02  2.410535356E+02  7.795944357E+01  3.180841659E+02  1.250000000E+02  0.00000E+00  9.000E+00
      25     1     1     2     0     0  6.102815365E+01 -1.567268255E+02  1.217070740E+02  2.423331287E+02  1.250000000E+02  0.00000E+00  9.000E+00
       2     1     1     2   502     0  8.515000713E+01 -8.432671013E+01 -7.648270378E+02  7.741588439E+02  0.000000000E+00  0.00000E+00  9.000E+00
#rwgt            1           1   2.7254551347566019E-002           8        4710           0
</event>
<event>
      5   9999  3.19816E-02  2.82375E+01 -1.00000E+00  1.54889E-01
       2    -1     0     0   502     0  0.000000000E+00  0.000000000E+00  1.171074942E+03  1.171074942E+03  0.000000000E+00  0.00000E+00  9.000E+00
      21    -1     0     0   501   502  0.000000000E+00  0.000000000E+00 -1.114757172E+02  1.114757172E+02  0.000000000E+00  0.00000E+00  9.000E+00
      25     1     1     2     0     0 -2.586656200E+02  1.147680045E+02  3.502067956E+02  4.672787150E+02  1.250000000E+02  0.00000E+00  9.000E+00
      25     1     1     2     0     0  2.304527053E+02 -1.159470581E+02  3.396547466E+02  4.444575531E+02  1.250000000E+02  0.00000E+00  9.000E+00
       2     1     1     2   501     0  2.821291468E+01  1.179053601E+00  3.697376825E+02  3.708143910E+02  5.394796609E-06  0.00000E+00  9.000E+00
#rwgt            1           1   2.8383525337781275E-002           8        4756           0
</event>
<event>
      5   9999  3.19816E-02  1.96110E+02 -1.00000E+00  1.11959E-01
      21    -1     0     0   502   501  0.000000000E+00  0.000000000E+00  4.601936717E+02  4.601936717E+02  0.000000000E+00  0.00000E+00  9.000E+00
      21    -1     0     0   511   502  0.000000000E+00  0.000000000E+00 -4.755829705E+02  4.755829705E+02  0.000000000E+00  0.00000E+00  9.000E+00
      25     1     1     2     0     0 -1.429373469E+02 -2.043285345E+00  1.663895421E+02  2.524791870E+02  1.250000000E+02  0.00000E+00  9.000E+00
      25     1     1     2     0     0  3.268327164E+02 -6.608609241E+01  7.125364655E+01  3.631653594E+02  1.250000000E+02  0.00000E+00  9.000E+00
      21     1     1     2   511   501 -1.838953695E+02  6.812937776E+01 -2.530324874E+02  3.201320958E+02  5.394796609E-06  0.00000E+00  9.000E+00
#rwgt            1           1   2.6828843053912751E-002           8        4836           0
</event>
<event>
      5   9999  3.19816E-02  5.03092E+00 -1.00000E+00  2.38050E-01
      21    -1     0     0   512   501  0.000000000E+00  0.000000000E+00  7.642954289E+02  7.642954289E+02  0.000000000E+00  0.00000E+00  9.000E+00
      21    -1     0     0   501   502  0.000000000E+00  0.000000000E+00 -6.142717745E+02  6.142717745E+02  0.000000000E+00  0.00000E+00  9.000E+00
      25     1     1     2     0     0  1.762780051E+02  2.877260281E+02 -3.999081740E+02  5.379700270E+02  1.250000000E+02  0.00000E+00  9.000E+00
      25     1     1     2     0     0 -1.812338203E+02 -2.868599710E+02  7.963268330E+01  3.702711234E+02  1.250000000E+02  0.00000E+00  9.000E+00
      21     1     1     2   512   502  4.955815260E+00 -8.660570757E-01  4.702991451E+02  4.703260529E+02  0.000000000E+00  0.00000E+00  9.000E+00
#rwgt            1           1   2.6773387993285463E-002           8        4924           0
</event>
<event>
      5   9999  3.19816E-02  8.18924E+00 -1.00000E+00  2.06352E-01
      21    -1     0     0   502   501  0.000000000E+00  0.000000000E+00  6.484170958E+02  6.484170958E+02  0.000000000E+00  0.00000E+00  9.000E+00
      21    -1     0     0   511   502  0.000000000E+00  0.000000000E+00 -1.531455972E+02  1.531455972E+02  0.000000000E+00  0.00000E+00  9.000E+00
      25     1     1     2     0     0 -1.494341006E+02 -2.618614926E+01  5.577799118E+02  5.914048485E+02  1.250000000E+02  0.00000E+00  9.000E+00
      25     1     1     2     0     0  1.422881716E+02  3.018606689E+01 -5.629450573E+01  1.998779472E+02  1.250000000E+02  0.00000E+00  9.000E+00
      21     1     1     2   511   501  7.145928999E+00 -3.999917634E+00 -6.213907440E+00  1.027989728E+01  1.192092896E-07  0.00000E+00  9.000E+00
#rwgt            1           1   2.8099774401443355E-002           8        5316           0
</event>
<event>
      5   9999  3.19816E-02  1.60349E+01 -1.00000E+00  1.74697E-01
      21    -1     0     0   502   501  0.000000000E+00  0.000000000E+00  3.296121239E+02  3.296121239E+02  0.000000000E+00  0.00000E+00  9.000E+00
      21    -1     0     0   501   512  0.000000000E+00  0.000000000E+00 -7.675873554E+01  7.675873554E+01  0.000000000E+00  0.00000E+00  9.000E+00
      25     1     1     2     0     0  3.514138260E+01 -3.223194449E+01  1.344775661E+02  1.896919366E+02  1.250000000E+02  0.00000E+00  9.000E+00
      25     1     1     2     0     0 -4.838164448E+01  4.127702696E+01  1.342281960E+02  1.941308453E+02  1.250000000E+02  0.00000E+00  9.000E+00
      21     1     1     2   502   512  1.324026188E+01 -9.045082468E+00 -1.585237373E+01  2.254807762E+01  2.920019320E-07  0.00000E+00  9.000E+00
#rwgt            1           1   1.2174467988157141E-002           8        5505           0
</event>
<event>
      5   9999  3.19816E-02  7.55313E+02 -1.00000E+00  9.40155E-02
      21    -1     0     0   502   501  0.000000000E+00  0.000000000E+00  6.075961712E+02  6.075961712E+02  0.000000000E+00  0.00000E+00  9.000E+00
       3    -1     0     0   501     0  0.000000000E+00  0.000000000E+00 -2.616371496E+03  2.616371496E+03  0.000000000E+00  0.00000E+00  9.000E+00
      25     1     1     2     0     0 -1.408476199E+02 -5.246711317E+02 -2.550429877E+02  6.130169443E+02  1.250000000E+02  0.00000E+00  9.000E+00
      25     1     1     2     0     0  7.624689952E+02  9.562041765E+01 -8.991561179E+01  7.837168176E+02  1.250000000E+02  0.00000E+00  9.000E+00
       3     1     1     2   502     0 -6.216213753E+02  4.290507141E+02 -1.663816726E+03  1.827233906E+03  2.157918644E-05  0.00000E+00  9.000E+00
#rwgt            2          14   2.2130291856862737E-005           8        5690           0
</event>
<event>
      5   9999  3.19816E-02  7.19105E+00 -1.00000E+00  2.13914E-01
      21    -1     0     0   502   501  0.000000000E+00  0.000000000E+00  1.303002943E+02  1.303002943E+02  0.000000000E+00  0.00000E+00  9.000E+00
       2    -1     0     0   501     0  0.000000000E+00  0.000000000E+00 -1.171844462E+03  1.171844462E+03  0.000000000E+00  0.00000E+00  9.000E+00
      25     1     1     2     0     0 -1.848691883E+02 -1.750566842E+02 -1.324335082E+02  3.130257075E+02  1.250000000E+02  0.00000E+00  9.000E+00
      25     1     1     2     0     0  1.814871256E+02  1.814027761E+02 -4.695310149E+02  5.494805892E+02  1.250000000E+02  0.00000E+00  9.000E+00
       2     1     1     2   502     0  3.382062711E+00 -6.346091876E+00 -4.395796441E+02  4.396384591E+02  5.394796609E-06  0.00000E+00  9.000E+00
#rwgt            1           1   2.8052701574598365E-002           8        5709           0
</event>
<event>
      5   9999  3.19816E-02  9.09757E+01 -1.00000E+00  1.25704E-01
      21    -1     0     0   502   511  0.000000000E+00  0.000000000E+00  6.960471477E+02  6.960471477E+02  0.000000000E+00  0.00000E+00  9.000E+00
      21    -1     0     0   501   502  0.000000000E+00  0.000000000E+00 -1.845120082E+03  1.845120082E+03  0.000000000E+00  0.00000E+00  9.000E+00
      25     1     1     2     0     0  6.714655177E+02 -6.233656601E+02 -1.986092456E+01  9.249162902E+02  1.250000000E+02  0.00000E+00  9.000E+00
      25     1     1     2     0     0 -6.662873217E+02  7.141938799E+02 -1.158715169E+03  1.520610909E+03  1.250000000E+02  0.00000E+00  9.000E+00
      21     1     1     2   501   511 -5.178195977E+00 -9.082821979E+01  2.950315850E+01  9.564003129E+01  1.118282261E-06  0.00000E+00  9.000E+00
#rwgt            1           1   2.6363538398985205E-002           8        5968           0
</event>
<event>
      5   9999  3.19816E-02  3.94587E+01 -1.00000E+00  1.45208E-01
      21    -1     0     0   502   501  0.000000000E+00  0.000000000E+00  5.494598252E+02  5.494598252E+02  0.000000000E+00  0.00000E+00  9.000E+00
      21    -1     0     0   512   502  0.000000000E+00  0.000000000E+00 -1.751159274E+02  1.751159274E+02  0.000000000E+00  0.00000E+00  9.000E+00
      25     1     1     2     0     0 -1.259731005E+02 -8.238903325E+00 -7.269943051E+01  1.919565283E+02  1.250000000E+02  0.00000E+00  9.000E+00
      25     1     1     2     0     0  9.201209540E+01 -1.185191070E+01  4.641901365E+02  4.895959317E+02  1.250000000E+02  0.00000E+00  9.000E+00
      21     1     1     2   512   501  3.396100506E+01  2.009081402E+01 -1.714680822E+01  4.302329259E+01  0.000000000E+00  0.00000E+00  9.000E+00
#rwgt            1           1   2.6942065989589280E-002           8        6154           0
</event>
<event>
      5   9999  3.19816E-02  7.97420E+01 -1.00000E+00  1.28417E-01
      21    -1     0     0   502   501  0.000000000E+00  0.000000000E+00  1.518002850E+02  1.518002850E+02  0.000000000E+00  0.00000E+00  9.000E+00
      21    -1     0     0   511   502  0.000000000E+00  0.000000000E+00 -3.261512632E+02  3.261512632E+02  0.000000000E+00  0.00000E+00  9.000E+00
      25     1     1     2     0     0  9.676812815E+01 -7.895078805E+01 -3.771355658E+01  1.806781943E+02  1.250000000E+02  0.00000E+00  9.000E+00
      25     1     1     2     0     0 -1.350844245E+02  9.017668763E+00 -9.593974071E+01  2.077463692E+02  1.250000000E+02  0.00000E+00  9.000E+00
      21     1     1     2   511   501  3.831629632E+01  6.993311929E+01 -4.069768090E+01  8.952698458E+01  1.719260824E-06  0.00000E+00  9.000E+00
#rwgt            1           1   3.1639268667570900E-002           8        6261           0
</event>
<event>
      5   9999  4.26286E-02  3.85750E+01 -1.00000E+00  1.45824E-01
      21    -1     0     0   502   501  0.000000000E+00  0.000000000E+00  1.754811945E+03  1.754811945E+03  0.000000000E+00  0.00000E+00  9.000E+00
      21    -1     0     0   501   512  0.000000000E+00  0.000000000E+00 -2.274992883E+01  2.274992883E+01  0.000000000E+00  0.00000E+00  9.000E+00
      25     1     1     2     0     0  4.663039625E+01  4.268121400E+01  1.259295192E+03  1.267061743E+03  1.250000000E+02  0.00000E+00  9.000E+00
      25     1     1     2     0     0 -2.937852338E+01 -7.718338998E+01  4.133155942E+02  4.396307016E+02  1.250000000E+02  0.00000E+00  9.000E+00
      21     1     1     2   502   512 -1.725187287E+01  3.450217598E+01  5.945122979E+01  7.086942916E+01  1.784161275E-06  0.00000E+00  9.000E+00
#rwgt            1           1  0.12119969383814919                8        6329           0
</event>
<event>
      5   9999  3.19816E-02  9.97183E+01 -1.00000E+00  1.23883E-01
      21    -1     0     0   502   511  0.000000000E+00  0.000000000E+00  5.493089488E+02  5.493089488E+02  0.000000000E+00  0.00000E+00  9.000E+00
      21    -1     0     0   501   502  0.000000000E+00  0.000000000E+00 -1.433650274E+03  1.433650274E+03  0.000000000E+00  0.00000E+00  9.000E+00
      25     1     1     2     0     0  5.125941272E+02  5.750035385E+02 -5.133022575E+02  9.340695992E+02  1.250000000E+02  0.00000E+00  9.000E+00
      25     1     1     2     0     0 -5.506645114E+02 -4.828385987E+02 -4.927756621E+02  8.915253051E+02  1.250000000E+02  0.00000E+00  9.000E+00
      21     1     1     2   501   511  3.807038416E+01 -9.216493985E+01  1.217365945E+02  1.573643184E+02  1.907348633E-06  0.00000E+00  9.000E+00
#rwgt            1           1   2.7963919530012985E-002           8        6392           0
</event>
<event>
      5   9999  3.19816E-02  4.10350E+02 -1.00000E+00  1.01353E-01
      21    -1     0     0   512   501  0.000000000E+00  0.000000000E+00  1.944678253E+02  1.944678253E+02  0.000000000E+00  0.00000E+00  9.000E+00
      21    -1     0     0   501   502  0.000000000E+00  0.000000000E+00 -1.447836744E+03  1.447836744E+03  0.000000000E+00  0.00000E+00  9.000E+00
      25     1     1     2     0     0 -5.125538807E+01 -8.379778196E+01 -4.186692501E+02  4.478371624E+02  1.250000000E+02  0.00000E+00  9.000E+00
      25     1     1     2     0     0  4.070147026E+02 -1.207078748E+02 -4.685252586E+02  6.444938147E+02  1.250000000E+02  0.00000E+00  9.000E+00
      21     1     1     2   512   502 -3.557593146E+02  2.045056567E+02 -3.661744096E+02  5.499735919E+02  7.629394531E-06  0.00000E+00  9.000E+00
#rwgt            2          11   2.9398838875643852E-003           8        6513           0
</event>
<event>
      5   9999  3.19816E-02  1.45435E+02 -1.00000E+00  1.16928E-01
       1    -1     0     0   502     0  0.000000000E+00  0.000000000E+00  5.962925306E+01  5.962925306E+01  0.000000000E+00  0.00000E+00  9.000E+00
      21    -1     0     0   501   502  0.000000000E+00  0.000000000E+00 -1.266576383E+03  1.266576383E+03  0.000000000E+00  0.00000E+00  9.000E+00
      25     1     1     2     0     0 -8.087638407E+01  1.785337205E+02 -6.738478989E+02  7.128192406E+02  1.250000000E+02  0.00000E+00  9.000E+00
      25     1     1     2     0     0  6.362639773E-01 -5.723742037E+01 -3.707588653E+02  3.954284554E+02  1.250000000E+02  0.00000E+00  9.000E+00
       1     1     1     2   501     0  8.024012009E+01 -1.212963001E+02 -1.623403656E+02  2.179579399E+02  1.907348633E-06  0.00000E+00  9.000E+00
#rwgt            1           1   3.2432440861107747E-002           8        6593           0
</event>
<event>
      5   9999  3.19816E-02  1.29394E+02 -1.00000E+00  1.18995E-01
      21    -1     0     0   502   501  0.000000000E+00  0.000000000E+00  3.557224666E+02  3.557224666E+02  0.000000000E+00  0.00000E+00  9.000E+00
      21    -1     0     0   511   502  0.000000000E+00  0.000000000E+00 -1.288955957E+03  1.288955957E+03  0.000000000E+00  0.00000E+00  9.000E+00
      25     1     1     2     0     0 -3.289339609E+02 -2.211804920E+02  7.408680254E+01  4.221755737E+02  1.250000000E+02  0.00000E+00  9.000E+00
      25     1     1     2     0     0  4.555175499E+02  1.943590723E+02 -5.650563515E+02  7.616990007E+02  1.250000000E+02  0.00000E+00  9.000E+00
      21     1     1     2   511   501 -1.265835890E+02  2.682141968E+01 -4.422639414E+02  4.608038492E+02  5.394796609E-06  0.00000E+00  9.000E+00
#rwgt            1           1   2.7842961436080112E-002           8        6658           0
</event>
<event>
      5   9999  3.19816E-02  6.58613E+01 -1.00000E+00  1.32575E-01
       2    -1     0     0   502     0  0.000000000E+00  0.000000000E+00  1.203260074E+03  1.203260074E+03  0.000000000E+00  0.00000E+00  9.000E+00
      21    -1     0     0   501   502  0.000000000E+00  0.000000000E+00 -1.296628405E+03  1.296628405E+03  0.000000000E+00  0.00000E+00  9.000E+00
      25     1     1     2     0     0  5.433116583E+02 -3.373999971E+02 -2.227628612E+02  6.886759822E+02  1.250000000E+02  0.00000E+00  9.000E+00
      25     1     1     2     0     0 -4.875766369E+02  3.724901319E+02 -7.228903773E+02  9.563866231E+02  1.250000000E+02  0.00000E+00  9.000E+00
       2     1     1     2   501     0 -5.573502141E+01 -3.509013482E+01  8.522849082E+02  8.548258740E+02  0.000000000E+00  0.00000E+00  9.000E+00
#rwgt            1           1   1.8872494268705027E-002           8        6757           0
</event>
<event>
      5   9999  3.19816E-02  3.06249E+01 -1.00000E+00  1.52421E-01
      21    -1     0     0   502   511  0.000000000E+00  0.000000000E+00  6.816453244E+02  6.816453244E+02  0.000000000E+00  0.00000E+00  9.000E+00
      21    -1     0     0   501   502  0.000000000E+00  0.000000000E+00 -1.228588331E+02  1.228588331E+02  0.000000000E+00  0.00000E+00  9.000E+00
      25     1     1     2     0     0 -9.062072691E+01  1.597277209E+02  1.268545869E+02  2.558166281E+02  1.250000000E+02  0.00000E+00  9.000E+00
      25     1     1     2     0     0  1.146020582E+02 -1.406808650E+02  1.534060246E+02  2.684830459E+02  1.250000000E+02  0.00000E+00  9.000E+00
      21     1     1     2   501   511 -2.398133130E+01 -1.904685585E+01  2.785258798E+02  2.802044837E+02  3.814697266E-06  0.00000E+00  9.000E+00
#rwgt            1           1   2.9562911374943896E-002           8        6890           0
</event>
<event>
      5   9999  3.19816E-02  5.49862E+01 -1.00000E+00  1.36760E-01
      21    -1     0     0   502   512  0.000000000E+00  0.000000000E+00  1.136067014E+03  1.136067014E+03  0.000000000E+00  0.00000E+00  9.000E+00
      21    -1     0     0   501   502  0.000000000E+00  0.000000000E+00 -3.240031317E+02  3.240031317E+02  0.000000000E+00  0.00000E+00  9.000E+00
      25     1     1     2     0     0 -4.497379709E+02  2.202006591E+01  1.734708064E+02  4.984638868E+02  1.250000000E+02  0.00000E+00  9.000E+00
      25     1     1     2     0     0  5.026130851E+02 -3.710989920E+01  2.630893473E+02  5.820979836E+02  1.250000000E+02  0.00000E+00  9.000E+00
      21     1     1     2   501   512 -5.287511411E+01  1.508983329E+01  3.755037285E+02  3.795082752E+02  0.000000000E+00  0.00000E+00  9.000E+00
#rwgt            1           1   2.6594486142620433E-002           8        6985           0
</event>
<event>
      5   9999  3.19816E-02  8.62675E+01 -1.00000E+00  1.26784E-01
      21    -1     0     0   511   501  0.000000000E+00  0.000000000E+00  1.250876304E+03  1.250876304E+03  0.000000000E+00  0.00000E+00  9.000E+00
      21    -1     0     0   501   502  0.000000000E+00  0.000000000E+00 -1.208235450E+02  1.208235450E+02  0.000000000E+00  0.00000E+00  9.000E+00
      25     1     1     2     0     0  3.193350295E+02  8.189584225E+01  5.889227903E+02  6.863940872E+02  1.250000000E+02  0.00000E+00  9.000E+00
      25     1     1     2     0     0 -2.407653720E+02 -1.175172515E+02  2.685577817E+02  3.994077501E+02  1.250000000E+02  0.00000E+00  9.000E+00
      21     1     1     2   511   502 -7.856965744E+01  3.562140928E+01  2.725721871E+02  2.858980116E+02  6.607249480E-06  0.00000E+00  9.000E+00
#rwgt            1           1   3.0245512664636449E-002           8        7103           0
</event>
<event>
      5   9999  3.19816E-02  1.97460E+02 -1.00000E+00  1.11851E-01
       2    -1     0     0   502     0  0.000000000E+00  0.000000000E+00  3.624870165E+03  3.624870165E+03  0.000000000E+00  0.00000E+00  9.000E+00
      21    -1     0     0   501   502  0.000000000E+00  0.000000000E+00 -1.580347204E+03  1.580347204E+03  0.000000000E+00  0.00000E+00  9.000E+00
      25     1     1     2     0     0 -5.108883451E+02  5.452475699E+01 -9.307924874E+02  1.070504323E+03  1.250000000E+02  0.00000E+00  9.000E+00
      25     1     1     2     0     0  3.497889531E+02 -1.687057415E+02 -5.047736802E+02  6.490265073E+02  1.250000000E+02  0.00000E+00  9.000E+00
       2     1     1     2   501     0  1.610993920E+02  1.141809845E+02  3.480089129E+03  3.485686540E+03  4.315837288E-05  0.00000E+00  9.000E+00
#rwgt            1           1   2.9768976504487118E-002           8        7209           0
</event>
<event>
      5   9999  3.19816E-02  2.93387E+02 -1.00000E+00  1.05907E-01
       2    -1     0     0   502     0  0.000000000E+00  0.000000000E+00  1.448420730E+03  1.448420730E+03  0.000000000E+00  0.00000E+00  9.000E+00
      21    -1     0     0   501   502  0.000000000E+00  0.000000000E+00 -7.748232381E+02  7.748232381E+02  0.000000000E+00  0.00000E+00  9.000E+00
      25     1     1     2     0     0 -2.517218271E+02  5.377243573E+01  1.199017344E+03  1.232689314E+03  1.250000000E+02  0.00000E+00  9.000E+00
      25     1     1     2     0     0  2.231544427E+02 -3.457656701E+02 -5.476275003E+02  6.963279995E+02  1.250000000E+02  0.00000E+00  9.000E+00
       2     1     1     2   501     0  2.856738444E+01  2.919932344E+02  2.220764733E+01  2.942266541E+02  2.718390048E-06  0.00000E+00  9.000E+00
#rwgt            1           1   2.2196881619219896E-002           8        7266           0
</event>
<event>
      5   9999  3.19816E-02  5.94518E+01 -1.00000E+00  1.34917E-01
      21    -1     0     0   502   501  0.000000000E+00  0.000000000E+00  1.175491541E+02  1.175491541E+02  0.000000000E+00  0.00000E+00  9.000E+00
      21    -1     0     0   501   511  0.000000000E+00  0.000000000E+00 -7.654452468E+02  7.654452468E+02  0.000000000E+00  0.00000E+00  9.000E+00
      25     1     1     2     0     0 -2.771939342E+01 -1.679179523E+02 -1.318937435E+02  2.489694019E+02  1.250000000E+02  0.00000E+00  9.000E+00
      25     1     1     2     0     0 -8.260433425E+00  2.152462872E+02 -2.205981693E+02  3.326976874E+02  1.250000000E+02  0.00000E+00  9.000E+00
      21     1     1     2   502   511  3.597982685E+01 -4.732833490E+01 -2.954041799E+02  3.013273116E+02  0.000000000E+00  0.00000E+00  9.000E+00
#rwgt            1           1   2.5487746275947486E-002           8        7330           0
</event>
<event>
      5   9999  3.19816E-02  2.81977E+01 -1.00000E+00  1.54933E-01
      21    -1     0     0   512   501  0.000000000E+00  0.000000000E+00  1.584000864E+02  1.584000864E+02  0.000000000E+00  0.00000E+00  9.000E+00
      21    -1     0     0   501   502  0.000000000E+00  0.000000000E+00 -4.743655080E+02  4.743655080E+02  0.000000000E+00  0.00000E+00  9.000E+00
      25     1     1     2     0     0  1.322816571E+02 -1.042384353E+02 -3.437643688E+02  4.026947100E+02  1.250000000E+02  0.00000E+00  9.000E+00
      25     1     1     2     0     0 -1.349197771E+02  7.616444277E+01  1.671068728E+01  1.997714085E+02  1.250000000E+02  0.00000E+00  9.000E+00
      21     1     1     2   512   502  2.638120001E+00  2.807399248E+01  1.108825994E+01  3.029947590E+01  2.384185791E-07  0.00000E+00  9.000E+00
#rwgt            1           1   2.8012333660871094E-002           8        7406           0
</event>
<event>
      5   9999  3.19816E-02  7.21199E+01 -1.00000E+00  1.30568E-01
      21    -1     0     0   502   501  0.000000000E+00  0.000000000E+00  1.312543897E+02  1.312543897E+02  0.000000000E+00  0.00000E+00  9.000E+00
      21    -1     0     0   511   502  0.000000000E+00  0.000000000E+00 -5.679136094E+02  5.679136094E+02  0.000000000E+00  0.00000E+00  9.000E+00
      25     1     1     2     0     0  1.395136911E+02 -3.832270976E+01 -6.540096297E+01  2.020766836E+02  1.250000000E+02  0.00000E+00  9.000E+00
      25     1     1     2     0     0 -1.965369222E+02  8.247729273E+01 -2.257459493E+02  3.346871663E+02  1.250000000E+02  0.00000E+00  9.000E+00
      21     1     1     2   511   501  5.702323113E+01 -4.415458297E+01 -1.455123074E+02  1.624041492E+02  0.000000000E+00  0.00000E+00  9.000E+00
#rwgt            1           1   2.9841871098544238E-002           8        7514           0
</event>
<event>
      5   9999  3.19816E-02  8.89298E+01 -1.00000E+00  1.26164E-01
      21    -1     0     0   502   501  0.000000000E+00  0.000000000E+00  5.850308925E+02  5.850308925E+02  0.000000000E+00  0.00000E+00  9.000E+00
      21    -1     0     0   512   502  0.000000000E+00  0.000000000E+00 -2.015235502E+03  2.015235502E+03  0.000000000E+00  0.00000E+00  9.000E+00
      25     1     1     2     0     0  4.559414077E+02 -1.457962814E+02  3.724498289E+01  4.961363841E+02  1.250000000E+02  0.00000E+00  9.000E+00
      25     1     1     2     0     0 -4.638287619E+02  2.343756224E+02  9.181453556E+01  5.423319663E+02  1.250000000E+02  0.00000E+00  9.000E+00
      21     1     1     2   512   501  7.887354237E+00 -8.857934107E+01 -1.559264128E+03  1.561798044E+03  2.157918644E-05  0.00000E+00  9.000E+00
#rwgt            1           1   2.3362596318228190E-002           8        7612           0
</event>
<event>
      5   9999  3.19816E-02  7.13963E+01 -1.00000E+00  1.30788E-01
      21    -1     0     0   502   511  0.000000000E+00  0.000000000E+00  5.010321722E+02  5.010321722E+02  0.000000000E+00  0.00000E+00  9.000E+00
      21    -1     0     0   501   502  0.000000000E+00  0.000000000E+00 -1.130429373E+03  1.130429373E+03  0.000000000E+00  0.00000E+00  9.000E+00
      25     1     1     2     0     0 -2.883526192E+02  5.007652495E+02 -6.366403368E+02  8.688204570E+02  1.250000000E+02  0.00000E+00  9.000E+00
      25     1     1     2     0     0  2.320331231E+02 -5.446463416E+02 -1.198931791E+02  6.168292973E+02  1.250000000E+02  0.00000E+00  9.000E+00
      21     1     1     2   501   511  5.631949610E+01  4.388109213E+01  1.271363148E+02  1.458117911E+02  1.348699152E-06  0.00000E+00  9.000E+00
#rwgt            1           1   2.5831046531074462E-002           8        7706           0
</event>
<event>
      5   9999  3.19816E-02  2.53294E+02 -1.00000E+00  1.08036E-01
       1    -1     0     0   502     0  0.000000000E+00  0.000000000E+00  6.860786966E+02  6.860786966E+02  0.000000000E+00  0.00000E+00  9.000E+00
      21    -1     0     0   501   502  0.000000000E+00  0.000000000E+00 -6.706523669E+02  6.706523669E+02  0.000000000E+00  0.00000E+00  9.000E+00
      25     1     1     2     0     0  2.907811416E+02 -2.510943298E+02 -3.508066700E+02  5.350629445E+02  1.250000000E+02  0.00000E+00  9.000E+00
      25     1     1     2     0     0 -1.638494140E+02  3.189955048E+01 -1.430399186E+02  2.528826410E+02  1.250000000E+02  0.00000E+00  9.000E+00
       1     1     1     2   501     0 -1.269317276E+02  2.191947794E+02  5.092729183E+02  5.687854781E+02  7.629394531E-06  0.00000E+00  9.000E+00
#rwgt            2          17   9.3782813143406083E-004           8        7832           0
</event>
<event>
      5   9999  3.19816E-02  8.46096E+01 -1.00000E+00  1.27183E-01
      21    -1     0     0   502   501  0.000000000E+00  0.000000000E+00  1.864619638E+03  1.864619638E+03  0.000000000E+00  0.00000E+00  9.000E+00
      21    -1     0     0   501   511  0.000000000E+00  0.000000000E+00 -1.088265263E+02  1.088265263E+02  0.000000000E+00  0.00000E+00  9.000E+00
      25     1     1     2     0     0  4.531316398E+01  2.699751365E+02  8.293038809E+02  8.822186713E+02  1.250000000E+02  0.00000E+00  9.000E+00
      25     1     1     2     0     0  3.344156840E+01 -3.009022056E+02  9.487827271E+02  1.003730113E+03  1.250000000E+02  0.00000E+00  9.000E+00
      21     1     1     2   502   511 -7.875473238E+01  3.092706911E+01 -2.229349674E+01  8.749737981E+01  2.407909617E-06  0.00000E+00  9.000E+00
#rwgt            1           1   3.5595957643729671E-002           8        7851           0
</event>
<event>
      5   9999  3.19816E-02  1.95936E+02 -1.00000E+00  1.11974E-01
      21    -1     0     0   502   501  0.000000000E+00  0.000000000E+00  7.942921068E+02  7.942921068E+02  0.000000000E+00  0.00000E+00  9.000E+00
      21    -1     0     0   501   512  0.000000000E+00  0.000000000E+00 -7.257260110E+02  7.257260110E+02  0.000000000E+00  0.00000E+00  9.000E+00
      25     1     1     2     0     0  3.486109327E+02  4.233398847E+02  4.652569300E+01  5.643898302E+02  1.250000000E+02  0.00000E+00  9.000E+00
      25     1     1     2     0     0 -3.653623858E+02 -6.185586414E+02  1.159343746E+02  7.383564485E+02  1.250000000E+02  0.00000E+00  9.000E+00
      21     1     1     2   502   512  1.675145312E+01  1.952187567E+02 -9.389397183E+01  2.172718391E+02  0.000000000E+00  0.00000E+00  9.000E+00
#rwgt            2          11   5.2275907609823473E-003           8        7951           0
</event>
<event>
      5   9999  3.19816E-02  9.49545E+01 -1.00000E+00  1.24848E-01
      21    -1     0     0   511   501  0.000000000E+00  0.000000000E+00  1.319549791E+03  1.319549791E+03  0.000000000E+00  0.00000E+00  9.000E+00
      21    -1     0     0   501   502  0.000000000E+00  0.000000000E+00 -9.006030696E+02  9.006030696E+02  0.000000000E+00  0.00000E+00  9.000E+00
      25     1     1     2     0     0 -5.543527516E+02  7.470675081E+02  1.399821539E+02  9.490188820E+02  1.250000000E+02  0.00000E+00  9.000E+00
      25     1     1     2     0     0  5.489086672E+02 -6.522691907E+02 -1.119451241E+02  8.688570267E+02  1.250000000E+02  0.00000E+00  9.000E+00
      21     1     1     2   511   502  5.444084354E+00 -9.479831744E+01  3.909096921E+02  4.022769524E+02  0.000000000E+00  0.00000E+00  9.000E+00
#rwgt            1           1   3.2485883704366357E-002           8        7971           0
</event>
<event>
      5   9999  3.19816E-02  4.92843E+01 -1.00000E+00  1.39434E-01
      21    -1     0     0   502   501  0.000000000E+00  0.000000000E+00  5.346523784E+02  5.346523784E+02  0.000000000E+00  0.00000E+00  9.000E+00
      21    -1     0     0   512   502  0.000000000E+00  0.000000000E+00 -2.748488765E+02  2.748488765E+02  0.000000000E+00  0.00000E+00  9.000E+00
      25     1     1     2     0     0 -2.911189183E+02 -4.904591892E+01  2.318586161E+02  3.956502807E+02  1.250000000E+02  0.00000E+00  9.000E+00
      25     1     1     2     0     0  3.311231198E+02  7.783147626E+01  3.495666423E+01  3.640703607E+02  1.250000000E+02  0.00000E+00  9.000E+00
      21     1     1     2   512   501 -4.000420147E+01 -2.878555734E+01 -7.011778435E+00  4.978061353E+01  7.633118912E-07  0.00000E+00  9.000E+00
#rwgt            1           1   2.7704817561358432E-002           8        8069           0
</event>
<event>
      5   9999  3.19816E-02  2.69730E+01 -1.00000E+00  1.56319E-01
      21    -1     0     0   511   501  0.000000000E+00  0.000000000E+00  4.862568017E+02  4.862568017E+02  0.000000000E+00  0.00000E+00  9.000E+00
      21    -1     0     0   501   502  0.000000000E+00  0.000000000E+00 -3.561238454E+02  3.561238454E+02  0.000000000E+00  0.00000E+00  9.000E+00
      25     1     1     2     0     0  3.280067151E+02  1.271630348E+02 -6.372253263E+01  3.787405493E+02  1.250000000E+02  0.00000E+00  9.000E+00
      25     1     1     2     0     0 -3.391428371E+02 -1.517298582E+02  1.687110739E+02  4.267648536E+02  1.250000000E+02  0.00000E+00  9.000E+00
      21     1     1     2   511   502  1.113612205E+01  2.456682341E+01  2.514441499E+01  3.687524416E+01  5.840038640E-07  0.00000E+00  9.000E+00
#rwgt            1           1   2.5566390322355134E-002           8        8215           0
</event>
<event>
      5   9999  3.19816E-02  1.20695E+02 -1.00000E+00  1.20262E-01
      21    -1     0     0   502   501  0.000000000E+00  0.000000000E+00  5.187362274E+02  5.187362274E+02  0.000000000E+00  0.00000E+00  9.000E+00
      21    -1     0     0   501   512  0.000000000E+00  0.000000000E+00 -1.780169495E+03  1.780169495E+03  0.000000000E+00  0.00000E+00  9.000E+00
      25     1     1     2     0     0  1.567279209E+02  1.710858920E+02 -1.242419696E+03  1.270065244E+03  1.250000000E+02  0.00000E+00  9.000E+00
      25     1     1     2     0     0 -4.070925498E+01 -1.378151234E+02  4.794909939E+02  5.159330043E+02  1.250000000E+02  0.00000E+00  9.000E+00
      21     1     1     2   502   512 -1.160186659E+02 -3.327076860E+01 -4.985045652E+02  5.129074735E+02  5.394796609E-06  0.00000E+00  9.000E+00
#rwgt            1           1   3.3376451660181723E-002           8        8391           0
</event>
<event>
      5   9999  3.19816E-02  3.16280E+02 -1.00000E+00  1.04852E-01
      21    -1     0     0   502   501  0.000000000E+00  0.000000000E+00  6.671012119E+02  6.671012119E+02  0.000000000E+00  0.00000E+00  9.000E+00
      -2    -1     0     0     0   502  0.000000000E+00  0.000000000E+00 -7.440821819E+02  7.440821819E+02  0.000000000E+00  0.00000E+00  9.000E+00
      25     1     1     2     0     0 -4.156681674E+02  6.837877797E+01  1.439729174E+02  4.623947271E+02  1.250000000E+02  0.00000E+00  9.000E+00
      25     1     1     2     0     0  3.231088496E+02  2.340540500E+02  1.652789495E+02  4.495806470E+02  1.250000000E+02  0.00000E+00  9.000E+00
      -2     1     1     2     0   501  9.255931783E+01 -3.024328280E+02 -3.862328369E+02  4.992080198E+02  0.000000000E+00  0.00000E+00  9.000E+00
#rwgt            2           9   1.0952017857812529E-004           8        8484           0
</event>
<event>
      5   9999  3.19816E-02  1.22868E+01 -1.00000E+00  1.85956E-01
      21    -1     0     0   502   501  0.000000000E+00  0.000000000E+00  1.017975300E+02  1.017975300E+02  0.000000000E+00  0.00000E+00  9.000E+00
      21    -1     0     0   501   511  0.000000000E+00  0.000000000E+00 -5.897929854E+02  5.897929854E+02  0.000000000E+00  0.00000E+00  9.000E+00
      25     1     1     2     0     0 -1.069494153E+02 -9.193223092E+00 -1.887707643E+02  2.505635533E+02  1.250000000E+02  0.00000E+00  9.000E+00
      25     1     1     2     0     0  1.184029243E+02  4.745542370E+00 -3.405754458E+01  1.755753086E+02  1.250000000E+02  0.00000E+00  9.000E+00
      21     1     1     2   502   511 -1.145350893E+01  4.447680723E+00 -2.651671465E+02  2.654516535E+02  3.814697266E-06  0.00000E+00  9.000E+00
#rwgt            1           1   2.8068944348452515E-002           8        8533           0
</event>
<event>
      5   9999  3.19816E-02  3.64632E+01 -1.00000E+00  1.47379E-01
      -4    -1     0     0     0   501  0.000000000E+00  0.000000000E+00  6.668815349E+02  6.668815349E+02  0.000000000E+00  0.00000E+00  9.000E+00
      21    -1     0     0   501   502  0.000000000E+00  0.000000000E+00 -1.288038131E+02  1.288038131E+02  0.000000000E+00  0.00000E+00  9.000E+00
      25     1     1     2     0     0 -1.642740083E+02  1.769148114E+01  3.051065515E+02  3.688006861E+02  1.250000000E+02  0.00000E+00  9.000E+00
      25     1     1     2     0     0  1.957546153E+02  7.078965507E-01  4.648548983E+01  2.368676239E+02  1.250000000E+02  0.00000E+00  9.000E+00
      -4     1     1     2     0   502 -3.148060698E+01 -1.839937769E+01  1.864856804E+02  1.900170380E+02  0.000000000E+00  0.00000E+00  9.000E+00
#rwgt            1           1   2.8932934978576005E-002           8        8671           0
</event>
<event>
      5   9999  3.19816E-02  9.71731E+01 -1.00000E+00  1.24391E-01
      21    -1     0     0   502   501  0.000000000E+00  0.000000000E+00  3.789780550E+02  3.789780550E+02  0.000000000E+00  0.00000E+00  9.000E+00
       1    -1     0     0   501     0  0.000000000E+00  0.000000000E+00 -1.688694093E+03  1.688694093E+03  0.000000000E+00  0.00000E+00  9.000E+00
      25     1     1     2     0     0 -1.164186855E+02 -9.896502013E+01  2.414905180E+02  3.119135390E+02  1.250000000E+02  0.00000E+00  9.000E+00
      25     1     1     2     0     0  1.787898951E+02  2.445024619E+01 -1.885315699E+01  2.203272172E+02  1.250000000E+02  0.00000E+00  9.000E+00
       1     1     1     2   502     0 -6.237120956E+01  7.451477394E+01 -1.532353399E+03  1.535431392E+03  3.051757812E-05  0.00000E+00  9.000E+00
#rwgt            1           1   2.8754504993560047E-002           8        8855           0
</event>
<event>
      5   9999  3.19816E-02  1.35438E+02 -1.00000E+00  1.18179E-01
       2    -1     0     0   502     0  0.000000000E+00  0.000000000E+00  2.847432467E+03  2.847432467E+03  0.000000000E+00  0.00000E+00  9.000E+00
      21    -1     0     0   501   502  0.000000000E+00  0.000000000E+00 -5.979064932E+02  5.979064932E+02  0.000000000E+00  0.00000E+00  9.000E+00
      25     1     1     2     0     0 -1.141778800E+03 -5.829198897E+01  4.016613463E+02  1.218200977E+03  1.250000000E+02  0.00000E+00  9.000E+00
      25     1     1     2     0     0  1.013616347E+03  1.020841349E+02  1.819097362E+03  2.088678885E+03  1.250000000E+02  0.00000E+00  9.000E+00
       2     1     1     2   501     0  1.281624523E+02 -4.379214591E+01  2.876726491E+01  1.384590978E+02  1.545128989E-06  0.00000E+00  9.000E+00
#rwgt            1           1   7.4077435137733294E-002           8        8947           0
</event>
<event>
      5   9999  3.19816E-02  7.60062E+01 -1.00000E+00  1.29435E-01
      21    -1     0     0   511   501  0.000000000E+00  0.000000000E+00  6.922414150E+01  6.922414150E+01  0.000000000E+00  0.00000E+00  9.000E+00
      21    -1     0     0   501   502  0.000000000E+00  0.000000000E+00 -1.072990105E+03  1.072990105E+03  0.000000000E+00  0.00000E+00  9.000E+00
      25     1     1     2     0     0  1.181479115E+02 -1.872554075E+02 -6.378512410E+02  6.866605583E+02  1.250000000E+02  0.00000E+00  9.000E+00
      25     1     1     2     0     0 -6.357896548E+01  1.343482087E+02 -2.435038723E+02  3.114656672E+02  1.250000000E+02  0.00000E+00  9.000E+00
      21     1     1     2   511   502 -5.456894602E+01  5.290719884E+01 -1.224108503E+02  1.440880211E+02  1.348699152E-06  0.00000E+00  9.000E+00
#rwgt            1           1   3.4107142581382456E-002           8        9038           0
</event>
<event>
      5   9999  3.19816E-02  1.40283E+02 -1.00000E+00  1.17558E-01
      21    -1     0     0   502   501  0.000000000E+00  0.000000000E+00  4.511805710E+02  4.511805710E+02  0.000000000E+00  0.00000E+00  9.000E+00
      21    -1     0     0   512   502  0.000000000E+00  0.000000000E+00 -7.606835917E+02  7.606835917E+02  0.000000000E+00  0.00000E+00  9.000E+00
      25     1     1     2     0     0  1.931397565E+02  1.183850364E+02  3.749261569E+02  4.555355151E+02  1.250000000E+02  0.00000E+00  9.000E+00
      25     1     1     2     0     0 -1.038756070E+02 -1.016658524E+01 -4.916035825E+02  5.178731346E+02  1.250000000E+02  0.00000E+00  9.000E+00
      21     1     1     2   512   501 -8.926414951E+01 -1.082184512E+02 -1.928255950E+02  2.384555130E+02  2.697398305E-06  0.00000E+00  9.000E+00
#rwgt            1           1   3.1609336071334995E-002           8        9121           0
</event>
<event>
      5   9999  3.19816E-02  7.28023E+01 -1.00000E+00  1.30363E-01
      21    -1     0     0   502   511  0.000000000E+00  0.000000000E+00  8.938820659E+02  8.938820659E+02  0.000000000E+00  0.00000E+00  9.000E+00
      21    -1     0     0   501   502  0.000000000E+00  0.000000000E+00 -2.915138941E+02  2.915138941E+02  0.000000000E+00  0.00000E+00  9.000E+00
      25     1     1     2     0     0 -1.413410303E+02  2.686225023E+02  4.244921314E+02  5.366133666E+02  1.250000000E+02  0.00000E+00  9.000E+00
      25     1     1     2     0     0  6.869850950E+01 -2.638017089E+02 -1.340384261E+02  3.284845910E+02  1.250000000E+02  0.00000E+00  9.000E+00
      21     1     1     2   501   511  7.264252081E+01 -4.820793401E+00  3.119144666E+02  3.202980024E+02  0.000000000E+00  0.00000E+00  9.000E+00
#rwgt            1           1   2.8866488098446632E-002           8        9204           0
</event>
<event>
      5   9999  3.19816E-02  2.80181E+02 -1.00000E+00  1.06565E-01
       2    -1     0     0   502     0  0.000000000E+00  0.000000000E+00  2.732238109E+03  2.732238109E+03  0.000000000E+00  0.00000E+00  9.000E+00
      21    -1     0     0   501   502  0.000000000E+00  0.000000000E+00 -3.966599437E+02  3.966599437E+02  0.000000000E+00  0.00000E+00  9.000E+00
      25     1     1     2     0     0  4.596538854E+02 -8.326152218E+02  7.613535711E+02  1.224668960E+03  1.250000000E+02  0.00000E+00  9.000E+00
      25     1     1     2     0     0 -3.186227657E+02  5.905165443E+02  6.654601812E+02  9.532536434E+02  1.250000000E+02  0.00000E+00  9.000E+00
       2     1     1     2   501     0 -1.410311197E+02  2.420986775E+02  9.087644127E+02  9.509754488E+02  1.525878906E-05  0.00000E+00  9.000E+00
#rwgt            2          18   1.8574333535141408E-003           8        9266           0
</event>
<event>
      5   9999  3.19816E-02  6.81410E+01 -1.00000E+00  1.31815E-01
      21    -1     0     0   502   501  0.000000000E+00  0.000000000E+00  5.907942148E+02  5.907942148E+02  0.000000000E+00  0.00000E+00  9.000E+00
      21    -1     0     0   511   502  0.000000000E+00  0.000000000E+00 -7.840696121E+02  7.840696121E+02  0.000000000E+00  0.00000E+00  9.000E+00
      25     1     1     2     0     0 -4.773728016E+02 -1.907953002E+02 -3.949080667E+02  6.602007418E+02  1.250000000E+02  0.00000E+00  9.000E+00
      25     1     1     2     0     0  4.792333095E+02  1.226796909E+02  3.023282069E+02  5.930785919E+02  1.250000000E+02  0.00000E+00  9.000E+00
      21     1     1     2   511   501 -1.860507832E+00  6.811560927E+01 -1.006955376E+02  1.215844933E+02  1.348699152E-06  0.00000E+00  9.000E+00
#rwgt            1           1   2.7123733224185126E-002           8        9300           0
</event>
<event>
      5   9999  3.19816E-02  2.76267E+01 -1.00000E+00  1.55568E-01
      21    -1     0     0   512   501  0.000000000E+00  0.000000000E+00  1.057038450E+03  1.057038450E+03  0.000000000E+00  0.00000E+00  9.000E+00
      21    -1     0     0   501   502  0.000000000E+00  0.000000000E+00 -2.895677328E+02  2.895677328E+02  0.000000000E+00  0.00000E+00  9.000E+00
      25     1     1     2     0     0  3.892396945E+02  1.494104154E+02  7.467220581E+02  8.643204522E+02  1.250000000E+02  0.00000E+00  9.000E+00
      25     1     1     2     0     0 -3.816943463E+02 -1.228341079E+02 -3.357126452E+01  4.213440659E+02  1.250000000E+02  0.00000E+00  9.000E+00
      21     1     1     2   512   502 -7.545348236E+00 -2.657630759E+01  5.431992369E+01  6.094166485E+01  6.743495762E-07  0.00000E+00  9.000E+00
#rwgt            1           1   3.3526608214617760E-002           8        9442           0
</event>
<event>
      5   9999  3.19816E-02  4.51708E+01 -1.00000E+00  1.41640E-01
      21    -1     0     0   502   501  0.000000000E+00  0.000000000E+00  1.333104761E+02  1.333104761E+02  0.000000000E+00  0.00000E+00  9.000E+00
      -2    -1     0     0     0   502  0.000000000E+00  0.000000000E+00 -5.445292016E+02  5.445292016E+02  0.000000000E+00  0.00000E+00  9.000E+00
      25     1     1     2     0     0  1.175099230E+02 -1.426852394E+02 -1.233406823E+02  2.549619255E+02  1.250000000E+02  0.00000E+00  9.000E+00
      25     1     1     2     0     0 -1.465550095E+02  1.772797517E+02 -2.233893454E+02  3.441428204E+02  1.250000000E+02  0.00000E+00  9.000E+00
      -2     1     1     2     0   501  2.904508655E+01 -3.459451229E+01 -6.448869785E+01  7.873493179E+01  1.348699152E-06  0.00000E+00  9.000E+00
#rwgt            1           1   3.0839115928480820E-002           8        9610           0
</event>
<event>
      5   9999  3.19816E-02  3.38955E+01 -1.00000E+00  1.49446E-01
      21    -1     0     0   502   511  0.000000000E+00  0.000000000E+00  1.600953690E+02  1.600953690E+02  0.000000000E+00  0.00000E+00  9.000E+00
      21    -1     0     0   501   502  0.000000000E+00  0.000000000E+00 -7.309710709E+02  7.309710709E+02  0.000000000E+00  0.00000E+00  9.000E+00
      25     1     1     2     0     0 -1.582637141E+02  2.671662180E+02 -3.545178352E+02  4.875788005E+02  1.250000000E+02  0.00000E+00  9.000E+00
      25     1     1     2     0     0  1.366882841E+02 -2.410241299E+02 -2.087413642E+02  3.687468987E+02  1.250000000E+02  0.00000E+00  9.000E+00
      21     1     1     2   501   511  2.157542997E+01 -2.614208814E+01 -7.616502569E+00  3.474074066E+01  3.674277069E-07  0.00000E+00  9.000E+00
#rwgt            1           1   2.5512725140309424E-002           8        9709           0
</event>
<event>
      5   9999  3.19816E-02  2.10398E+02 -1.00000E+00  1.10853E-01
       2    -1     0     0   502     0  0.000000000E+00  0.000000000E+00  2.175886415E+03  2.175886415E+03  0.000000000E+00  0.00000E+00  9.000E+00
      21    -1     0     0   501   502  0.000000000E+00  0.000000000E+00 -5.460761128E+02  5.460761128E+02  0.000000000E+00  0.00000E+00  9.000E+00
      25     1     1     2     0     0 -5.134377743E+02  1.331222661E+02  8.331673208E+02  9.955564627E+02  1.250000000E+02  0.00000E+00  9.000E+00
      25     1     1     2     0     0  3.134239809E+02 -1.984052357E+02 -3.713823615E+02  5.395823271E+02  1.250000000E+02  0.00000E+00  9.000E+00
       2     1     1     2   501     0  2.000137935E+02  6.528296962E+01  1.168025342E+03  1.186823738E+03  2.642899792E-05  0.00000E+00  9.000E+00
#rwgt            1           1   2.8154100164071404E-002           8        9815           0
</event>
<event>
      5   9999  3.19816E-02  3.00707E+01 -1.00000E+00  1.52969E-01
      21    -1     0     0   511   501  0.000000000E+00  0.000000000E+00  1.663194044E+02  1.663194044E+02  0.000000000E+00  0.00000E+00  9.000E+00
      21    -1     0     0   501   502  0.000000000E+00  0.000000000E+00 -8.149524393E+02  8.149524393E+02  0.000000000E+00  0.00000E+00  9.000E+00
      25     1     1     2     0     0 -1.166383918E+02 -1.600167002E+02 -3.383477940E+02  4.114779319E+02  1.250000000E+02  0.00000E+00  9.000E+00
      25     1     1     2     0     0  1.456714826E+02  1.521854976E+02 -4.033964615E+02  4.719473611E+02  1.250000000E+02  0.00000E+00  9.000E+00
      21     1     1     2   511   502 -2.903309077E+01  7.831202644E+00  9.311122053E+01  9.784655070E+01  1.348699152E-06  0.00000E+00  9.000E+00
#rwgt            2          11   2.7503267563845444E-003           8       10119           0
</event>
<event>
      5   9999  3.19816E-02  4.84162E+01 -1.00000E+00  1.39878E-01
      -2    -1     0     0     0   501  0.000000000E+00  0.000000000E+00  1.480994544E+03  1.480994544E+03  0.000000000E+00  0.00000E+00  9.000E+00
      21    -1     0     0   501   502  0.000000000E+00  0.000000000E+00 -4.896602763E+02  4.896602763E+02  0.000000000E+00  0.00000E+00  9.000E+00
      25     1     1     2     0     0  2.180684335E+00  2.882891166E+02 -4.182457121E+02  5.231346345E+02  1.250000000E+02  0.00000E+00  9.000E+00
      25     1     1     2     0     0 -5.876458715E+00 -2.400141935E+02  1.034377598E+03  1.069206885E+03  1.250000000E+02  0.00000E+00  9.000E+00
      -2     1     1     2     0   502  3.695774381E+00 -4.827492303E+01  3.752023810E+02  3.783133009E+02  5.394796609E-06  0.00000E+00  9.000E+00
#rwgt            1           1   2.7330092465287184E-002           8       10139           0
</event>
<event>
      5   9999  3.19816E-02  2.27783E+01 -1.00000E+00  1.61839E-01
      21    -1     0     0   511   501  0.000000000E+00  0.000000000E+00  7.608559565E+02  7.608559565E+02  0.000000000E+00  0.00000E+00  9.000E+00
      21    -1     0     0   501   502  0.000000000E+00  0.000000000E+00 -2.467236985E+02  2.467236985E+02  0.000000000E+00  0.00000E+00  9.000E+00
      25     1     1     2     0     0 -2.077939336E+02  2.419262308E+02  1.775883989E+01  3.429970793E+02  1.250000000E+02  0.00000E+00  9.000E+00
      25     1     1     2     0     0  1.912163433E+02 -2.575478057E+02  2.711914888E+02  4.382515097E+02  1.250000000E+02  0.00000E+00  9.000E+00
      21     1     1     2   511   502  1.657759037E+01  1.562157492E+01  2.251819293E+02  2.263310659E+02  0.000000000E+00  0.00000E+00  9.000E+00
#rwgt            1           1   2.7642738137941058E-002           8       10275           0
</event>
<event>
      5   9999  3.19816E-02  3.64744E+01 -1.00000E+00  1.47370E-01
      21    -1     0     0   512   501  0.000000000E+00  0.000000000E+00  7.504179144E+02  7.504179144E+02  0.000000000E+00  0.00000E+00  9.000E+00
      21    -1     0     0   501   502  0.000000000E+00  0.000000000E+00 -7.868638330E+02  7.868638330E+02  0.000000000E+00  0.00000E+00  9.000E+00
      25     1     1     2     0     0 -1.868885918E+02  3.556715683E+02 -6.490654730E+02  7.735247885E+02  1.250000000E+02  0.00000E+00  9.000E+00
      25     1     1     2     0     0  1.811524286E+02 -3.196510164E+02  4.372798528E+02  5.846637019E+02  1.250000000E+02  0.00000E+00  9.000E+00
      21     1     1     2   512   502  5.736163113E+00 -3.602055185E+01  1.753397016E+02  1.790932569E+02  1.907348633E-06  0.00000E+00  9.000E+00
#rwgt            1           1   3.2464083133714926E-002           8       10487           0
</event>
<event>
      5   9999  3.19816E-02  5.16104E+01 -1.00000E+00  1.38295E-01
      21    -1     0     0   502   501  0.000000000E+00  0.000000000E+00  6.779976486E+02  6.779976486E+02  0.000000000E+00  0.00000E+00  9.000E+00
      21    -1     0     0   511   502  0.000000000E+00  0.000000000E+00 -5.413402360E+02  5.413402360E+02  0.000000000E+00  0.00000E+00  9.000E+00
      25     1     1     2     0     0 -3.412355968E+02  3.046338220E+02  4.525823957E+01  4.763578552E+02  1.250000000E+02  0.00000E+00  9.000E+00
      25     1     1     2     0     0  3.151304841E+02 -3.491552838E+02  2.703646698E+02  5.567213746E+02  1.250000000E+02  0.00000E+00  9.000E+00
      21     1     1     2   511   501  2.610511266E+01  4.452146183E+01 -1.789654968E+02  1.862586548E+02  1.907348633E-06  0.00000E+00  9.000E+00
#rwgt            1           1   2.4979128109422152E-002           8       10620           0
</event>
<event>
      5   9999  3.19816E-02  3.94124E+01 -1.00000E+00  1.45240E-01
      21    -1     0     0   502   501  0.000000000E+00  0.000000000E+00  1.106455631E+03  1.106455631E+03  0.000000000E+00  0.00000E+00  9.000E+00
      21    -1     0     0   501   512  0.000000000E+00  0.000000000E+00 -6.735480561E+02  6.735480561E+02  0.000000000E+00  0.00000E+00  9.000E+00
      25     1     1     2     0     0 -7.570300496E+01  7.678606987E+01  7.952210546E+02  8.121752097E+02  1.250000000E+02  0.00000E+00  9.000E+00
      25     1     1     2     0     0  1.142743334E+02 -6.868726814E+01  2.745115525E+02  3.297850156E+02  1.250000000E+02  0.00000E+00  9.000E+00
      21     1     1     2   502   512 -3.857132839E+01 -8.098801736E+00 -6.368250321E+02  6.380434620E+02  0.000000000E+00  0.00000E+00  9.000E+00
#rwgt            1           1   2.7228455738569732E-002           8       10732           0
</event>
<event>
      5   9999  3.19816E-02  7.24020E+01 -1.00000E+00  1.30483E-01
      21    -1     0     0   511   501  0.000000000E+00  0.000000000E+00  1.217882956E+03  1.217882956E+03  0.000000000E+00  0.00000E+00  9.000E+00
      21    -1     0     0   501   502  0.000000000E+00  0.000000000E+00 -1.096838452E+03  1.096838452E+03  0.000000000E+00  0.00000E+00  9.000E+00
      25     1     1     2     0     0 -3.522651370E+02  7.017427216E+02  4.889486836E+02  9.333966945E+02  1.250000000E+02  0.00000E+00  9.000E+00
      25     1     1     2     0     0  2.826701613E+02 -6.817780711E+02 -7.099579322E+02  1.031692311E+03  1.250000000E+02  0.00000E+00  9.000E+00
      21     1     1     2   511   502  6.959497570E+01 -1.996465049E+01  3.420537521E+02  3.496324030E+02  3.814697266E-06  0.00000E+00  9.000E+00
#rwgt            1           1   3.6487038136622345E-002           8       10816           0
</event>
<event>
      5   9999  3.19816E-02  2.96941E+01 -1.00000E+00  1.53350E-01
      21    -1     0     0   502   512  0.000000000E+00  0.000000000E+00  4.024127263E+02  4.024127263E+02  0.000000000E+00  0.00000E+00  9.000E+00
      21    -1     0     0   501   502  0.000000000E+00  0.000000000E+00 -7.969207390E+02  7.969207390E+02  0.000000000E+00  0.00000E+00  9.000E+00
      25     1     1     2     0     0  3.172249373E+02  1.361220436E+01  2.546581151E+02  4.257848148E+02  1.250000000E+02  0.00000E+00  9.000E+00
      25     1     1     2     0     0 -2.962376479E+02  7.394248116E+00 -6.658746558E+02  7.394764879E+02  1.250000000E+02  0.00000E+00  9.000E+00
      21     1     1     2   501   512 -2.098728937E+01 -2.100645248E+01  1.670852791E+01  3.407216262E+01  4.768371582E-07  0.00000E+00  9.000E+00
#rwgt            1           1   3.0269124298753107E-002           8       10965           0
</event>
<event>
      5   9999  3.19816E-02  7.83688E+00 -1.00000E+00  2.08847E-01
      21    -1     0     0   502   501  0.000000000E+00  0.000000000E+00  3.222188033E+02  3.222188033E+02  0.000000000E+00  0.00000E+00  9.000E+00
      21    -1     0     0   511   502  0.000000000E+00  0.000000000E+00 -5.071134390E+02  5.071134390E+02  0.000000000E+00  0.00000E+00  9.000E+00
      25     1     1     2     0     0  4.634411349E+01 -9.232762978E+01 -4.374955903E+02  4.665828540E+02  1.250000000E+02  0.00000E+00  9.000E+00
      25     1     1     2     0     0 -4.042616812E+01  9.746519816E+01  2.854387490E+02  3.289893910E+02  1.250000000E+02  0.00000E+00  9.000E+00
      21     1     1     2   511   501 -5.917945371E+00 -5.137568382E+00 -3.283779437E+01  3.375999742E+01  4.768371582E-07  0.00000E+00  9.000E+00
#rwgt            1           1   2.8887363084967019E-002           8       11100           0
</event>
<event>
      5   9999  3.19816E-02  7.39110E+01 -1.00000E+00  1.30036E-01
      21    -1     0     0   502   512  0.000000000E+00  0.000000000E+00  4.175203416E+02  4.175203416E+02  0.000000000E+00  0.00000E+00  9.000E+00
      21    -1     0     0   501   502  0.000000000E+00  0.000000000E+00 -6.369893961E+02  6.369893961E+02  0.000000000E+00  0.00000E+00  9.000E+00
      25     1     1     2     0     0 -1.669308048E+02 -1.840032470E+02 -3.759121721E+02  4.676088639E+02  1.250000000E+02  0.00000E+00  9.000E+00
      25     1     1     2     0     0  9.315580445E+01  1.884843492E+02 -1.396935545E+02  2.816800365E+02  1.250000000E+02  0.00000E+00  9.000E+00
      21     1     1     2   501   512  7.377500034E+01 -4.481102135E+00  2.961366721E+02  3.052208373E+02  3.814697266E-06  0.00000E+00  9.000E+00
#rwgt            1           1   2.3127284493885115E-002           8       11446           0
</event>
<event>
      5   9999  3.19816E-02  2.43475E+01 -1.00000E+00  1.59616E-01
      21    -1     0     0   502   511  0.000000000E+00  0.000000000E+00  6.588870235E+02  6.588870235E+02  0.000000000E+00  0.00000E+00  9.000E+00
      21    -1     0     0   501   502  0.000000000E+00  0.000000000E+00 -8.578805274E+02  8.578805274E+02  0.000000000E+00  0.00000E+00  9.000E+00
      25     1     1     2     0     0 -3.152840636E+02 -1.144000287E+02 -7.382089708E+02  8.204077595E+02  1.250000000E+02  0.00000E+00  9.000E+00
      25     1     1     2     0     0  3.298190497E+02  1.339329072E+02  3.806858915E+02  5.359714332E+02  1.250000000E+02  0.00000E+00  9.000E+00
      21     1     1     2   501   511 -1.453498608E+01 -1.953287856E+01  1.585295754E+02  1.603883582E+02  1.907348633E-06  0.00000E+00  9.000E+00
#rwgt            1           1   3.4638434622322502E-002           8       11512           0
</event>
<event>
      5   9999  3.19816E-02  3.63553E+01 -1.00000E+00  1.47461E-01
      21    -1     0     0   502   501  0.000000000E+00  0.000000000E+00  4.310335222E+02  4.310335222E+02  0.000000000E+00  0.00000E+00  9.000E+00
      21    -1     0     0   512   502  0.000000000E+00  0.000000000E+00 -4.472912023E+02  4.472912023E+02  0.000000000E+00  0.00000E+00  9.000E+00
      25     1     1     2     0     0 -7.556324348E+01  2.357817900E+02 -1.793988885E+02  3.303207796E+02  1.250000000E+02  0.00000E+00  9.000E+00
      25     1     1     2     0     0  4.800415334E+01 -2.120708917E+02  3.088323498E+02  3.978452993E+02  1.250000000E+02  0.00000E+00  9.000E+00
      21     1     1     2   512   501  2.755909013E+01 -2.371089828E+01 -1.456911414E+02  1.501586455E+02  2.697398305E-06  0.00000E+00  9.000E+00
#rwgt            1           1   2.5655267725759420E-002           8       11713           0
</event>
<event>
      5   9999  3.19816E-02  9.98644E+01 -1.00000E+00  1.23854E-01
      21    -1     0     0   502   501  0.000000000E+00  0.000000000E+00  3.422166160E+02  3.422166160E+02  0.000000000E+00  0.00000E+00  9.000E+00
      21    -1     0     0   511   502  0.000000000E+00  0.000000000E+00 -9.740541863E+02  9.740541863E+02  0.000000000E+00  0.00000E+00  9.000E+00
      25     1     1     2     0     0  2.977918064E+02 -4.432656056E+01  1.447604415E+02  3.566866823E+02  1.250000000E+02  0.00000E+00  9.000E+00
      25     1     1     2     0     0 -1.994449317E+02  6.166984711E+01 -8.040384546E+01  2.562639834E+02  1.250000000E+02  0.00000E+00  9.000E+00
      21     1     1     2   511   501 -9.834687476E+01 -1.734328655E+01 -6.961941663E+02  7.033201366E+02  0.000000000E+00  0.00000E+00  9.000E+00
#rwgt            1           1   2.8398211024092065E-002           8       11845           0
</event>
<event>
      5   9999  3.19816E-02  1.06094E+02 -1.00000E+00  1.22683E-01
      21    -1     0     0   502   501  0.000000000E+00  0.000000000E+00  8.501854411E+02  8.501854411E+02  0.000000000E+00  0.00000E+00  9.000E+00
       1    -1     0     0   501     0  0.000000000E+00  0.000000000E+00 -2.465320463E+03  2.465320463E+03  0.000000000E+00  0.00000E+00  9.000E+00
      25     1     1     2     0     0  3.109479253E+02 -1.300278175E+01  7.496583338E+02  8.212614091E+02  1.250000000E+02  0.00000E+00  9.000E+00
      25     1     1     2     0     0 -3.033306258E+02 -9.281716490E+01 -3.958424153E+02  5.224372808E+02  1.250000000E+02  0.00000E+00  9.000E+00
       1     1     1     2   502     0 -7.617299516E+00  1.058199467E+02 -1.968950941E+03  1.971807215E+03  2.157918644E-05  0.00000E+00  9.000E+00
#rwgt            1           1   3.0685514988087737E-002           8       11923           0
</event>
<event>
      5   9999  3.19816E-02  1.24803E+02 -1.00000E+00  1.19649E-01
      21    -1     0     0   511   501  0.000000000E+00  0.000000000E+00  5.365564154E+02  5.365564154E+02  0.000000000E+00  0.00000E+00  9.000E+00
      21    -1     0     0   501   502  0.000000000E+00  0.000000000E+00 -4.370420940E+02  4.370420940E+02  0.000000000E+00  0.00000E+00  9.000E+00
      25     1     1     2     0     0 -4.516589669E+01 -2.757109705E+02  2.099294876E+02  3.711494137E+02  1.250000000E+02  0.00000E+00  9.000E+00
      25     1     1     2     0     0  1.187994038E+02  3.764774005E+02 -1.887671966E+02  4.550896460E+02  1.250000000E+02  0.00000E+00  9.000E+00
      21     1     1     2   511   502 -7.363350709E+01 -1.007664299E+02  7.835203035E+01  1.473594498E+02  2.523185073E-06  0.00000E+00  9.000E+00
#rwgt            1           1   2.7885982649227498E-002           8       12016           0
</event>
<event>
      5   9999  3.19816E-02  4.45399E+01 -1.00000E+00  1.42003E-01
      21    -1     0     0   512   501  0.000000000E+00  0.000000000E+00  2.448426483E+02  2.448426483E+02  0.000000000E+00  0.00000E+00  9.000E+00
      21    -1     0     0   501   502  0.000000000E+00  0.000000000E+00 -5.280544744E+02  5.280544744E+02  0.000000000E+00  0.00000E+00  9.000E+00
      25     1     1     2     0     0 -1.614555125E+02  2.052447147E+02 -3.277357100E+02  4.372973485E+02  1.250000000E+02  0.00000E+00  9.000E+00
      25     1     1     2     0     0  1.171551982E+02 -2.098586858E+02 -2.379206998E+00  2.709181963E+02  1.250000000E+02  0.00000E+00  9.000E+00
      21     1     1     2   512   502  4.430031431E+01  4.613971140E+00  4.690309094E+01  6.468157789E+01  6.743495762E-07  0.00000E+00  9.000E+00
#rwgt            1           1   2.9384647067691515E-002           8       12084           0
</event>
<event>
      5   9999  3.19816E-02  3.80087E+02 -1.00000E+00  1.02357E-01
      21    -1     0     0   502   501  0.000000000E+00  0.000000000E+00  1.021167556E+03  1.021167556E+03  0.000000000E+00  0.00000E+00  9.000E+00
       2    -1     0     0   501     0  0.000000000E+00  0.000000000E+00 -2.113063005E+03  2.113063005E+03  0.000000000E+00  0.00000E+00  9.000E+00
      25     1     1     2     0     0  2.134397961E+02  4.774514527E+01  2.294650256E+02  3.407570153E+02  1.250000000E+02  0.00000E+00  9.000E+00
      25     1     1     2     0     0 -5.774626826E+02  6.158669902E+01  5.944117162E+02  8.403608508E+02  1.250000000E+02  0.00000E+00  9.000E+00
       2     1     1     2   502     0  3.640228865E+02 -1.093318443E+02 -1.915772190E+03  1.953112695E+03  2.157918644E-05  0.00000E+00  9.000E+00
#rwgt            2          13   7.7572139595740008E-003           8       12410           0
</event>
<event>
      5   9999  3.19816E-02  9.01619E+01 -1.00000E+00  1.25885E-01
      21    -1     0     0   511   501  0.000000000E+00  0.000000000E+00  1.095964522E+03  1.095964522E+03  0.000000000E+00  0.00000E+00  9.000E+00
      21    -1     0     0   501   502  0.000000000E+00  0.000000000E+00 -3.110292386E+02  3.110292386E+02  0.000000000E+00  0.00000E+00  9.000E+00
      25     1     1     2     0     0 -4.089279998E+02  1.985322148E+02  5.064228779E+02  6.919004846E+02  1.250000000E+02  0.00000E+00  9.000E+00
      25     1     1     2     0     0  4.953858646E+02 -2.241097415E+02  1.916712630E+02  5.899111833E+02  1.250000000E+02  0.00000E+00  9.000E+00
      21     1     1     2   511   502 -8.645786484E+01  2.557752674E+01  8.684114215E+01  1.251820923E+02  1.651812370E-06  0.00000E+00  9.000E+00
#rwgt            2          11   6.4857482307914931E-003           8       12519           0
</event>
<event>
      5   9999  3.19816E-02  8.45561E+01 -1.00000E+00  1.27196E-01
      21    -1     0     0   502   501  0.000000000E+00  0.000000000E+00  8.097326808E+01  8.097326808E+01  0.000000000E+00  0.00000E+00  9.000E+00
      21    -1     0     0   512   502  0.000000000E+00  0.000000000E+00 -1.080398183E+03  1.080398183E+03  0.000000000E+00  0.00000E+00  9.000E+00
      25     1     1     2     0     0 -3.709018139E+01  1.510008098E+02 -4.763055839E+02  5.163999762E+02  1.250000000E+02  0.00000E+00  9.000E+00
      25     1     1     2     0     0  1.211425894E+02 -1.602162232E+02 -1.963703681E+02  3.074590812E+02  1.250000000E+02  0.00000E+00  9.000E+00
      21     1     1     2   512   501 -8.405240806E+01  9.215413384E+00 -3.267489632E+02  3.375123940E+02  3.814697266E-06  0.00000E+00  9.000E+00
#rwgt            1           1   2.8932554524694724E-002           8       12554           0
</event>
<event>
      5   9999  3.19816E-02  9.13896E+01 -1.00000E+00  1.25613E-01
      21    -1     0     0   511   501  0.000000000E+00  0.000000000E+00  8.211882170E+01  8.211882170E+01  0.000000000E+00  0.00000E+00  9.000E+00
      21    -1     0     0   501   502  0.000000000E+00  0.000000000E+00 -1.737180209E+03  1.737180209E+03  0.000000000E+00  0.00000E+00  9.000E+00
      25     1     1     2     0     0 -1.748156544E+02  5.061253710E+00 -1.211247600E+03  1.230175547E+03  1.250000000E+02  0.00000E+00  9.000E+00
      25     1     1     2     0     0  2.659557427E+02 -1.180945015E+01 -3.124217304E+02  4.290737207E+02  1.250000000E+02  0.00000E+00  9.000E+00
      21     1     1     2   511   502 -9.114008831E+01  6.748196443E+00 -1.313920571E+02  1.600497626E+02  1.907348633E-06  0.00000E+00  9.000E+00
#rwgt            1           1   2.6319198519808896E-002           8       12641           0
</event>
<event>
      5   9999  3.19816E-02  5.30275E+00 -1.00000E+00  2.34140E-01
      21    -1     0     0   502   501  0.000000000E+00  0.000000000E+00  3.821620381E+02  3.821620381E+02  0.000000000E+00  0.00000E+00  9.000E+00
      21    -1     0     0   501   512  0.000000000E+00  0.000000000E+00 -2.266965571E+02  2.266965571E+02  0.000000000E+00  0.00000E+00  9.000E+00
      25     1     1     2     0     0  4.012597062E+01 -2.447621493E+02  1.752296634E+02  3.284037731E+02  1.250000000E+02  0.00000E+00  9.000E+00
      25     1     1     2     0     0 -3.782895948E+01  2.399827256E+02 -1.551134949E+01  2.736573418E+02  1.250000000E+02  0.00000E+00  9.000E+00
      21     1     1     2   502   512 -2.297011136E+00  4.779423682E+00 -4.252832827E+00  6.797480265E+00  8.429369702E-08  0.00000E+00  9.000E+00
#rwgt            1           1   2.7530018573979121E-002           8       12745           0
</event>
<event>
      5   9999  3.19816E-02  7.24629E+01 -1.00000E+00  1.30465E-01
      21    -1     0     0   502   511  0.000000000E+00  0.000000000E+00  3.510273401E+02  3.510273401E+02  0.000000000E+00  0.00000E+00  9.000E+00
      21    -1     0     0   501   502  0.000000000E+00  0.000000000E+00 -2.146112115E+02  2.146112115E+02  0.000000000E+00  0.00000E+00  9.000E+00
      25     1     1     2     0     0 -9.590957405E+01 -1.253374096E+02  6.442214478E+01  2.113843073E+02  1.250000000E+02  0.00000E+00  9.000E+00
      25     1     1     2     0     0  3.606836262E+01  8.447306958E+01 -8.819522238E+01  1.784377301E+02  1.250000000E+02  0.00000E+00  9.000E+00
      21     1     1     2   501   511  5.984121144E+01  4.086434002E+01  1.601892062E+02  1.758165142E+02  0.000000000E+00  0.00000E+00  9.000E+00
#rwgt            1           1   3.0142657373006622E-002           8       13093           0
</event>
<event>
      5   9999  3.19816E-02  1.23184E+01 -1.00000E+00  1.85840E-01
      21    -1     0     0   502   501  0.000000000E+00  0.000000000E+00  4.641993213E+02  4.641993213E+02  0.000000000E+00  0.00000E+00  9.000E+00
      21    -1     0     0   501   512  0.000000000E+00  0.000000000E+00 -7.107874224E+01  7.107874224E+01  0.000000000E+00  0.00000E+00  9.000E+00
      25     1     1     2     0     0  3.572235564E+00 -1.550426147E+00  3.762852905E+02  3.965233720E+02  1.250000000E+02  0.00000E+00  9.000E+00
      25     1     1     2     0     0  6.533349257E+00 -5.493701432E+00  1.697292257E+01  1.264355389E+02  1.250000000E+02  0.00000E+00  9.000E+00
      21     1     1     2   502   512 -1.010558482E+01  7.044127579E+00 -1.376340094E-01  1.231915261E+01  3.259895092E-07  0.00000E+00  9.000E+00
#rwgt            1           1   2.7020826864003526E-002           8       13153           0
</event>
<event>
      5   9999  3.19816E-02  8.79855E+01 -1.00000E+00  1.26381E-01
      21    -1     0     0   502   501  0.000000000E+00  0.000000000E+00  3.774957547E+02  3.774957547E+02  0.000000000E+00  0.00000E+00  9.000E+00
       2    -1     0     0   501     0  0.000000000E+00  0.000000000E+00 -7.624766004E+02  7.624766004E+02  0.000000000E+00  0.00000E+00  9.000E+00
      25     1     1     2     0     0  1.499507369E+02 -6.716625816E+01 -2.469001547E+02  3.218403581E+02  1.250000000E+02  0.00000E+00  9.000E+00
      25     1     1     2     0     0 -1.535951025E+02  1.550762010E+02  2.883974555E+02  3.826724134E+02  1.250000000E+02  0.00000E+00  9.000E+00
       2     1     1     2   502     0  3.644365622E+00 -8.790994286E+01 -4.264781465E+02  4.354595836E+02  5.394796609E-06  0.00000E+00  9.000E+00
#rwgt            1           1   2.7288652540419206E-002           8       13257           0
</event>
<event>
      5   9999  3.19816E-02  5.63630E+01 -1.00000E+00  1.36171E-01
      21    -1     0     0   502   501  0.000000000E+00  0.000000000E+00  6.068728766E+01  6.068728766E+01  0.000000000E+00  0.00000E+00  9.000E+00
      21    -1     0     0   511   502  0.000000000E+00  0.000000000E+00 -1.348690349E+03  1.348690349E+03  0.000000000E+00  0.00000E+00  9.000E+00
      25     1     1     2     0     0  1.663034839E+02 -1.217809047E+02 -2.755268957E+02  3.660976752E+02  1.250000000E+02  0.00000E+00  9.000E+00
      25     1     1     2     0     0 -1.195535316E+02  9.029706059E+01 -8.008228905E+02  8.242505129E+02  1.250000000E+02  0.00000E+00  9.000E+00
      21     1     1     2   511   501 -4.674995224E+01  3.148384409E+01 -2.116532751E+02  2.190294485E+02  2.697398305E-06  0.00000E+00  9.000E+00
#rwgt            1           1   3.2738908806627075E-002           8       13304           0
</event>
<event>
      5   9999  3.19816E-02  1.22944E+02 -1.00000E+00  1.19923E-01
      21    -1     0     0   502   501  0.000000000E+00  0.000000000E+00  1.229664449E+03  1.229664449E+03  0.000000000E+00  0.00000E+00  9.000E+00
       1    -1     0     0   501     0  0.000000000E+00  0.000000000E+00 -5.686685679E+02  5.686685679E+02  0.000000000E+00  0.00000E+00  9.000E+00
      25     1     1     2     0     0 -1.281058287E+02  3.105305385E+02  2.751847123E+02  4.518760279E+02  1.250000000E+02  0.00000E+00  9.000E+00
      25     1     1     2     0     0  5.663576685E+01 -2.104936575E+02  8.395549509E+02  8.763519301E+02  1.250000000E+02  0.00000E+00  9.000E+00
       1     1     1     2   502     0  7.147006183E+01 -1.000368810E+02 -4.537437817E+02  4.701050593E+02  5.394796609E-06  0.00000E+00  9.000E+00
#rwgt            1           1   2.9058310075446972E-002           8       13391           0
</event>
<event>
      5   9999  3.19816E-02  2.89326E+01 -1.00000E+00  1.54141E-01
      21    -1     0     0   511   501  0.000000000E+00  0.000000000E+00  5.447369604E+02  5.447369604E+02  0.000000000E+00  0.00000E+00  9.000E+00
      21    -1     0     0   501   502  0.000000000E+00  0.000000000E+00 -2.558213651E+02  2.558213651E+02  0.000000000E+00  0.00000E+00  9.000E+00
      25     1     1     2     0     0 -6.530392356E+01 -2.822907776E+02  2.113790755E+00  3.155664013E+02  1.250000000E+02  0.00000E+00  9.000E+00
      25     1     1     2     0     0  5.497028083E+01  3.093150603E+02  1.985147834E+02  3.920850131E+02  1.250000000E+02  0.00000E+00  9.000E+00
      21     1     1     2   511   502  1.033364273E+01 -2.702428273E+01  8.828702106E+01  9.290691103E+01  9.536743164E-07  0.00000E+00  9.000E+00
#rwgt            1           1   3.0995118626009635E-002           8       13496           0
</event>
<event>
      5   9999  3.19816E-02  3.42916E+01 -1.00000E+00  1.49113E-01
      21    -1     0     0   502   501  0.000000000E+00  0.000000000E+00  2.104877781E+03  2.104877781E+03  0.000000000E+00  0.00000E+00  9.000E+00
      -1    -1     0     0     0   502  0.000000000E+00  0.000000000E+00 -1.715177950E+03  1.715177950E+03  0.000000000E+00  0.00000E+00  9.000E+00
      25     1     1     2     0     0  4.067841685E+01 -7.922198863E+01  1.622839422E+03  1.630080871E+03  1.250000000E+02  0.00000E+00  9.000E+00
      25     1     1     2     0     0 -3.576211195E+01  1.131593098E+02  4.627140805E+02  4.937745217E+02  1.250000000E+02  0.00000E+00  9.000E+00
      -1     1     1     2     0   501 -4.916304902E+00 -3.393732113E+01 -1.695853672E+03  1.696200338E+03  0.000000000E+00  0.00000E+00  9.000E+00
#rwgt            1           1   7.3055105654395963E-002           8       13600           0
</event>
<event>
      5   9999  3.19816E-02  1.18404E+01 -1.00000E+00  1.87642E-01
      21    -1     0     0   502   511  0.000000000E+00  0.000000000E+00  1.586059507E+03  1.586059507E+03  0.000000000E+00  0.00000E+00  9.000E+00
      21    -1     0     0   501   502  0.000000000E+00  0.000000000E+00 -1.855611227E+01  1.855611227E+01  0.000000000E+00  0.00000E+00  9.000E+00
      25     1     1     2     0     0  1.190425786E+01  8.267725455E+01  9.848272297E+02  9.962363737E+02  1.250000000E+02  0.00000E+00  9.000E+00
      25     1     1     2     0     0 -1.200917804E+01 -7.083732934E+01  3.977551500E+02  4.230795516E+02  1.250000000E+02  0.00000E+00  9.000E+00
      21     1     1     2   501   511  1.049201759E-01 -1.183992521E+01  1.849210154E+02  1.852996945E+02  2.697398305E-06  0.00000E+00  9.000E+00
#rwgt            1           1   2.4054091923893971E-002           8       13717           0
</event>
<event>
      5   9999  3.19816E-02  1.61222E+02 -1.00000E+00  1.15165E-01
      21    -1     0     0   502   501  0.000000000E+00  0.000000000E+00  9.159654818E+01  9.159654818E+01  0.000000000E+00  0.00000E+00  9.000E+00
      21    -1     0     0   512   502  0.000000000E+00  0.000000000E+00 -1.484730034E+03  1.484730034E+03  0.000000000E+00  0.00000E+00  9.000E+00
      25     1     1     2     0     0 -1.338242604E+01 -2.824170488E+01  2.072107564E+00  1.288641799E+02  1.250000000E+02  0.00000E+00  9.000E+00
      25     1     1     2     0     0  1.699135342E+02 -1.036757001E+01 -6.001675014E+02  6.362421908E+02  1.250000000E+02  0.00000E+00  9.000E+00
      21     1     1     2   512   501 -1.565311081E+02  3.860927489E+01 -7.950380925E+02  8.112202120E+02  1.078959322E-05  0.00000E+00  9.000E+00
#rwgt            1           1   2.9719083290406987E-002           8       13793           0
</event>
<event>
      5   9999  3.19816E-02  2.63340E+02 -1.00000E+00  1.07464E-01
       2    -1     0     0   502     0  0.000000000E+00  0.000000000E+00  3.045111333E+03  3.045111333E+03  0.000000000E+00  0.00000E+00  9.000E+00
      21    -1     0     0   501   502  0.000000000E+00  0.000000000E+00 -5.023651321E+02  5.023651321E+02  0.000000000E+00  0.00000E+00  9.000E+00
      25     1     1     2     0     0  2.316690763E+02  1.585110444E+02 -4.409730979E+02  5.374742646E+02  1.250000000E+02  0.00000E+00  9.000E+00
      25     1     1     2     0     0 -3.863028306E+01  2.060826591E+01  1.107806428E+03  1.115695783E+03  1.250000000E+02  0.00000E+00  9.000E+00
       2     1     1     2   501     0 -1.930387932E+02 -1.791193103E+02  1.875912871E+03  1.894306417E+03  2.157918644E-05  0.00000E+00  9.000E+00
#rwgt            2          18   1.9810896465091116E-003           8       13843           0
</event>
<event>
      5   9999  3.19816E-02  2.24034E+02 -1.00000E+00  1.09883E-01
      21    -1     0     0   502   501  0.000000000E+00  0.000000000E+00  7.528811246E+02  7.528811246E+02  0.000000000E+00  0.00000E+00  9.000E+00
      21    -1     0     0   511   502  0.000000000E+00  0.000000000E+00 -7.607036343E+02  7.607036343E+02  0.000000000E+00  0.00000E+00  9.000E+00
      25     1     1     2     0     0  7.021495782E+02 -1.086943839E+02  5.361507884E+01  7.234141801E+02  1.250000000E+02  0.00000E+00  9.000E+00
      25     1     1     2     0     0 -5.358887721E+02 -4.146723140E+01  1.892636705E+01  5.521589579E+02  1.250000000E+02  0.00000E+00  9.000E+00
      21     1     1     2   511   501 -1.662608061E+02  1.501616153E+02 -8.036395550E+01  2.380116209E+02  3.693564745E-06  0.00000E+00  9.000E+00
#rwgt            1           1   3.0580830538823506E-002           8       13862           0
</event>
<event>
      5   9999  3.19816E-02  3.12796E+02 -1.00000E+00  1.05006E-01
      21    -1     0     0   512   501  0.000000000E+00  0.000000000E+00  6.495990849E+02  6.495990849E+02  0.000000000E+00  0.00000E+00  9.000E+00
      21    -1     0     0   501   502  0.000000000E+00  0.000000000E+00 -6.166840122E+02  6.166840122E+02  0.000000000E+00  0.00000E+00  9.000E+00
      25     1     1     2     0     0 -3.597424756E+02  7.964274440E+01 -1.409894411E+02  4.138364870E+02  1.250000000E+02  0.00000E+00  9.000E+00
      25     1     1     2     0     0  3.208607318E+02 -3.900127276E+02  8.422454866E+01  5.270486804E+02  1.250000000E+02  0.00000E+00  9.000E+00
      21     1     1     2   512   502  3.888174378E+01  3.103699832E+02  8.967996521E+01  3.253979297E+02  9.536743164E-07  0.00000E+00  9.000E+00
#rwgt            1           1   2.7418051351466893E-002           8       13937           0
</event>
<event>
      5   9999  3.19816E-02  1.84847E+02 -1.00000E+00  1.12908E-01
       2    -1     0     0   502     0  0.000000000E+00  0.000000000E+00  1.145499195E+03  1.145499195E+03  0.000000000E+00  0.00000E+00  9.000E+00
      21    -1     0     0   501   502  0.000000000E+00  0.000000000E+00 -1.136316889E+03  1.136316889E+03  0.000000000E+00  0.00000E+00  9.000E+00
      25     1     1     2     0     0 -1.881936898E+02  1.761527157E+02 -5.134383532E+02  5.879545788E+02  1.250000000E+02  0.00000E+00  9.000E+00
      25     1     1     2     0     0  3.123904536E+02 -3.130603445E+02 -4.857375475E+02  6.687006354E+02  1.250000000E+02  0.00000E+00  9.000E+00
       2     1     1     2   501     0 -1.241967638E+02  1.369076287E+02  1.008358207E+03  1.025160870E+03  2.642899792E-05  0.00000E+00  9.000E+00
#rwgt            1           1   2.9329575807735979E-002           8       14070           0
</event>
<event>
      5   9999  3.19816E-02  2.94814E+02 -1.00000E+00  1.05839E-01
      21    -1     0     0   502   501  0.000000000E+00  0.000000000E+00  4.270369059E+02  4.270369059E+02  0.000000000E+00  0.00000E+00  9.000E+00
      21    -1     0     0   511   502  0.000000000E+00  0.000000000E+00 -1.957300727E+03  1.957300727E+03  0.000000000E+00  0.00000E+00  9.000E+00
      25     1     1     2     0     0 -1.863394501E+02  2.644970173E+02 -3.364664345E+01  3.484797834E+02  1.250000000E+02  0.00000E+00  9.000E+00
      25     1     1     2     0     0 -1.076023477E+02 -2.871596341E+02  1.496514223E+02  3.633998747E+02  1.250000000E+02  0.00000E+00  9.000E+00
      21     1     1     2   511   501  2.939417978E+02  2.266261681E+01 -1.646268600E+03  1.672457975E+03  2.157918644E-05  0.00000E+00  9.000E+00
#rwgt            1           1   3.3894257549508651E-002           8       14149           0
</event>
<event>
      5   9999  3.19816E-02  9.86646E+01 -1.00000E+00  1.24091E-01
      21    -1     0     0   502   501  0.000000000E+00  0.000000000E+00  2.403005467E+02  2.403005467E+02  0.000000000E+00  0.00000E+00  9.000E+00
       1    -1     0     0   501     0  0.000000000E+00  0.000000000E+00 -1.100451798E+03  1.100451798E+03  0.000000000E+00  0.00000E+00  9.000E+00
      25     1     1     2     0     0 -9.287624635E+01  1.490321605E+02 -1.667602093E+02  2.725262362E+02  1.250000000E+02  0.00000E+00  9.000E+00
      25     1     1     2     0     0  1.717338095E+02 -2.083296303E+02  6.409062441E+01  3.043457644E+02  1.250000000E+02  0.00000E+00  9.000E+00
       1     1     1     2   502     0 -7.885756315E+01  5.929746971E+01 -7.574816660E+02  7.638803437E+02  1.078959322E-05  0.00000E+00  9.000E+00
#rwgt            1           1   2.3078965452257422E-002           8       14195           0
</event>
<event>
      5   9999  3.19816E-02  3.51724E+01 -1.00000E+00  1.48392E-01
      21    -1     0     0   502   511  0.000000000E+00  0.000000000E+00  6.554910022E+02  6.554910022E+02  0.000000000E+00  0.00000E+00  9.000E+00
      21    -1     0     0   501   502  0.000000000E+00  0.000000000E+00 -1.438693122E+03  1.438693122E+03  0.000000000E+00  0.00000E+00  9.000E+00
      25     1     1     2     0     0  4.349219783E+02 -7.231227835E+01 -1.162666414E+03  1.249721722E+03  1.250000000E+02  0.00000E+00  9.000E+00
      25     1     1     2     0     0 -4.001903942E+02  6.676099934E+01 -3.733776006E+01  4.261789424E+02  1.250000000E+02  0.00000E+00  9.000E+00
      21     1     1     2   501   511 -3.473158411E+01  5.551279003E+00  4.168020546E+02  4.182834593E+02  7.629394531E-06  0.00000E+00  9.000E+00
#rwgt            1           1   2.5498926434933983E-002           8       14263           0
</event>
<event>
      5   9999  3.19816E-02  6.65225E+01 -1.00000E+00  1.32351E-01
      21    -1     0     0   502   512  0.000000000E+00  0.000000000E+00  3.951312667E+02  3.951312667E+02  0.000000000E+00  0.00000E+00  9.000E+00
      21    -1     0     0   501   502  0.000000000E+00  0.000000000E+00 -2.050358965E+03  2.050358965E+03  0.000000000E+00  0.00000E+00  9.000E+00
      25     1     1     2     0     0 -3.753147798E+02  3.669168556E+02 -1.570000262E+03  1.660124991E+03  1.250000000E+02  0.00000E+00  9.000E+00
      25     1     1     2     0     0  3.559481377E+02 -4.305578435E+02 -2.370610142E+02  6.195983036E+02  1.250000000E+02  0.00000E+00  9.000E+00
      21     1     1     2   501   512  1.936664215E+01  6.364098794E+01  1.518335777E+02  1.657669373E+02  1.907348633E-06  0.00000E+00  9.000E+00
#rwgt            1           1   2.5587754637696518E-002           8       14398           0
</event>
<event>
      5   9999  3.19816E-02  1.05883E+02 -1.00000E+00  1.22721E-01
      21    -1     0     0   502   501  0.000000000E+00  0.000000000E+00  8.369444393E+02  8.369444393E+02  0.000000000E+00  0.00000E+00  9.000E+00
      21    -1     0     0   511   502  0.000000000E+00  0.000000000E+00 -5.229998365E+02  5.229998365E+02  0.000000000E+00  0.00000E+00  9.000E+00
      25     1     1     2     0     0  2.736443986E+02 -5.304130866E+02  1.472436620E+02  6.273157063E+02  1.250000000E+02  0.00000E+00  9.000E+00
      25     1     1     2     0     0 -3.381094367E+02  4.464158425E+02  2.194673864E+02  6.143256704E+02  1.250000000E+02  0.00000E+00  9.000E+00
      21     1     1     2   511   501  6.446503808E+01  8.399724410E+01 -5.276644560E+01  1.183028991E+02  2.431401974E-06  0.00000E+00  9.000E+00
#rwgt            1           1   3.0901125166157076E-002           8       14490           0
</event>
<event>
      5   9999  3.19816E-02  1.73943E+02 -1.00000E+00  1.13900E-01
      21    -1     0     0   502   501  0.000000000E+00  0.000000000E+00  3.185571441E+02  3.185571441E+02  0.000000000E+00  0.00000E+00  9.000E+00
      21    -1     0     0   512   502  0.000000000E+00  0.000000000E+00 -1.311069829E+03  1.311069829E+03  0.000000000E+00  0.00000E+00  9.000E+00
      25     1     1     2     0     0  2.777002909E+02 -3.187039868E+02 -3.743424622E+02  5.783138955E+02  1.250000000E+02  0.00000E+00  9.000E+00
      25     1     1     2     0     0 -2.383943205E+02  4.881481867E+02 -1.896301220E+02  5.888166841E+02  1.250000000E+02  0.00000E+00  9.000E+00
      21     1     1     2   512   501 -3.930597038E+01 -1.694442000E+02 -4.285401011E+02  4.624963940E+02  7.629394531E-06  0.00000E+00  9.000E+00
#rwgt            1           1   2.9610196318553838E-002           8       14604           0
</event>
<event>
      5   9999  3.19816E-02  1.95360E+01 -1.00000E+00  1.67215E-01
      21    -1     0     0   502   511  0.000000000E+00  0.000000000E+00  2.172561520E+02  2.172561520E+02  0.000000000E+00  0.00000E+00  9.000E+00
      21    -1     0     0   501   502  0.000000000E+00  0.000000000E+00 -9.013925608E+02  9.013925608E+02  0.000000000E+00  0.00000E+00  9.000E+00
      25     1     1     2     0     0 -3.373848858E+02  7.704546817E+00 -6.651891991E+02  7.562999351E+02  1.250000000E+02  0.00000E+00  9.000E+00
      25     1     1     2     0     0  3.179266711E+02 -9.446678464E+00 -2.251859456E+01  3.424889706E+02  1.250000000E+02  0.00000E+00  9.000E+00
      21     1     1     2   501   511  1.945821476E+01  1.742131647E+00  3.571384964E+00  1.985980702E+01  1.332800375E-07  0.00000E+00  9.000E+00
#rwgt            1           1   2.7954339508856466E-002           8       14673           0
</event>
<event>
      5   9999  3.19816E-02  1.78203E+02 -1.00000E+00  1.13503E-01
      21    -1     0     0   502   501  0.000000000E+00  0.000000000E+00  2.860445019E+02  2.860445019E+02  0.000000000E+00  0.00000E+00  9.000E+00
      21    -1     0     0   512   502  0.000000000E+00  0.000000000E+00 -7.866404776E+02  7.866404776E+02  0.000000000E+00  0.00000E+00  9.000E+00
      25     1     1     2     0     0  4.866017464E+01  9.092118378E+01  1.739621800E+01  1.629788411E+02  1.250000000E+02  0.00000E+00  9.000E+00
      25     1     1     2     0     0 -1.502528070E+02  5.548645761E+01  1.276341715E+02  2.399377726E+02  1.250000000E+02  0.00000E+00  9.000E+00
      21     1     1     2   512   501  1.015926323E+02 -1.464076414E+02 -6.456263652E+02  6.697683658E+02  0.000000000E+00  0.00000E+00  9.000E+00
#rwgt            1           1   2.6820893520649904E-002           8       14843           0
</event>
<event>
      5   9999  3.19816E-02  9.02399E+01 -1.00000E+00  1.25868E-01
      21    -1     0     0   502   501  0.000000000E+00  0.000000000E+00  4.177825600E+02  4.177825600E+02  0.000000000E+00  0.00000E+00  9.000E+00
      21    -1     0     0   501   511  0.000000000E+00  0.000000000E+00 -1.814152543E+03  1.814152543E+03  0.000000000E+00  0.00000E+00  9.000E+00
      25     1     1     2     0     0  3.207411688E+02 -6.421506232E+01 -1.343380824E+03  1.388270691E+03  1.250000000E+02  0.00000E+00  9.000E+00
      25     1     1     2     0     0 -3.355418242E+02  1.532329618E+02  2.921820572E+02  4.868921964E+02  1.250000000E+02  0.00000E+00  9.000E+00
      21     1     1     2   502   511  1.480065535E+01 -8.901789944E+01 -3.451712153E+02  3.567722154E+02  3.814697266E-06  0.00000E+00  9.000E+00
#rwgt            1           1   2.9856750914132101E-002           8       14881           0
</event>
<event>
      5   9999  3.19816E-02  2.52843E+01 -1.00000E+00  1.58384E-01
      21    -1     0     0   502   512  0.000000000E+00  0.000000000E+00  1.742891663E+03  1.742891663E+03  0.000000000E+00  0.00000E+00  9.000E+00
      21    -1     0     0   501   502  0.000000000E+00  0.000000000E+00 -3.387107486E+01  3.387107486E+01  0.000000000E+00  0.00000E+00  9.000E+00
      25     1     1     2     0     0  2.891844020E+01 -1.483648196E+02  3.847436940E+02  4.318577381E+02  1.250000000E+02  0.00000E+00  9.000E+00
      25     1     1     2     0     0 -1.230403315E+01  1.674241527E+02  1.190926633E+03  1.209178846E+03  1.250000000E+02  0.00000E+00  9.000E+00
      21     1     1     2   501   512 -1.661440705E+01 -1.905933313E+01  1.333502613E+02  1.357261541E+02  0.000000000E+00  0.00000E+00  9.000E+00
#rwgt            1           1   3.0444133451275942E-002           8       14996           0
</event>
<event>
      5   9999  3.19816E-02  5.10620E+01 -1.00000E+00  1.38557E-01
      21    -1     0     0   511   501  0.000000000E+00  0.000000000E+00  1.671049871E+03  1.671049871E+03  0.000000000E+00  0.00000E+00  9.000E+00
      21    -1     0     0   501   502  0.000000000E+00  0.000000000E+00 -8.153121484E+01  8.153121484E+01  0.000000000E+00  0.00000E+00  9.000E+00
      25     1     1     2     0     0  1.677517391E+02 -1.273654222E+02  1.728480263E+02  2.997733092E+02  1.250000000E+02  0.00000E+00  9.000E+00
      25     1     1     2     0     0 -1.259710275E+02  1.567201417E+02  8.072988955E+02  8.413004275E+02  1.250000000E+02  0.00000E+00  9.000E+00
      21     1     1     2   511   502 -4.178071162E+01 -2.935471956E+01  6.093717348E+02  6.115073496E+02  1.078959322E-05  0.00000E+00  9.000E+00
#rwgt            1           1   3.3202997827099096E-002           8       15142           0
</event>
<event>
      5   9999  3.19816E-02  1.08028E+02 -1.00000E+00  1.22338E-01
      21    -1     0     0   512   501  0.000000000E+00  0.000000000E+00  9.223325659E+02  9.223325659E+02  0.000000000E+00  0.00000E+00  9.000E+00
      21    -1     0     0   501   502  0.000000000E+00  0.000000000E+00 -8.699966923E+02  8.699966923E+02  0.000000000E+00  0.00000E+00  9.000E+00
      25     1     1     2     0     0  8.964119579E+01 -4.279337254E+02 -3.582236820E+02  5.788886107E+02  1.250000000E+02  0.00000E+00  9.000E+00
      25     1     1     2     0     0 -1.027773808E+02  5.351603631E+02 -1.997043229E+02  5.936889934E+02  1.250000000E+02  0.00000E+00  9.000E+00
      21     1     1     2   512   502  1.313618503E+01 -1.072266378E+02  6.102638786E+02  6.197516540E+02  7.629394531E-06  0.00000E+00  9.000E+00
#rwgt            1           1   1.7162736481543525E-002           8       15221           0
</event>
<event>
      5   9999  3.19816E-02  2.30208E+01 -1.00000E+00  1.61481E-01
      21    -1     0     0   502   501  0.000000000E+00  0.000000000E+00  7.672607232E+02  7.672607232E+02  0.000000000E+00  0.00000E+00  9.000E+00
      21    -1     0     0   511   502  0.000000000E+00  0.000000000E+00 -5.894634856E+02  5.894634856E+02  0.000000000E+00  0.00000E+00  9.000E+00
      25     1     1     2     0     0  2.904806786E+02  1.884758630E+02 -4.061699006E+02  5.481798644E+02  1.250000000E+02  0.00000E+00  9.000E+00
      25     1     1     2     0     0 -3.134767824E+02 -1.874098626E+02  6.403149732E+02  7.476753404E+02  1.250000000E+02  0.00000E+00  9.000E+00
      21     1     1     2   511   501  2.299610374E+01 -1.066000374E+00 -5.634783507E+01  6.086900411E+01  9.536743164E-07  0.00000E+00  9.000E+00
#rwgt            1           1   3.2488072959652461E-002           8       15408           0
</event>
<event>
      5   9999  3.19816E-02  3.96874E+01 -1.00000E+00  1.45052E-01
      21    -1     0     0   512   501  0.000000000E+00  0.000000000E+00  1.796318010E+03  1.796318010E+03  0.000000000E+00  0.00000E+00  9.000E+00
      21    -1     0     0   501   502  0.000000000E+00  0.000000000E+00 -1.718265170E+02  1.718265170E+02  0.000000000E+00  0.00000E+00  9.000E+00
      25     1     1     2     0     0 -5.099033377E+02  6.301132155E+00  5.003589519E+02  7.252759467E+02  1.250000000E+02  0.00000E+00  9.000E+00
      25     1     1     2     0     0  4.724770461E+02  6.903503209E+00  1.062904794E+03  1.169903338E+03  1.250000000E+02  0.00000E+00  9.000E+00
      21     1     1     2   512   502  3.742629157E+01 -1.320463536E+01  6.122774702E+01  7.296524310E+01  1.348699152E-06  0.00000E+00  9.000E+00
#rwgt            1           1   2.9437800206764796E-002           8       15672           0
</event>
<event>
      5   9999  3.19816E-02  3.02623E+01 -1.00000E+00  1.52778E-01
      21    -1     0     0   502   501  0.000000000E+00  0.000000000E+00  5.018245073E+02  5.018245073E+02  0.000000000E+00  0.00000E+00  9.000E+00
       2    -1     0     0   501     0  0.000000000E+00  0.000000000E+00 -6.060979197E+02  6.060979197E+02  0.000000000E+00  0.00000E+00  9.000E+00
      25     1     1     2     0     0  3.239331831E+02 -1.568342115E+02  1.524518345E+02  4.103611078E+02  1.250000000E+02  0.00000E+00  9.000E+00
      25     1     1     2     0     0 -3.461705551E+02  1.363084908E+02  4.434374898E+01  3.949752219E+02  1.250000000E+02  0.00000E+00  9.000E+00
       2     1     1     2   502     0  2.223737203E+01  2.052572074E+01 -3.010689959E+02  3.025860972E+02  3.814697266E-06  0.00000E+00  9.000E+00
#rwgt            1           1   2.8111595242346386E-002           8       15779           0
</event>
<event>
      5   9999  3.19816E-02  5.92693E+02 -1.00000E+00  9.67981E-02
      21    -1     0     0   502   511  0.000000000E+00  0.000000000E+00  9.392832295E+02  9.392832295E+02  0.000000000E+00  0.00000E+00  9.000E+00
      21    -1     0     0   501   502  0.000000000E+00  0.000000000E+00 -7.285171819E+02  7.285171819E+02  0.000000000E+00  0.00000E+00  9.000E+00
      25     1     1     2     0     0 -4.667258771E+01  1.609701808E+02  1.436041253E+02  2.536471453E+02  1.250000000E+02  0.00000E+00  9.000E+00
      25     1     1     2     0     0 -5.417629919E+02 -2.318828147E+02 -3.431501027E+02  6.932919819E+02  1.250000000E+02  0.00000E+00  9.000E+00
      21     1     1     2   501   511  5.884355797E+02  7.091263394E+01  4.103120251E+02  7.208612841E+02  9.344061824E-06  0.00000E+00  9.000E+00
#rwgt            2          11   2.3666146908237042E-003           8       16007           0
</event>
<event>
      5   9999  3.19816E-02  6.01058E+01 -1.00000E+00  1.34663E-01
      21    -1     0     0   502   501  0.000000000E+00  0.000000000E+00  1.785413544E+02  1.785413544E+02  0.000000000E+00  0.00000E+00  9.000E+00
       2    -1     0     0   501     0  0.000000000E+00  0.000000000E+00 -2.874191539E+03  2.874191539E+03  0.000000000E+00  0.00000E+00  9.000E+00
      25     1     1     2     0     0  5.619327387E+01 -1.103200133E+02 -1.162916550E+03  1.176149690E+03  1.250000000E+02  0.00000E+00  9.000E+00
      25     1     1     2     0     0 -5.531665468E+01  1.704193883E+02  1.017466824E+02  2.409981070E+02  1.250000000E+02  0.00000E+00  9.000E+00
       2     1     1     2   502     0 -8.766191891E-01 -6.009937499E+01 -1.634480317E+03  1.635585097E+03  0.000000000E+00  0.00000E+00  9.000E+00
#rwgt            2          13   1.9227868476581022E-003           8       16117           0
</event>
<event>
      5   9999  3.19816E-02  6.80198E+01 -1.00000E+00  1.31855E-01
      21    -1     0     0   502   501  0.000000000E+00  0.000000000E+00  2.228620027E+02  2.228620027E+02  0.000000000E+00  0.00000E+00  9.000E+00
       2    -1     0     0   501     0  0.000000000E+00  0.000000000E+00 -2.684885106E+03  2.684885106E+03  0.000000000E+00  0.00000E+00  9.000E+00
      25     1     1     2     0     0  1.545218295E+02 -3.334119419E+02 -6.946189130E+00  3.882187120E+02  1.250000000E+02  0.00000E+00  9.000E+00
      25     1     1     2     0     0 -2.220538443E+02  3.415433318E+02 -1.428576725E+03  1.490777051E+03  1.250000000E+02  0.00000E+00  9.000E+00
       2     1     1     2   502     0  6.753201484E+01 -8.131389870E+00 -1.026500189E+03  1.028751345E+03  2.157918644E-05  0.00000E+00  9.000E+00
#rwgt            1           1   3.7461862776586405E-002           8       16136           0
</event>
<event>
      5   9999  3.19816E-02  3.66565E+01 -1.00000E+00  1.47231E-01
      21    -1     0     0   511   501  0.000000000E+00  0.000000000E+00  1.416727432E+03  1.416727432E+03  0.000000000E+00  0.00000E+00  9.000E+00
      21    -1     0     0   501   502  0.000000000E+00  0.000000000E+00 -9.510245819E+01  9.510245819E+01  0.000000000E+00  0.00000E+00  9.000E+00
      25     1     1     2     0     0  1.996334865E+01  3.885110214E+01  1.092322427E+03  1.100318694E+03  1.250000000E+02  0.00000E+00  9.000E+00
      25     1     1     2     0     0 -5.659185283E+01 -3.741880873E+01 -3.353927199E+01  1.461255892E+02  1.250000000E+02  0.00000E+00  9.000E+00
      21     1     1     2   511   502  3.662850419E+01 -1.432293413E+00  2.628418183E+02  2.653856067E+02  5.394796609E-06  0.00000E+00  9.000E+00
#rwgt            1           1   2.9048271454239501E-002           8       16287           0
</event>
<event>
      5   9999  3.19816E-02  3.18458E+01 -1.00000E+00  1.51260E-01
      21    -1     0     0   502   501  0.000000000E+00  0.000000000E+00  8.192971995E+02  8.192971995E+02  0.000000000E+00  0.00000E+00  9.000E+00
      21    -1     0     0   512   502  0.000000000E+00  0.000000000E+00 -4.853168294E+02  4.853168294E+02  0.000000000E+00  0.00000E+00  9.000E+00
      25     1     1     2     0     0  9.419709413E+01  2.154983310E+02 -9.890874653E+01  2.841136451E+02  1.250000000E+02  0.00000E+00  9.000E+00
      25     1     1     2     0     0 -6.504946680E+01 -2.283268325E+02  7.009539920E+02  7.505505143E+02  1.250000000E+02  0.00000E+00  9.000E+00
      21     1     1     2   512   501 -2.914762733E+01  1.282850145E+01 -2.680648754E+02  2.699498695E+02  3.814697266E-06  0.00000E+00  9.000E+00
#rwgt            1           1   1.6701511403501308E-002           8       16397           0
</event>
<event>
      5   9999  3.19816E-02  1.28776E+02 -1.00000E+00  1.19081E-01
      21    -1     0     0   502   501  0.000000000E+00  0.000000000E+00  1.478407277E+03  1.478407277E+03  0.000000000E+00  0.00000E+00  9.000E+00
      21    -1     0     0   511   502  0.000000000E+00  0.000000000E+00 -1.394453749E+02  1.394453749E+02  0.000000000E+00  0.00000E+00  9.000E+00
      25     1     1     2     0     0 -1.572702313E+02  1.614641312E+02  4.952653111E+02  5.583165049E+02  1.250000000E+02  0.00000E+00  9.000E+00
      25     1     1     2     0     0  8.851905738E+01 -5.257679314E+01  9.032532082E+02  9.176553279E+02  1.250000000E+02  0.00000E+00  9.000E+00
      21     1     1     2   511   501  6.875117391E+01 -1.088873381E+02 -5.955661688E+01  1.418808194E+02  1.348699152E-06  0.00000E+00  9.000E+00
#rwgt            1           1   3.3355650032602338E-002           8       16538           0
</event>
<event>
      5   9999  3.19816E-02  4.11461E+02 -1.00000E+00  1.01318E-01
      21    -1     0     0   502   501  0.000000000E+00  0.000000000E+00  6.761136625E+02  6.761136625E+02  0.000000000E+00  0.00000E+00  9.000E+00
      21    -1     0     0   512   502  0.000000000E+00  0.000000000E+00 -5.980496822E+02  5.980496822E+02  0.000000000E+00  0.00000E+00  9.000E+00
      25     1     1     2     0     0 -2.191701169E+02 -1.033709417E+02  1.488493854E+02  3.106480827E+02  1.250000000E+02  0.00000E+00  9.000E+00
      25     1     1     2     0     0  7.979211765E+01  4.905068184E+02  9.272466581E+01  5.207557821E+02  1.250000000E+02  0.00000E+00  9.000E+00
      21     1     1     2   512   501  1.393779993E+02 -3.871358767E+02 -1.635100709E+02  4.427594799E+02  2.697398305E-06  0.00000E+00  9.000E+00
#rwgt            1           1   2.6275943019731431E-002           8       16566           0
</event>
<event>
      5   9999  3.19816E-02  6.85020E+00 -1.00000E+00  2.16890E-01
      21    -1     0     0   502   501  0.000000000E+00  0.000000000E+00  7.723707781E+02  7.723707781E+02  0.000000000E+00  0.00000E+00  9.000E+00
      21    -1     0     0   511   502  0.000000000E+00  0.000000000E+00 -4.966892247E+02  4.966892247E+02  0.000000000E+00  0.00000E+00  9.000E+00
      25     1     1     2     0     0  1.400739711E+02  5.628442832E+02  2.526768365E+02  6.448914546E+02  1.250000000E+02  0.00000E+00  9.000E+00
      25     1     1     2     0     0 -1.434159494E+02 -5.688239553E+02  4.466043225E+01  6.014552194E+02  1.250000000E+02  0.00000E+00  9.000E+00
      21     1     1     2   511   501  3.341978331E+00  5.979672099E+00 -2.165571534E+01  2.271332878E+01  2.384185791E-07  0.00000E+00  9.000E+00
#rwgt            1           1   2.7910921426175548E-002           8       16621           0
</event>
<event>
      5   9999  3.19816E-02  6.04006E+02 -1.00000E+00  9.65751E-02
       2    -1     0     0   502     0  0.000000000E+00  0.000000000E+00  3.877231239E+03  3.877231239E+03  0.000000000E+00  0.00000E+00  9.000E+00
      21    -1     0     0   501   502  0.000000000E+00  0.000000000E+00 -4.418211533E+02  4.418211533E+02  0.000000000E+00  0.00000E+00  9.000E+00
      25     1     1     2     0     0 -8.624282590E+01  2.078844263E+02  2.371352513E+03  2.385286461E+03  1.250000000E+02  0.00000E+00  9.000E+00
      25     1     1     2     0     0  5.920992554E+02 -5.379341817E+02  1.054746513E+03  1.329687903E+03  1.250000000E+02  0.00000E+00  9.000E+00
       2     1     1     2   501     0 -5.058564295E+02  3.300497555E+02  9.311059405E+00  6.040780282E+02  1.622823341E-05  0.00000E+00  9.000E+00
#rwgt            2          18   1.4474545815788312E-003           8       16973           0
</event>
<event>
      5   9999  3.19816E-02  3.13398E+02 -1.00000E+00  1.04979E-01
      21    -1     0     0   502   501  0.000000000E+00  0.000000000E+00  1.735426612E+03  1.735426612E+03  0.000000000E+00  0.00000E+00  9.000E+00
      21    -1     0     0   501   511  0.000000000E+00  0.000000000E+00 -1.692305056E+02  1.692305056E+02  0.000000000E+00  0.00000E+00  9.000E+00
      25     1     1     2     0     0 -1.368609632E+02 -2.743126696E+02  2.297386844E+02  4.029680224E+02  1.250000000E+02  0.00000E+00  9.000E+00
      25     1     1     2     0     0 -3.777761226E+01  1.408289609E+01  1.103257887E+03  1.111048352E+03  1.250000000E+02  0.00000E+00  9.000E+00
      21     1     1     2   502   511  1.746385754E+02  2.602297735E+02  2.331995354E+02  3.906407433E+02  8.092194914E-06  0.00000E+00  9.000E+00
#rwgt            2          11   3.6260936461044169E-003           8       17112           0
</event>
<event>
      5   9999  3.19816E-02  2.31097E+01 -1.00000E+00  1.61352E-01
      21    -1     0     0   512   501  0.000000000E+00  0.000000000E+00  5.683526091E+02  5.683526091E+02  0.000000000E+00  0.00000E+00  9.000E+00
      21    -1     0     0   501   502  0.000000000E+00  0.000000000E+00 -2.761189803E+02  2.761189803E+02  0.000000000E+00  0.00000E+00  9.000E+00
      25     1     1     2     0     0  2.927439517E+02 -1.384676456E+02  3.142880507E+02  4.682673264E+02  1.250000000E+02  0.00000E+00  9.000E+00
      25     1     1     2     0     0 -2.775196584E+02  1.558538670E+02 -4.345923457E+01  3.447046471E+02  1.250000000E+02  0.00000E+00  9.000E+00
      21     1     1     2   512   502 -1.522429334E+01 -1.738622141E+01  2.140481262E+01  3.149961596E+01  3.371747881E-07  0.00000E+00  9.000E+00
#rwgt            1           1   2.8849027138576153E-002           8       17162           0
</event>
<event>
      5   9999  3.19816E-02  2.73730E+01 -1.00000E+00  1.55856E-01
      21    -1     0     0   511   501  0.000000000E+00  0.000000000E+00  1.026868387E+03  1.026868387E+03  0.000000000E+00  0.00000E+00  9.000E+00
      21    -1     0     0   501   502  0.000000000E+00  0.000000000E+00 -2.338446872E+02  2.338446872E+02  0.000000000E+00  0.00000E+00  9.000E+00
      25     1     1     2     0     0  3.025288150E+02 -3.376639729E+02  5.333463109E+02  7.110723801E+02  1.250000000E+02  0.00000E+00  9.000E+00
      25     1     1     2     0     0 -2.756782078E+02  3.323417208E+02  2.175521226E+02  4.994030633E+02  1.250000000E+02  0.00000E+00  9.000E+00
      21     1     1     2   511   502 -2.685060726E+01  5.322252065E+00  4.212526642E+01  5.023763080E+01  4.768371582E-07  0.00000E+00  9.000E+00
#rwgt            1           1   2.5959257537523178E-002           8       17303           0
</event>
<event>
      5   9999  3.19816E-02  5.12071E+01 -1.00000E+00  1.38487E-01
       2    -1     0     0   502     0  0.000000000E+00  0.000000000E+00  2.133242896E+03  2.133242896E+03  0.000000000E+00  0.00000E+00  9.000E+00
      21    -1     0     0   501   502  0.000000000E+00  0.000000000E+00 -8.723079103E+01  8.723079103E+01  0.000000000E+00  0.00000E+00  9.000E+00
      25     1     1     2     0     0 -1.259444264E+02 -2.766938367E+01  2.739513137E+01  1.816675165E+02  1.250000000E+02  0.00000E+00  9.000E+00
      25     1     1     2     0     0  7.686761060E+01  1.305301516E+01  5.527769975E+02  5.720720407E+02  1.250000000E+02  0.00000E+00  9.000E+00
       2     1     1     2   501     0  4.907681581E+01  1.461636850E+01  1.465839976E+03  1.466734130E+03  2.157918644E-05  0.00000E+00  9.000E+00
#rwgt            1           1   3.0367526151276497E-002           8       17489           0
</event>
<event>
      5   9999  3.19816E-02  2.50310E+01 -1.00000E+00  1.58711E-01
      21    -1     0     0   511   501  0.000000000E+00  0.000000000E+00  6.980976525E+02  6.980976525E+02  0.000000000E+00  0.00000E+00  9.000E+00
      21    -1     0     0   501   502  0.000000000E+00  0.000000000E+00 -1.469545844E+02  1.469545844E+02  0.000000000E+00  0.00000E+00  9.000E+00
      25     1     1     2     0     0 -1.247539900E+02 -2.513620754E+02  2.936510364E+02  4.249733899E+02  1.250000000E+02  0.00000E+00  9.000E+00
      25     1     1     2     0     0  1.010892051E+02  2.432055483E+02  1.897181967E+02  3.478303613E+02  1.250000000E+02  0.00000E+00  9.000E+00
      21     1     1     2   511   502  2.366478489E+01  8.156527066E+00  6.777383499E+01  7.224848571E+01  9.536743164E-07  0.00000E+00  9.000E+00
#rwgt            1           1   2.6897582602252602E-002           8       17570           0
</event>
<event>
      5   9999  3.19816E-02  3.58578E+01 -1.00000E+00  1.47847E-01
      21    -1     0     0   502   512  0.000000000E+00  0.000000000E+00  7.106457772E+02  7.106457772E+02  0.000000000E+00  0.00000E+00  9.000E+00
      21    -1     0     0   501   502  0.000000000E+00  0.000000000E+00 -1.787732004E+02  1.787732004E+02  0.000000000E+00  0.00000E+00  9.000E+00
      25     1     1     2     0     0  1.558468951E+02 -7.633933943E+01  5.156230384E+02  5.582186553E+02  1.250000000E+02  0.00000E+00  9.000E+00
      25     1     1     2     0     0 -1.916411652E+02  7.420589061E+01 -5.915524210E+01  2.477038414E+02  1.250000000E+02  0.00000E+00  9.000E+00
      21     1     1     2   501   512  3.579427010E+01  2.133448824E+00  7.540478054E+01  8.349648079E+01  0.000000000E+00  0.00000E+00  9.000E+00
#rwgt            1           1   2.3452234806799838E-002           8       17738           0
</event>
<event>
      5   9999  3.19816E-02  1.84240E+02 -1.00000E+00  1.12961E-01
      21    -1     0     0   511   501  0.000000000E+00  0.000000000E+00  2.068731211E+03  2.068731211E+03  0.000000000E+00  0.00000E+00  9.000E+00
      21    -1     0     0   501   502  0.000000000E+00  0.000000000E+00 -2.248738674E+03  2.248738674E+03  0.000000000E+00  0.00000E+00  9.000E+00
      25     1     1     2     0     0 -8.705878853E+02  1.681845675E+03 -9.386638017E+02  2.117366967E+03  1.250000000E+02  0.00000E+00  9.000E+00
      25     1     1     2     0     0  1.009367073E+03 -1.560664413E+03  6.003039666E+02  1.957162525E+03  1.250000000E+02  0.00000E+00  9.000E+00
      21     1     1     2   511   502 -1.387791874E+02 -1.211812623E+02  1.583523713E+02  2.429403933E+02  1.907348633E-06  0.00000E+00  9.000E+00
#rwgt            1           1   1.2838816763981360E-002           8       17870           0
</event>
<event>
      5   9999  3.19816E-02  2.34239E+02 -1.00000E+00  1.09205E-01
       2    -1     0     0   502     0  0.000000000E+00  0.000000000E+00  9.556136861E+02  9.556136861E+02  0.000000000E+00  0.00000E+00  9.000E+00
      21    -1     0     0   501   502  0.000000000E+00  0.000000000E+00 -4.706205767E+02  4.706205767E+02  0.000000000E+00  0.00000E+00  9.000E+00
      25     1     1     2     0     0 -3.792864852E+02  4.072514670E+02  3.911847193E+02  6.916375350E+02  1.250000000E+02  0.00000E+00  9.000E+00
      25     1     1     2     0     0  1.466569988E+02 -4.346603614E+02  1.404257423E+02  4.957643535E+02  1.250000000E+02  0.00000E+00  9.000E+00
       2     1     1     2   501     0  2.326294865E+02  2.740889444E+01 -4.661735216E+01  2.388323742E+02  5.309833873E-06  0.00000E+00  9.000E+00
#rwgt            1           1   2.9695428696294105E-002           8       18046           0
</event>
<event>
      5   9999  3.19816E-02  1.27446E+01 -1.00000E+00  1.84320E-01
      21    -1     0     0   502   501  0.000000000E+00  0.000000000E+00  5.846302857E+01  5.846302857E+01  0.000000000E+00  0.00000E+00  9.000E+00
      21    -1     0     0   511   502  0.000000000E+00  0.000000000E+00 -1.306343717E+03  1.306343717E+03  0.000000000E+00  0.00000E+00  9.000E+00
      25     1     1     2     0     0 -1.737133836E+02  7.083979618E+01 -5.290821045E+02  5.751065029E+02  1.250000000E+02  0.00000E+00  9.000E+00
      25     1     1     2     0     0  1.631299240E+02 -7.794015474E+01 -3.062864625E+02  3.769912956E+02  1.250000000E+02  0.00000E+00  9.000E+00
      21     1     1     2   511   501  1.058345965E+01  7.100358564E+00 -4.125121216E+02  4.127089473E+02  5.394796609E-06  0.00000E+00  9.000E+00
#rwgt            1           1   3.2201109625160047E-002           8       18098           0
</event>
<event>
      5   9999  3.19816E-02  4.58765E+01 -1.00000E+00  1.41242E-01
      21    -1     0     0   512   501  0.000000000E+00  0.000000000E+00  1.471486164E+02  1.471486164E+02  0.000000000E+00  0.00000E+00  9.000E+00
      21    -1     0     0   501   502  0.000000000E+00  0.000000000E+00 -2.154616118E+03  2.154616118E+03  0.000000000E+00  0.00000E+00  9.000E+00
      25     1     1     2     0     0 -1.238024245E+02 -5.437912791E+00 -1.031785648E+03  1.046691566E+03  1.250000000E+02  0.00000E+00  9.000E+00
      25     1     1     2     0     0  1.551203251E+02  3.896172388E+01 -1.102074063E+03  1.120612588E+03  1.250000000E+02  0.00000E+00  9.000E+00
      21     1     1     2   512   502 -3.131790062E+01 -3.352381109E+01  1.263922101E+02  1.344605800E+02  8.635888231E-06  0.00000E+00  9.000E+00
#rwgt            1           1   6.3489394678780592E-002           8       18320           0
</event>
<event>
      5   9999  3.19816E-02  2.77640E+02 -1.00000E+00  1.06697E-01
      21    -1     0     0   502   511  0.000000000E+00  0.000000000E+00  2.313549114E+02  2.313549114E+02  0.000000000E+00  0.00000E+00  9.000E+00
      21    -1     0     0   501   502  0.000000000E+00  0.000000000E+00 -8.722857651E+02  8.722857651E+02  0.000000000E+00  0.00000E+00  9.000E+00
      25     1     1     2     0     0 -2.894604305E+01  1.022492856E+02 -3.930222061E+02  4.258922919E+02  1.250000000E+02  0.00000E+00  9.000E+00
      25     1     1     2     0     0 -2.188951680E+02 -2.273843541E+02 -6.602652736E+01  3.458370156E+02  1.250000000E+02  0.00000E+00  9.000E+00
      21     1     1     2   501   511  2.478412110E+02  1.251350685E+02 -1.818821203E+02  3.319113691E+02  3.814697266E-06  0.00000E+00  9.000E+00
#rwgt            2          11   3.3624467103737761E-003           8       18463           0
</event>
<event>
      5   9999  3.19816E-02  6.65344E+01 -1.00000E+00  1.32347E-01
      21    -1     0     0   502   501  0.000000000E+00  0.000000000E+00  6.339228363E+02  6.339228363E+02  0.000000000E+00  0.00000E+00  9.000E+00
      21    -1     0     0   512   502  0.000000000E+00  0.000000000E+00 -4.277218689E+02  4.277218689E+02  0.000000000E+00  0.00000E+00  9.000E+00
      25     1     1     2     0     0  2.808673659E+02  3.287491893E+02 -9.669021592E+01  4.603656205E+02  1.250000000E+02  0.00000E+00  9.000E+00
      25     1     1     2     0     0 -2.790360230E+02 -2.622400301E+02  3.381955238E+02  5.259583138E+02  1.250000000E+02  0.00000E+00  9.000E+00
      21     1     1     2   512   501 -1.831342897E+00 -6.650915915E+01 -3.530434052E+01  7.532077089E+01  1.261592536E-06  0.00000E+00  9.000E+00
#rwgt            1           1   2.9510156842443069E-002           8       18513           0
</event>
<event>
      5   9999  3.19816E-02  4.25795E+01 -1.00000E+00  1.43177E-01
      21    -1     0     0   502   501  0.000000000E+00  0.000000000E+00  7.400510001E+02  7.400510001E+02  0.000000000E+00  0.00000E+00  9.000E+00
      21    -1     0     0   501   511  0.000000000E+00  0.000000000E+00 -8.188685305E+01  8.188685305E+01  0.000000000E+00  0.00000E+00  9.000E+00
      25     1     1     2     0     0  9.118235025E+01  6.532550934E+01  5.293012925E+02  5.553075737E+02  1.250000000E+02  0.00000E+00  9.000E+00
      25     1     1     2     0     0 -5.359112970E+01 -8.532337376E+01  1.494407009E+02  2.193390307E+02  1.250000000E+02  0.00000E+00  9.000E+00
      21     1     1     2   502   511 -3.759122055E+01  1.999786442E+01 -2.057784639E+01  4.729124873E+01  5.331201500E-07  0.00000E+00  9.000E+00
#rwgt            1           1   3.0513200759017058E-002           8       18611           0
</event>
<event>
      5   9999  3.19816E-02  3.32768E+01 -1.00000E+00  1.49977E-01
      21    -1     0     0   512   501  0.000000000E+00  0.000000000E+00  1.963512441E+02  1.963512441E+02  0.000000000E+00  0.00000E+00  9.000E+00
      21    -1     0     0   501   502  0.000000000E+00  0.000000000E+00 -2.716084910E+02  2.716084910E+02  0.000000000E+00  0.00000E+00  9.000E+00
      25     1     1     2     0     0  7.289311018E+01  7.899512978E+01 -1.528369805E+02  2.248060912E+02  1.250000000E+02  0.00000E+00  9.000E+00
      25     1     1     2     0     0 -5.366318208E+01 -5.183714391E+01 -1.348693226E+01  1.461975511E+02  1.250000000E+02  0.00000E+00  9.000E+00
      21     1     1     2   512   502 -1.922992809E+01 -2.715798587E+01  9.106666581E+01  9.695609291E+01  1.348699152E-06  0.00000E+00  9.000E+00
#rwgt            1           1   2.9153776551085867E-002           8       18695           0
</event>
<event>
      5   9999  3.19816E-02  1.23036E+02 -1.00000E+00  1.19909E-01
      21    -1     0     0   502   511  0.000000000E+00  0.000000000E+00  1.232731094E+03  1.232731094E+03  0.000000000E+00  0.00000E+00  9.000E+00
      21    -1     0     0   501   502  0.000000000E+00  0.000000000E+00 -4.843882387E+02  4.843882387E+02  0.000000000E+00  0.00000E+00  9.000E+00
      25     1     1     2     0     0  5.955566112E+02 -4.023122848E+01  2.099485486E+02  6.449880789E+02  1.250000000E+02  0.00000E+00  9.000E+00
      25     1     1     2     0     0 -6.401955023E+02 -7.442189911E+01  1.620991173E+02  6.762322265E+02  1.250000000E+02  0.00000E+00  9.000E+00
      21     1     1     2   501   511  4.463889117E+01  1.146531276E+02  3.762951898E+02  3.958990277E+02  0.000000000E+00  0.00000E+00  9.000E+00
#rwgt            1           1   3.0756232706662324E-002           8       18767           0
</event>
<event>
      5   9999  3.19816E-02  2.60384E+02 -1.00000E+00  1.07630E-01
      21    -1     0     0   502   501  0.000000000E+00  0.000000000E+00  2.984385775E+02  2.984385775E+02  0.000000000E+00  0.00000E+00  9.000E+00
      21    -1     0     0   512   502  0.000000000E+00  0.000000000E+00 -2.183129920E+03  2.183129920E+03  0.000000000E+00  0.00000E+00  9.000E+00
      25     1     1     2     0     0  1.250412070E+02  4.781076026E+02 -1.880635086E+02  5.433369731E+02  1.250000000E+02  0.00000E+00  9.000E+00
      25     1     1     2     0     0 -3.756299998E+02 -5.488560323E+02 -1.222484748E+03  1.397295530E+03  1.250000000E+02  0.00000E+00  9.000E+00
      21     1     1     2   512   501  2.505887928E+02  7.074842978E+01 -4.741430867E+02  5.409359944E+02  5.394796609E-06  0.00000E+00  9.000E+00
#rwgt            1           1   2.9347135455882634E-002           8       18841           0
</event>
<event>
      5   9999  3.19816E-02  7.05965E+01 -1.00000E+00  1.31034E-01
      21    -1     0     0   502   501  0.000000000E+00  0.000000000E+00  3.657730498E+02  3.657730498E+02  0.000000000E+00  0.00000E+00  9.000E+00
       2    -1     0     0   501     0  0.000000000E+00  0.000000000E+00 -1.599581263E+03  1.599581263E+03  0.000000000E+00  0.00000E+00  9.000E+00
      25     1     1     2     0     0  4.542825283E+02  1.377068141E+02  4.152906149E+01  4.926311451E+02  1.250000000E+02  0.00000E+00  9.000E+00
      25     1     1     2     0     0 -4.913990807E+02 -1.977586799E+02 -6.695964294E+02  8.628823386E+02  1.250000000E+02  0.00000E+00  9.000E+00
       2     1     1     2   502     0  3.711655239E+01  6.005186573E+01 -6.057408456E+02  6.098408293E+02  0.000000000E+00  0.00000E+00  9.000E+00
#rwgt            1           1   3.1947599961454611E-002           8       18960           0
</event>
<event>
      5   9999  3.19816E-02  1.93998E+02 -1.00000E+00  1.12132E-01
      21    -1     0     0   502   501  0.000000000E+00  0.000000000E+00  6.223943550E+02  6.223943550E+02  0.000000000E+00  0.00000E+00  9.000E+00
       2    -1     0     0   501     0  0.000000000E+00  0.000000000E+00 -1.022071334E+03  1.022071334E+03  0.000000000E+00  0.00000E+00  9.000E+00
      25     1     1     2     0     0  4.416189552E+02  1.897998432E+02  7.184745574E+01  5.018349718E+02  1.250000000E+02  0.00000E+00  9.000E+00
      25     1     1     2     0     0 -3.368476673E+02 -2.652697691E+01  2.215338695E+02  4.229329579E+02  1.250000000E+02  0.00000E+00  9.000E+00
       2     1     1     2   502     0 -1.047712879E+02 -1.632728663E+02 -6.930583042E+02  7.196977593E+02  1.321449896E-05  0.00000E+00  9.000E+00
#rwgt            1           1   2.7480251615534964E-002           8       19020           0
</event>
<event>
      5   9999  3.19816E-02  1.20746E+02 -1.00000E+00  1.20254E-01
      21    -1     0     0   502   511  0.000000000E+00  0.000000000E+00  7.695953416E+02  7.695953416E+02  0.000000000E+00  0.00000E+00  9.000E+00
      21    -1     0     0   501   502  0.000000000E+00  0.000000000E+00 -2.364228782E+02  2.364228782E+02  0.000000000E+00  0.00000E+00  9.000E+00
      25     1     1     2     0     0 -1.613175057E+02  1.872315112E+02 -6.486936076E+01  2.844503654E+02  1.250000000E+02  0.00000E+00  9.000E+00
      25     1     1     2     0     0  5.651031025E+01 -2.471906292E+02  4.063641914E+02  4.950287652E+02  1.250000000E+02  0.00000E+00  9.000E+00
      21     1     1     2   501   511  1.048071954E+02  5.995911803E+01  1.916776327E+02  2.265390892E+02  2.697398305E-06  0.00000E+00  9.000E+00
#rwgt            1           1   2.9003291771108629E-002           8       19085           0
</event>
<event>
      5   9999  3.19816E-02  4.97079E+01 -1.00000E+00  1.39221E-01
      21    -1     0     0   502   512  0.000000000E+00  0.000000000E+00  1.416903127E+02  1.416903127E+02  0.000000000E+00  0.00000E+00  9.000E+00
      21    -1     0     0   501   502  0.000000000E+00  0.000000000E+00 -9.754983265E+02  9.754983265E+02  0.000000000E+00  0.00000E+00  9.000E+00
      25     1     1     2     0     0 -1.482948028E+01 -2.369683019E+01 -8.686692480E+02  8.780619088E+02  1.250000000E+02  0.00000E+00  9.000E+00
      25     1     1     2     0     0  2.144490070E+01  7.296256548E+01 -3.777173950E+01  1.511129512E+02  1.250000000E+02  0.00000E+00  9.000E+00
      21     1     1     2   501   512 -6.615420419E+00 -4.926573530E+01  7.263297364E+01  8.801377915E+01  1.651812370E-06  0.00000E+00  9.000E+00
#rwgt            1           1   2.5382776396443797E-002           8       19170           0
</event>
<event>
      5   9999  3.19816E-02  9.40380E+01 -1.00000E+00  1.25041E-01
      21    -1     0     0   502   501  0.000000000E+00  0.000000000E+00  5.338203031E+02  5.338203031E+02  0.000000000E+00  0.00000E+00  9.000E+00
      21    -1     0     0   511   502  0.000000000E+00  0.000000000E+00 -5.761326233E+02  5.761326233E+02  0.000000000E+00  0.00000E+00  9.000E+00
      25     1     1     2     0     0 -3.417853396E+01 -4.935830841E+02  3.415616996E+01  5.114529079E+02  1.250000000E+02  0.00000E+00  9.000E+00
      25     1     1     2     0     0  1.438615231E+01  4.016515260E+02  6.776443817E+01  4.263190458E+02  1.250000000E+02  0.00000E+00  9.000E+00
      21     1     1     2   511   501  1.979238165E+01  9.193155807E+01 -1.442329283E+02  1.721809727E+02  2.697398305E-06  0.00000E+00  9.000E+00
#rwgt            1           1   2.6647306919848505E-002           8       19270           0
</event>
<event>
      5   9999  3.19816E-02  9.44498E+01 -1.00000E+00  1.24954E-01
      21    -1     0     0   502   501  0.000000000E+00  0.000000000E+00  7.835360795E+02  7.835360795E+02  0.000000000E+00  0.00000E+00  9.000E+00
      21    -1     0     0   512   502  0.000000000E+00  0.000000000E+00 -4.256547370E+02  4.256547370E+02  0.000000000E+00  0.00000E+00  9.000E+00
      25     1     1     2     0     0  6.563261073E+00 -1.533888973E+02  1.042091435E+02  2.237314815E+02  1.250000000E+02  0.00000E+00  9.000E+00
      25     1     1     2     0     0  8.426642119E+01  1.792873728E+02  5.906986907E+02  6.354484519E+02  1.250000000E+02  0.00000E+00  9.000E+00
      21     1     1     2   512   501 -9.082968226E+01 -2.589847549E+01 -3.370264917E+02  3.500108832E+02  6.607249480E-06  0.00000E+00  9.000E+00
#rwgt            1           1   1.6761311639639721E-002           8       19351           0
</event>
<event>
      5   9999  3.19816E-02  1.00690E+02 -1.00000E+00  1.23694E-01
      21    -1     0     0   502   501  0.000000000E+00  0.000000000E+00  1.031894074E+03  1.031894074E+03  0.000000000E+00  0.00000E+00  9.000E+00
      21    -1     0     0   501   511  0.000000000E+00  0.000000000E+00 -2.818349535E+02  2.818349535E+02  0.000000000E+00  0.00000E+00  9.000E+00
      25     1     1     2     0     0 -1.930243179E+01  1.529067794E+02  9.561830478E+01  2.202746633E+02  1.250000000E+02  0.00000E+00  9.000E+00
      25     1     1     2     0     0 -7.912376294E+01 -1.316748097E+02  8.503905032E+02  8.731482311E+02  1.250000000E+02  0.00000E+00  9.000E+00
      21     1     1     2   502   511  9.842619473E+01 -2.123196969E+01 -1.959496875E+02  2.203061333E+02  2.697398305E-06  0.00000E+00  9.000E+00
#rwgt            1           1   2.9100001049542287E-002           8       19400           0
</event>
<event>
      5   9999  3.19816E-02  2.28393E+02 -1.00000E+00  1.09589E-01
       1    -1     0     0   502     0  0.000000000E+00  0.000000000E+00  2.673127698E+03  2.673127698E+03  0.000000000E+00  0.00000E+00  9.000E+00
      21    -1     0     0   501   502  0.000000000E+00  0.000000000E+00 -3.505867542E+02  3.505867542E+02  0.000000000E+00  0.00000E+00  9.000E+00
      25     1     1     2     0     0 -2.508699643E+02  5.758874116E+02  1.526325184E+02  6.584100056E+02  1.250000000E+02  0.00000E+00  9.000E+00
      25     1     1     2     0     0  1.475288987E+02 -3.722116175E+02  3.962914463E+02  5.770426107E+02  1.250000000E+02  0.00000E+00  9.000E+00
       1     1     1     2   501     0  1.033410656E+02 -2.036757940E+02  1.773616979E+03  1.788261836E+03  0.000000000E+00  0.00000E+00  9.000E+00
#rwgt            1           1   2.1994459373437237E-002           8       19529           0
</event>
<event>
      5   9999  3.19816E-02  5.42642E+01 -1.00000E+00  1.37077E-01
      21    -1     0     0   502   501  0.000000000E+00  0.000000000E+00  1.190851864E+03  1.190851864E+03  0.000000000E+00  0.00000E+00  9.000E+00
      21    -1     0     0   511   502  0.000000000E+00  0.000000000E+00 -1.324915590E+03  1.324915590E+03  0.000000000E+00  0.00000E+00  9.000E+00
      25     1     1     2     0     0 -2.433278591E+01  1.021061971E+02  2.794176318E+02  3.236000200E+02  1.250000000E+02  0.00000E+00  9.000E+00
      25     1     1     2     0     0 -6.469739320E+00 -1.467806312E+02  8.783063507E+02  8.992404889E+02  1.250000000E+02  0.00000E+00  9.000E+00
      21     1     1     2   511   501  3.080252523E+01  4.467443408E+01 -1.291787709E+03  1.292926945E+03  1.525878906E-05  0.00000E+00  9.000E+00
#rwgt            1           1   3.9276677539654165E-002           8       19622           0
</event>
<event>
      5   9999  3.19816E-02  5.68478E+01 -1.00000E+00  1.35968E-01
      21    -1     0     0   502   512  0.000000000E+00  0.000000000E+00  1.059546121E+02  1.059546121E+02  0.000000000E+00  0.00000E+00  9.000E+00
      21    -1     0     0   501   502  0.000000000E+00  0.000000000E+00 -1.894789119E+03  1.894789119E+03  0.000000000E+00  0.00000E+00  9.000E+00
      25     1     1     2     0     0  1.159963924E+02 -1.424425908E+02 -1.703287180E+03  1.717718624E+03  1.250000000E+02  0.00000E+00  9.000E+00
      25     1     1     2     0     0 -6.159503114E+01  1.589398383E+02 -5.467360061E+01  2.183346575E+02  1.250000000E+02  0.00000E+00  9.000E+00
      21     1     1     2   501   512 -5.440136126E+01 -1.649724757E+01 -3.087372675E+01  6.469044974E+01  0.000000000E+00  0.00000E+00  9.000E+00
#rwgt            1           1   3.3288079512541528E-002           8       19684           0
</event>
<event>
      5   9999  3.19816E-02  2.71749E+01 -1.00000E+00  1.56084E-01
      21    -1     0     0   502   511  0.000000000E+00  0.000000000E+00  3.207918791E+02  3.207918791E+02  0.000000000E+00  0.00000E+00  9.000E+00
      21    -1     0     0   501   502  0.000000000E+00  0.000000000E+00 -7.269349943E+02  7.269349943E+02  0.000000000E+00  0.00000E+00  9.000E+00
      25     1     1     2     0     0  3.460295685E+02  4.707057582E+01 -4.823064137E+02  6.084378177E+02  1.250000000E+02  0.00000E+00  9.000E+00
      25     1     1     2     0     0 -3.332217105E+02 -2.310321608E+01 -1.880208857E+00  3.566496911E+02  1.250000000E+02  0.00000E+00  9.000E+00
      21     1     1     2   501   511 -1.280785792E+01 -2.396735974E+01  7.804350730E+01  8.263936464E+01  0.000000000E+00  0.00000E+00  9.000E+00
#rwgt            1           1   2.6917311331099852E-002           8       19789           0
</event>
<event>
      5   9999  3.19816E-02  1.65728E+02 -1.00000E+00  1.14703E-01
      21    -1     0     0   512   501  0.000000000E+00  0.000000000E+00  9.987611203E+02  9.987611203E+02  0.000000000E+00  0.00000E+00  9.000E+00
      21    -1     0     0   501   502  0.000000000E+00  0.000000000E+00 -7.796167241E+02  7.796167241E+02  0.000000000E+00  0.00000E+00  9.000E+00
      25     1     1     2     0     0  2.902865830E+02 -1.738937803E+02  7.898566603E+02  8.683339743E+02  1.250000000E+02  0.00000E+00  9.000E+00
      25     1     1     2     0     0 -1.263362368E+02  1.981031587E+02 -6.671664353E+02  7.182908594E+02  1.250000000E+02  0.00000E+00  9.000E+00
      21     1     1     2   512   502 -1.639503461E+02 -2.420937835E+01  9.645417123E+01  1.917530108E+02  3.568322551E-06  0.00000E+00  9.000E+00
#rwgt            1           1   2.7821049991812744E-002           8       19950           0
</event>
<event>
      5   9999  3.19816E-02  1.05544E+02 -1.00000E+00  1.22783E-01
      21    -1     0     0   511   501  0.000000000E+00  0.000000000E+00  2.561592665E+02  2.561592665E+02  0.000000000E+00  0.00000E+00  9.000E+00
      21    -1     0     0   501   502  0.000000000E+00  0.000000000E+00 -6.465722753E+02  6.465722753E+02  0.000000000E+00  0.00000E+00  9.000E+00
      25     1     1     2     0     0 -2.029879306E+02 -1.844261417E+02 -4.769025906E+02  5.641614863E+02  1.250000000E+02  0.00000E+00  9.000E+00
      25     1     1     2     0     0  1.031194610E+02  1.502832213E+02  4.748471606E+01  2.260497027E+02  1.250000000E+02  0.00000E+00  9.000E+00
      21     1     1     2   511   502  9.986846964E+01  3.414292032E+01  3.900486572E+01  1.125203528E+02  4.768371582E-07  0.00000E+00  9.000E+00
#rwgt            1           1   2.9372993413583251E-002           8       20053           0
</event>
<event>
      5   9999  3.19816E-02  1.20638E+02 -1.00000E+00  1.20271E-01
      21    -1     0     0   502   501  0.000000000E+00  0.000000000E+00  1.250705717E+03  1.250705717E+03  0.000000000E+00  0.00000E+00  9.000E+00
      21    -1     0     0   501   512  0.000000000E+00  0.000000000E+00 -2.210979497E+02  2.210979497E+02  0.000000000E+00  0.00000E+00  9.000E+00
      25     1     1     2     0     0  1.453584411E+01 -2.047063592E+02  1.118013837E+03  1.143545331E+03  1.250000000E+02  0.00000E+00  9.000E+00
      25     1     1     2     0     0 -2.452317664E+01  8.448279130E+01 -1.299930671E+02  2.006537458E+02  1.250000000E+02  0.00000E+00  9.000E+00
      21     1     1     2   502   512  9.987332528E+00  1.202235679E+02  4.158699797E+01  1.276045904E+02  3.053247565E-06  0.00000E+00  9.000E+00
#rwgt            1           1   3.2589419217976257E-002           8       20143           0
</event>
<event>
      5   9999  3.19816E-02  5.43754E+01 -1.00000E+00  1.37028E-01
      21    -1     0     0   502   511  0.000000000E+00  0.000000000E+00  2.060497721E+02  2.060497721E+02  0.000000000E+00  0.00000E+00  9.000E+00
      21    -1     0     0   501   502  0.000000000E+00  0.000000000E+00 -5.858149293E+02  5.858149293E+02  0.000000000E+00  0.00000E+00  9.000E+00
      25     1     1     2     0     0  6.276176081E+01 -2.382687393E+02 -3.370184631E+02  4.357952216E+02  1.250000000E+02  0.00000E+00  9.000E+00
      25     1     1     2     0     0 -8.406228527E+01  1.882389972E+02 -1.137974287E+02  2.665994048E+02  1.250000000E+02  0.00000E+00  9.000E+00
      21     1     1     2   501   511  2.130052446E+01  5.002974206E+01  7.105073454E+01  8.947007495E+01  1.907348633E-06  0.00000E+00  9.000E+00
#rwgt            1           1   3.2444247252088027E-002           8       20268           0
</event>
<event>
      5   9999  3.19816E-02  1.34341E+02 -1.00000E+00  1.18323E-01
      21    -1     0     0   502   512  0.000000000E+00  0.000000000E+00  1.073141484E+03  1.073141484E+03  0.000000000E+00  0.00000E+00  9.000E+00
      21    -1     0     0   501   502  0.000000000E+00  0.000000000E+00 -1.303900481E+02  1.303900481E+02  0.000000000E+00  0.00000E+00  9.000E+00
      25     1     1     2     0     0  2.884644773E+02 -1.125542876E+02  2.425866279E+02  4.127390148E+02  1.250000000E+02  0.00000E+00  9.000E+00
      25     1     1     2     0     0 -1.959782849E+02  1.511836978E+01  4.283000544E+02  4.875469104E+02  1.250000000E+02  0.00000E+00  9.000E+00
      21     1     1     2   501   512 -9.248619240E+01  9.743591778E+01  2.718647536E+02  3.032456069E+02  3.814697266E-06  0.00000E+00  9.000E+00
#rwgt            1           1   2.7374869165535661E-002           8       20394           0
</event>
<event>
      5   9999  3.19816E-02  4.12814E+01 -1.00000E+00  1.43996E-01
      21    -1     0     0   502   501  0.000000000E+00  0.000000000E+00  5.607477722E+02  5.607477722E+02  0.000000000E+00  0.00000E+00  9.000E+00
      21    -1     0     0   501   511  0.000000000E+00  0.000000000E+00 -7.772670784E+02  7.772670784E+02  0.000000000E+00  0.00000E+00  9.000E+00
      25     1     1     2     0     0  4.147611288E+02 -1.765102709E+02  7.326418236E+01  4.734715516E+02  1.250000000E+02  0.00000E+00  9.000E+00
      25     1     1     2     0     0 -4.532538298E+02  1.615949854E+02  7.028818828E+01  5.021129384E+02  1.250000000E+02  0.00000E+00  9.000E+00
      21     1     1     2   502   511  3.849270093E+01  1.491528558E+01 -3.600716769E+02  3.624303606E+02  3.814697266E-06  0.00000E+00  9.000E+00
#rwgt            1           1   2.8327400442879427E-002           8       20454           0
</event>
<event>
      5   9999  3.19816E-02  8.43830E+01 -1.00000E+00  1.27238E-01
      21    -1     0     0   502   501  0.000000000E+00  0.000000000E+00  1.291937530E+03  1.291937530E+03  0.000000000E+00  0.00000E+00  9.000E+00
       3    -1     0     0   501     0  0.000000000E+00  0.000000000E+00 -9.756663195E+02  9.756663195E+02  0.000000000E+00  0.00000E+00  9.000E+00
      25     1     1     2     0     0  3.047239358E+02  3.944743697E+02  2.879353263E+02  5.890657498E+02  1.250000000E+02  0.00000E+00  9.000E+00
      25     1     1     2     0     0 -2.473672889E+02 -3.325816984E+02  7.960728326E+02  9.061777511E+02  1.250000000E+02  0.00000E+00  9.000E+00
       3     1     1     2   502     0 -5.735664688E+01 -6.189267136E+01 -7.677369479E+02  7.723603491E+02  1.078959322E-05  0.00000E+00  9.000E+00
#rwgt            1           1   2.8425641813177579E-002           8       20623           0
</event>
<event>
      5   9999  3.19816E-02  3.78997E+02 -1.00000E+00  1.02395E-01
       2    -1     0     0   502     0  0.000000000E+00  0.000000000E+00  1.272460158E+03  1.272460158E+03  0.000000000E+00  0.00000E+00  9.000E+00
      21    -1     0     0   501   502  0.000000000E+00  0.000000000E+00 -2.200815466E+02  2.200815466E+02  0.000000000E+00  0.00000E+00  9.000E+00
      25     1     1     2     0     0  1.454094258E+02 -1.222983776E+02 -2.751461200E+01  2.290913533E+02  1.250000000E+02  0.00000E+00  9.000E+00
      25     1     1     2     0     0 -1.342163953E+01 -2.329732780E+02  3.285634553E+02  4.219426890E+02  1.250000000E+02  0.00000E+00  9.000E+00
       2     1     1     2   501     0 -1.319877863E+02  3.552716556E+02  7.513297679E+02  8.415076620E+02  0.000000000E+00  0.00000E+00  9.000E+00
#rwgt            2          18   1.5124184334344560E-003           8       20723           0
</event>
<event>
      5   9999  3.19816E-02  7.09836E+00 -1.00000E+00  2.14701E-01
      21    -1     0     0   511   501  0.000000000E+00  0.000000000E+00  1.416240519E+02  1.416240519E+02  0.000000000E+00  0.00000E+00  9.000E+00
      21    -1     0     0   501   502  0.000000000E+00  0.000000000E+00 -2.313340599E+02  2.313340599E+02  0.000000000E+00  0.00000E+00  9.000E+00
      25     1     1     2     0     0  7.415684515E+01  4.566203376E+01  2.622791600E+00  1.523684286E+02  1.250000000E+02  0.00000E+00  9.000E+00
      25     1     1     2     0     0 -7.109825578E+01 -3.925643193E+01 -1.204134472E+02  1.916257490E+02  1.250000000E+02  0.00000E+00  9.000E+00
      21     1     1     2   511   502 -3.058589372E+00 -6.405601824E+00  2.808064768E+01  2.896393408E+01  5.840038640E-07  0.00000E+00  9.000E+00
#rwgt            1           1   2.5193772905041302E-002           8       20757           0
</event>
<event>
      5   9999  3.19816E-02  8.90957E+01 -1.00000E+00  1.26126E-01
      21    -1     0     0   502   501  0.000000000E+00  0.000000000E+00  2.556873584E+02  2.556873584E+02  0.000000000E+00  0.00000E+00  9.000E+00
      21    -1     0     0   512   502  0.000000000E+00  0.000000000E+00 -3.977043194E+02  3.977043194E+02  0.000000000E+00  0.00000E+00  9.000E+00
      25     1     1     2     0     0  3.776144509E+01  2.922049449E+01 -3.501981380E+01  1.383154055E+02  1.250000000E+02  0.00000E+00  9.000E+00
      25     1     1     2     0     0 -5.785196677E+01 -1.160214936E+02  1.554599448E+02  2.379088722E+02  1.250000000E+02  0.00000E+00  9.000E+00
      21     1     1     2   512   501  2.009052168E+01  8.680099909E+01 -2.624570920E+02  2.771674001E+02  5.394796609E-06  0.00000E+00  9.000E+00
#rwgt            2          11   2.1394427018423105E-003           8       20995           0
</event>
<event>
      5   9999  3.19816E-02  7.47094E+01 -1.00000E+00  1.29804E-01
       2    -1     0     0   502     0  0.000000000E+00  0.000000000E+00  2.856867416E+03  2.856867416E+03  0.000000000E+00  0.00000E+00  9.000E+00
      21    -1     0     0   501   502  0.000000000E+00  0.000000000E+00 -7.099673075E+01  7.099673075E+01  0.000000000E+00  0.00000E+00  9.000E+00
      25     1     1     2     0     0  1.253777638E+02  1.894661974E+02  8.872644559E+02  9.243810028E+02  1.250000000E+02  0.00000E+00  9.000E+00
      25     1     1     2     0     0 -1.762836759E+02 -2.441478969E+02  4.649405923E+02  5.678722429E+02  1.250000000E+02  0.00000E+00  9.000E+00
       2     1     1     2   501     0  5.090591218E+01  5.468169949E+01  1.433665637E+03  1.435610901E+03  1.525878906E-05  0.00000E+00  9.000E+00
#rwgt            1           1   3.2889091375312970E-002           8       21015           0
</event>
<event>
      5   9999  3.19816E-02  1.18692E+01 -1.00000E+00  1.87530E-01
      21    -1     0     0   511   501  0.000000000E+00  0.000000000E+00  6.952729358E+02  6.952729358E+02  0.000000000E+00  0.00000E+00  9.000E+00
      21    -1     0     0   501   502  0.000000000E+00  0.000000000E+00 -3.187862410E+02  3.187862410E+02  0.000000000E+00  0.00000E+00  9.000E+00
      25     1     1     2     0     0  4.451544146E+02 -3.930941353E+00  1.715849483E+02  4.931980328E+02  1.250000000E+02  0.00000E+00  9.000E+00
      25     1     1     2     0     0 -4.350783133E+02  1.020389565E+01  1.694279103E+02  4.834543153E+02  1.250000000E+02  0.00000E+00  9.000E+00
      21     1     1     2   511   502 -1.007610124E+01 -6.272954297E+00  3.547383623E+01  3.740682863E+01  0.000000000E+00  0.00000E+00  9.000E+00
#rwgt            1           1   2.6541891673350193E-002           8       21125           0
</event>
<event>
      5   9999  3.19816E-02  1.74468E+02 -1.00000E+00  1.13851E-01
      21    -1     0     0   512   501  0.000000000E+00  0.000000000E+00  6.386408515E+02  6.386408515E+02  0.000000000E+00  0.00000E+00  9.000E+00
      21    -1     0     0   501   502  0.000000000E+00  0.000000000E+00 -5.514114732E+02  5.514114732E+02  0.000000000E+00  0.00000E+00  9.000E+00
      25     1     1     2     0     0  2.271056252E+02  4.294724162E+02 -1.398274491E+02  5.207688900E+02  1.250000000E+02  0.00000E+00  9.000E+00
      25     1     1     2     0     0 -5.264661698E+01 -4.312832439E+02  1.339953573E+02  4.715470904E+02  1.250000000E+02  0.00000E+00  9.000E+00
      21     1     1     2   512   502 -1.744590082E+02  1.810827669E+00  9.306147009E+01  1.977363443E+02  3.814697266E-06  0.00000E+00  9.000E+00
#rwgt            1           1   2.9001111609214453E-002           8       21360           0
</event>
<event>
      5   9999  3.19816E-02  1.05392E+02 -1.00000E+00  1.22811E-01
      21    -1     0     0   502   511  0.000000000E+00  0.000000000E+00  1.171530550E+03  1.171530550E+03  0.000000000E+00  0.00000E+00  9.000E+00
      21    -1     0     0   501   502  0.000000000E+00  0.000000000E+00 -6.448930874E+02  6.448930874E+02  0.000000000E+00  0.00000E+00  9.000E+00
      25     1     1     2     0     0  2.170590525E+02 -7.048002710E+02  5.893471600E+02  9.522673623E+02  1.250000000E+02  0.00000E+00  9.000E+00
      25     1     1     2     0     0 -1.116671109E+02  7.048703412E+02 -1.341409585E+02  7.368382036E+02  1.250000000E+02  0.00000E+00  9.000E+00
      21     1     1     2   501   511 -1.053919415E+02 -7.007018738E-02  7.143126080E+01  1.273180712E+02  9.536743164E-07  0.00000E+00  9.000E+00
#rwgt            1           1   2.9955310961264966E-002           8       21437           0
</event>
<event>
      5   9999  3.19816E-02  4.60105E+01 -1.00000E+00  1.41168E-01
      21    -1     0     0   502   501  0.000000000E+00  0.000000000E+00  8.380122449E+02  8.380122449E+02  0.000000000E+00  0.00000E+00  9.000E+00
      21    -1     0     0   512   502  0.000000000E+00  0.000000000E+00 -6.298550072E+02  6.298550072E+02  0.000000000E+00  0.00000E+00  9.000E+00
      25     1     1     2     0     0  3.510359984E+01 -7.025764051E+02  1.183524492E+02  7.242086508E+02  1.250000000E+02  0.00000E+00  9.000E+00
      25     1     1     2     0     0  4.538237323E+00  6.792206479E+02  9.581719157E+01  6.972569242E+02  1.250000000E+02  0.00000E+00  9.000E+00
      21     1     1     2   512   501 -3.964183716E+01  2.335575716E+01 -6.012403026E+00  4.640167708E+01  5.778884718E-07  0.00000E+00  9.000E+00
#rwgt            1           1   2.9892107410975418E-002           8       21550           0
</event>
<event>
      5   9999  3.19816E-02  7.82973E+01 -1.00000E+00  1.28803E-01
      21    -1     0     0   511   501  0.000000000E+00  0.000000000E+00  4.006246826E+02  4.006246826E+02  0.000000000E+00  0.00000E+00  9.000E+00
      21    -1     0     0   501   502  0.000000000E+00  0.000000000E+00 -2.522433768E+02  2.522433768E+02  0.000000000E+00  0.00000E+00  9.000E+00
      25     1     1     2     0     0  6.203422459E+01  1.772026754E+02 -5.011954545E+01  2.310541106E+02  1.250000000E+02  0.00000E+00  9.000E+00
      25     1     1     2     0     0 -9.242287222E+01 -2.493622408E+02  1.592514912E+02  3.342297890E+02  1.250000000E+02  0.00000E+00  9.000E+00
      21     1     1     2   511   502  3.038864764E+01  7.215956540E+01  3.924936000E+01  8.758415977E+01  1.066240300E-06  0.00000E+00  9.000E+00
#rwgt            2          11   2.7848034118425958E-003           8       21765           0
</event>
<event>
      5   9999  3.19816E-02  3.56286E+01 -1.00000E+00  1.48028E-01
      21    -1     0     0   502   501  0.000000000E+00  0.000000000E+00  3.071089785E+03  3.071089785E+03  0.000000000E+00  0.00000E+00  9.000E+00
      21    -1     0     0   512   502  0.000000000E+00  0.000000000E+00 -5.376061736E+01  5.376061736E+01  0.000000000E+00  0.00000E+00  9.000E+00
      25     1     1     2     0     0 -1.364246448E+02  2.293617258E+02  2.322904474E+03  2.341522727E+03  1.250000000E+02  0.00000E+00  9.000E+00
      25     1     1     2     0     0  1.440288718E+02 -2.641694242E+02  6.419745009E+02  7.199208710E+02  1.250000000E+02  0.00000E+00  9.000E+00
      21     1     1     2   512   501 -7.604226958E+00  3.480769844E+01  5.245019218E+01  6.340680404E+01  0.000000000E+00  0.00000E+00  9.000E+00
#rwgt            1           1   3.6320715419043303E-002           8       21800           0
</event>
<event>
      5   9999  3.19816E-02  8.35216E+01 -1.00000E+00  1.27450E-01
      21    -1     0     0   511   501  0.000000000E+00  0.000000000E+00  6.905150069E+02  6.905150069E+02  0.000000000E+00  0.00000E+00  9.000E+00
      21    -1     0     0   501   502  0.000000000E+00  0.000000000E+00 -3.087635817E+02  3.087635817E+02  0.000000000E+00  0.00000E+00  9.000E+00
      25     1     1     2     0     0  3.870334532E+01  4.950810413E+01  3.697726054E+02  3.953552592E+02  1.250000000E+02  0.00000E+00  9.000E+00
      25     1     1     2     0     0  4.179536091E+01 -2.724128636E+01 -2.743915341E+02  3.056217496E+02  1.250000000E+02  0.00000E+00  9.000E+00
      21     1     1     2   511   502 -8.049870622E+01 -2.226681777E+01  2.863703539E+02  2.983015797E+02  0.000000000E+00  0.00000E+00  9.000E+00
#rwgt            1           1   2.9373834463767918E-002           8       21915           0
</event>
<event>
      5   9999  3.19816E-02  2.36471E+01 -1.00000E+00  1.60582E-01
      21    -1     0     0   502   512  0.000000000E+00  0.000000000E+00  1.641676094E+02  1.641676094E+02  0.000000000E+00  0.00000E+00  9.000E+00
      21    -1     0     0   501   502  0.000000000E+00  0.000000000E+00 -1.160326250E+03  1.160326250E+03  0.000000000E+00  0.00000E+00  9.000E+00
      25     1     1     2     0     0  1.010679983E+01  2.035152299E+02 -9.274089566E+02  9.577228038E+02  1.250000000E+02  0.00000E+00  9.000E+00
      25     1     1     2     0     0  1.313371830E+00 -1.828085782E+02 -1.595446382E+02  2.729472344E+02  1.250000000E+02  0.00000E+00  9.000E+00
      21     1     1     2   501   512 -1.142017166E+01 -2.070665169E+01  9.079495412E+01  9.382382127E+01  3.015782986E-06  0.00000E+00  9.000E+00
#rwgt            1           1   2.7210903574056314E-002           8       21991           0
</event>
<event>
      5   9999  3.19816E-02  1.40514E+02 -1.00000E+00  1.17529E-01
       2    -1     0     0   502     0  0.000000000E+00  0.000000000E+00  3.355098774E+03  3.355098774E+03  0.000000000E+00  0.00000E+00  9.000E+00
      21    -1     0     0   501   502  0.000000000E+00  0.000000000E+00 -3.254802481E+02  3.254802481E+02  0.000000000E+00  0.00000E+00  9.000E+00
      25     1     1     2     0     0 -1.334365913E+02  3.483441740E+02 -3.654825302E+01  3.951072794E+02  1.250000000E+02  0.00000E+00  9.000E+00
      25     1     1     2     0     0  2.418957766E+02 -4.376798806E+02  5.089051923E+02  7.243526346E+02  1.250000000E+02  0.00000E+00  9.000E+00
       2     1     1     2   501     0 -1.084591853E+02  8.933570659E+01  2.557261587E+03  2.561119108E+03  3.051757812E-05  0.00000E+00  9.000E+00
#rwgt            1           1   2.9032894779312507E-002           8       22127           0
</event>
<event>
      5   9999  3.19816E-02  8.07104E+01 -1.00000E+00  1.28164E-01
      21    -1     0     0   502   511  0.000000000E+00  0.000000000E+00  1.715208949E+02  1.715208949E+02  0.000000000E+00  0.00000E+00  9.000E+00
      21    -1     0     0   501   502  0.000000000E+00  0.000000000E+00 -9.938495560E+02  9.938495560E+02  0.000000000E+00  0.00000E+00  9.000E+00
      25     1     1     2     0     0 -1.252350168E+02  1.602305241E+02 -5.173630746E+02  5.697781860E+02  1.250000000E+02  0.00000E+00  9.000E+00
      25     1     1     2     0     0  1.836997325E+02 -2.158726228E+02 -3.766213728E+02  4.876630388E+02  1.250000000E+02  0.00000E+00  9.000E+00
      21     1     1     2   501   511 -5.846471577E+01  5.564209870E+01  7.165578626E+01  1.079292261E+02  9.536743164E-07  0.00000E+00  9.000E+00
#rwgt            1           1   3.4703122126903060E-002           8       22269           0
</event>
<event>
      5   9999  3.19816E-02  4.49832E+01 -1.00000E+00  1.41747E-01
      21    -1     0     0   512   501  0.000000000E+00  0.000000000E+00  2.199892394E+02  2.199892394E+02  0.000000000E+00  0.00000E+00  9.000E+00
      21    -1     0     0   501   502  0.000000000E+00  0.000000000E+00 -1.647735939E+02  1.647735939E+02  0.000000000E+00  0.00000E+00  9.000E+00
      25     1     1     2     0     0 -6.419354583E+01  5.010450063E+01 -6.123374498E+01  1.612632749E+02  1.250000000E+02  0.00000E+00  9.000E+00
      25     1     1     2     0     0  2.249127860E+01 -6.696901152E+01  1.024611086E+02  1.763915670E+02  1.250000000E+02  0.00000E+00  9.000E+00
      21     1     1     2   512   502  4.170226724E+01  1.686451089E+01  1.398828181E+01  4.710799134E+01  2.920019320E-07  0.00000E+00  9.000E+00
#rwgt            1           1   2.4981187721906630E-002           8       22317           0
</event>
<event>
      5   9999  3.19816E-02  6.31556E+01 -1.00000E+00  1.33525E-01
      21    -1     0     0   511   501  0.000000000E+00  0.000000000E+00  5.040448957E+02  5.040448957E+02  0.000000000E+00  0.00000E+00  9.000E+00
      21    -1     0     0   501   502  0.000000000E+00  0.000000000E+00 -1.157976625E+02  1.157976625E+02  0.000000000E+00  0.00000E+00  9.000E+00
      25     1     1     2     0     0 -4.908294987E+00  1.295161326E+02  1.408017962E+02  2.285796705E+02  1.250000000E+02  0.00000E+00  9.000E+00
      25     1     1     2     0     0 -5.246537835E+01 -1.559148690E+02  9.729540377E+01  2.283713158E+02  1.250000000E+02  0.00000E+00  9.000E+00
      21     1     1     2   511   502  5.737367334E+01  2.639873644E+01  1.501500333E+02  1.628915718E+02  1.907348633E-06  0.00000E+00  9.000E+00
#rwgt            1           1   2.8805316363741271E-002           8       22410           0
</event>
<event>
      5   9999  3.19816E-02  1.59742E+02 -1.00000E+00  1.15321E-01
      21    -1     0     0   502   501  0.000000000E+00  0.000000000E+00  1.149338354E+03  1.149338354E+03  0.000000000E+00  0.00000E+00  9.000E+00
      21    -1     0     0   512   502  0.000000000E+00  0.000000000E+00 -3.338471683E+02  3.338471683E+02  0.000000000E+00  0.00000E+00  9.000E+00
      25     1     1     2     0     0  2.669149825E+02  2.337729898E+02 -8.108259366E+01  3.848282807E+02  1.250000000E+02  0.00000E+00  9.000E+00
      25     1     1     2     0     0 -1.721562927E+02 -3.623741164E+02  8.195850463E+02  9.210306387E+02  1.250000000E+02  0.00000E+00  9.000E+00
      21     1     1     2   512   501 -9.475868974E+01  1.286011266E+02  7.698873294E+01  1.773266027E+02  2.336015456E-06  0.00000E+00  9.000E+00
#rwgt            1           1   2.4401336289074590E-002           8       22536           0
</event>
<event>
      5   9999  3.19816E-02  4.45458E+01 -1.00000E+00  1.41999E-01
      21    -1     0     0   502   501  0.000000000E+00  0.000000000E+00  1.234560366E+03  1.234560366E+03  0.000000000E+00  0.00000E+00  9.000E+00
      21    -1     0     0   501   511  0.000000000E+00  0.000000000E+00 -1.268449734E+02  1.268449734E+02  0.000000000E+00  0.00000E+00  9.000E+00
      25     1     1     2     0     0  2.928707587E+02 -1.209775535E+02  4.948898618E+02  6.007909995E+02  1.250000000E+02  0.00000E+00  9.000E+00
      25     1     1     2     0     0 -3.318058833E+02  9.933535006E+01  6.141169947E+02  7.160498161E+02  1.250000000E+02  0.00000E+00  9.000E+00
      21     1     1     2   502   511  3.893512454E+01  2.164220347E+01 -1.291463934E+00  4.456452370E+01  8.454357357E-07  0.00000E+00  9.000E+00
#rwgt            1           1   2.7622023375045848E-002           8       22589           0
</event>
<event>
      5   9999  3.19816E-02  2.36578E+01 -1.00000E+00  1.60567E-01
      21    -1     0     0   512   501  0.000000000E+00  0.000000000E+00  8.045061183E+01  8.045061183E+01  0.000000000E+00  0.00000E+00  9.000E+00
      21    -1     0     0   501   502  0.000000000E+00  0.000000000E+00 -7.611064958E+02  7.611064958E+02  0.000000000E+00  0.00000E+00  9.000E+00
      25     1     1     2     0     0  1.358139809E+02 -1.178078515E+02 -4.115061292E+02  4.661399164E+02  1.250000000E+02  0.00000E+00  9.000E+00
      25     1     1     2     0     0 -1.444228623E+02  1.398436583E+02 -2.545691887E+02  3.476272195E+02  1.250000000E+02  0.00000E+00  9.000E+00
      21     1     1     2   512   502  8.608881428E+00 -2.203580678E+01 -1.458056608E+01  2.778997170E+01  2.384185791E-07  0.00000E+00  9.000E+00
#rwgt            1           1   2.8966172961071516E-002           8       22677           0
</event>
<event>
      5   9999  3.19816E-02  3.40968E+01 -1.00000E+00  1.49276E-01
      21    -1     0     0   502   511  0.000000000E+00  0.000000000E+00  1.373125326E+02  1.373125326E+02  0.000000000E+00  0.00000E+00  9.000E+00
      21    -1     0     0   501   502  0.000000000E+00  0.000000000E+00 -1.646346865E+03  1.646346865E+03  0.000000000E+00  0.00000E+00  9.000E+00
      25     1     1     2     0     0  1.292434416E+02 -1.243105230E+02 -2.372100889E+01  2.198741904E+02  1.250000000E+02  0.00000E+00  9.000E+00
      25     1     1     2     0     0 -9.542781842E+01  1.286806709E+02 -1.508774619E+03  1.522396478E+03  1.250000000E+02  0.00000E+00  9.000E+00
      21     1     1     2   501   511 -3.381562317E+01 -4.370147904E+00  2.346129549E+01  4.138872973E+01  1.168007728E-06  0.00000E+00  9.000E+00
#rwgt            1           1   3.0820061106548387E-002           8       22810           0
</event>
<event>
      5   9999  3.19816E-02  3.49144E+02 -1.00000E+00  1.03495E-01
       3    -1     0     0   502     0  0.000000000E+00  0.000000000E+00  1.049318460E+03  1.049318460E+03  0.000000000E+00  0.00000E+00  9.000E+00
      21    -1     0     0   501   502  0.000000000E+00  0.000000000E+00 -5.271079962E+02  5.271079962E+02  0.000000000E+00  0.00000E+00  9.000E+00
      25     1     1     2     0     0  2.624322165E+02  2.007037652E+02 -3.463280932E+02  4.946926497E+02  1.250000000E+02  0.00000E+00  9.000E+00
      25     1     1     2     0     0  8.079288279E+01 -1.366871526E+02  7.635628704E+01  2.160234945E+02  1.250000000E+02  0.00000E+00  9.000E+00
       3     1     1     2   501     0 -3.432250992E+02 -6.401661261E+01  7.921822697E+02  8.657103117E+02  0.000000000E+00  0.00000E+00  9.000E+00
#rwgt            1           1   2.7536145502441847E-002           8       23041           0
</event>
<event>
      5   9999  3.19816E-02  7.22073E+01 -1.00000E+00  1.30541E-01
      21    -1     0     0   502   511  0.000000000E+00  0.000000000E+00  1.564222148E+03  1.564222148E+03  0.000000000E+00  0.00000E+00  9.000E+00
      21    -1     0     0   501   502  0.000000000E+00  0.000000000E+00 -3.144333461E+01  3.144333461E+01  0.000000000E+00  0.00000E+00  9.000E+00
      25     1     1     2     0     0 -1.049400112E+02  7.090029199E+01  9.764488628E+02  9.925304222E+02  1.250000000E+02  0.00000E+00  9.000E+00
      25     1     1     2     0     0  3.364721717E+01 -8.235589185E+01  3.017845371E+02  3.385462081E+02  1.250000000E+02  0.00000E+00  9.000E+00
      21     1     1     2   501   511  7.129279408E+01  1.145559986E+01  2.545454133E+02  2.645888522E+02  3.814697266E-06  0.00000E+00  9.000E+00
#rwgt            1           1   3.8109146040626901E-002           8       23078           0
</event>
<event>
      5   9999  3.19816E-02  1.94728E+01 -1.00000E+00  1.67332E-01
      21    -1     0     0   512   501  0.000000000E+00  0.000000000E+00  2.090709699E+02  2.090709699E+02  0.000000000E+00  0.00000E+00  9.000E+00
      21    -1     0     0   501   502  0.000000000E+00  0.000000000E+00 -7.765306401E+02  7.765306401E+02  0.000000000E+00  0.00000E+00  9.000E+00
      25     1     1     2     0     0  3.669224607E+01  1.265323455E+01  1.666700855E+02  2.119206046E+02  1.250000000E+02  0.00000E+00  9.000E+00
      25     1     1     2     0     0 -3.373715098E+01  6.594019212E+00 -7.415839205E+02  7.528302515E+02  1.250000000E+02  0.00000E+00  9.000E+00
      21     1     1     2   512   502 -2.955095090E+00 -1.924725376E+01  7.454164767E+00  2.085075387E+01  3.475518164E-07  0.00000E+00  9.000E+00
#rwgt            1           1   3.1029313898558390E-002           8       23110           0
</event>
<event>
      5   9999  3.19816E-02  3.05206E+01 -1.00000E+00  1.52523E-01
      21    -1     0     0   502   501  0.000000000E+00  0.000000000E+00  1.742557663E+02  1.742557663E+02  0.000000000E+00  0.00000E+00  9.000E+00
      21    -1     0     0   501   511  0.000000000E+00  0.000000000E+00 -4.166878600E+02  4.166878600E+02  0.000000000E+00  0.00000E+00  9.000E+00
      25     1     1     2     0     0 -1.344384114E+01  6.726747837E+01  1.180663405E+02  1.851224224E+02  1.250000000E+02  0.00000E+00  9.000E+00
      25     1     1     2     0     0 -4.521966372E+00 -9.194012499E+01 -3.126408832E+02  3.490598181E+02  1.250000000E+02  0.00000E+00  9.000E+00
      21     1     1     2   502   511  1.796580751E+01  2.467264663E+01 -4.785755096E+01  5.676138578E+01  0.000000000E+00  0.00000E+00  9.000E+00
#rwgt            1           1   2.5860727734502213E-002           8       23298           0
</event>
<event>
      5   9999  3.19816E-02  4.42877E+02 -1.00000E+00  1.00372E-01
      21    -1     0     0   502   501  0.000000000E+00  0.000000000E+00  2.225315277E+03  2.225315277E+03  0.000000000E+00  0.00000E+00  9.000E+00
      21    -1     0     0   501   512  0.000000000E+00  0.000000000E+00 -1.976376679E+02  1.976376679E+02  0.000000000E+00  0.00000E+00  9.000E+00
      25     1     1     2     0     0 -3.461400671E+01 -3.630683076E+01  1.038769283E+03  1.047465006E+03  1.250000000E+02  0.00000E+00  9.000E+00
      25     1     1     2     0     0  1.474095363E+02  4.645796235E+02  4.263419115E+02  6.595121101E+02  1.250000000E+02  0.00000E+00  9.000E+00
      21     1     1     2   502   512 -1.127955296E+02 -4.282727927E+02  5.625664147E+02  7.159758288E+02  7.629394531E-06  0.00000E+00  9.000E+00
#rwgt            2          11   1.8311547760684998E-003           8       23577           0
</event>
<event>
      5   9999  3.19816E-02  6.60717E+00 -1.00000E+00  2.19161E-01
      21    -1     0     0   502   511  0.000000000E+00  0.000000000E+00  2.879336946E+01  2.879336946E+01  0.000000000E+00  0.00000E+00  9.000E+00
      21    -1     0     0   501   502  0.000000000E+00  0.000000000E+00 -2.386408819E+03  2.386408819E+03  0.000000000E+00  0.00000E+00  9.000E+00
      25     1     1     2     0     0 -3.697831993E+01 -1.318398712E+02 -4.089130893E+02  4.489811382E+02  1.250000000E+02  0.00000E+00  9.000E+00
      25     1     1     2     0     0  3.733660111E+01  1.252424262E+02 -1.950895398E+03  1.959259437E+03  1.250000000E+02  0.00000E+00  9.000E+00
      21     1     1     2   501   511 -3.582811767E-01  6.597445051E+00  2.193037801E+00  6.961613420E+00  2.874031890E-07  0.00000E+00  9.000E+00
#rwgt            1           1   7.1710166144031223E-002           8       23597           0
</event>
<event>
      5   9999  3.19816E-02  1.59708E+02 -1.00000E+00  1.15324E-01
      21    -1     0     0   502   501  0.000000000E+00  0.000000000E+00  9.487479782E+02  9.487479782E+02  0.000000000E+00  0.00000E+00  9.000E+00
      21    -1     0     0   501   512  0.000000000E+00  0.000000000E+00 -4.562194787E+02  4.562194787E+02  0.000000000E+00  0.00000E+00  9.000E+00
      25     1     1     2     0     0  3.256885868E+02 -6.009461477E+00  6.807577201E+02  7.649609419E+02  1.250000000E+02  0.00000E+00  9.000E+00
      25     1     1     2     0     0 -3.457696483E+02  1.644499294E+02 -2.439119335E+02  4.708698974E+02  1.250000000E+02  0.00000E+00  9.000E+00
      21     1     1     2   502   512  2.008106143E+01 -1.584404679E+02  5.568271294E+01  1.691366176E+02  4.211311753E-06  0.00000E+00  9.000E+00
#rwgt            1           1   2.4240244384562345E-002           8       23911           0
</event>
<event>
      5   9999  3.19816E-02  6.42894E+01 -1.00000E+00  1.33120E-01
      21    -1     0     0   502   511  0.000000000E+00  0.000000000E+00  5.473895156E+02  5.473895156E+02  0.000000000E+00  0.00000E+00  9.000E+00
      21    -1     0     0   501   502  0.000000000E+00  0.000000000E+00 -3.781212958E+02  3.781212958E+02  0.000000000E+00  0.00000E+00  9.000E+00
      25     1     1     2     0     0  1.920996567E+02 -2.911493836E+02 -6.880916355E+01  3.768686013E+02  1.250000000E+02  0.00000E+00  9.000E+00
      25     1     1     2     0     0 -2.096505597E+02  3.529967340E+02  1.959929310E+02  4.718032221E+02  1.250000000E+02  0.00000E+00  9.000E+00
      21     1     1     2   501   511  1.755090304E+01 -6.184735036E+01  4.208445235E+01  7.683898798E+01  1.651812370E-06  0.00000E+00  9.000E+00
#rwgt            1           1   2.8240901604190599E-002           8       24033           0
</event>
<event>
      5   9999  3.19816E-02  6.38468E+01 -1.00000E+00  1.33277E-01
      21    -1     0     0   512   501  0.000000000E+00  0.000000000E+00  1.770933402E+02  1.770933402E+02  0.000000000E+00  0.00000E+00  9.000E+00
      21    -1     0     0   501   502  0.000000000E+00  0.000000000E+00 -1.601291949E+03  1.601291949E+03  0.000000000E+00  0.00000E+00  9.000E+00
      25     1     1     2     0     0 -3.261887935E+02 -2.661271245E+02 -3.727266548E+02  5.759973391E+02  1.250000000E+02  0.00000E+00  9.000E+00
      25     1     1     2     0     0  3.433502758E+02  2.046299646E+02 -1.058325551E+03  1.138174331E+03  1.250000000E+02  0.00000E+00  9.000E+00
      21     1     1     2   512   502 -1.716148229E+01  6.149715990E+01  6.853597302E+00  6.421361963E+01  5.840038640E-07  0.00000E+00  9.000E+00
#rwgt            1           1   3.3218432353186715E-002           8       24155           0
</event>
<event>
      5   9999  3.19816E-02  4.38199E+01 -1.00000E+00  1.42426E-01
      21    -1     0     0   502   501  0.000000000E+00  0.000000000E+00  4.863950630E+02  4.863950630E+02  0.000000000E+00  0.00000E+00  9.000E+00
       2    -1     0     0   501     0  0.000000000E+00  0.000000000E+00 -1.289021693E+03  1.289021693E+03  0.000000000E+00  0.00000E+00  9.000E+00
      25     1     1     2     0     0  1.436828658E+02  1.269143699E+02  8.862669686E+01  2.454215040E+02  1.250000000E+02  0.00000E+00  9.000E+00
      25     1     1     2     0     0 -1.334450540E+02 -8.430717548E+01  2.871887542E+02  3.507387387E+02  1.250000000E+02  0.00000E+00  9.000E+00
       2     1     1     2   502     0 -1.023781182E+01 -4.260719446E+01 -1.178442081E+03  1.179256513E+03  1.525878906E-05  0.00000E+00  9.000E+00
#rwgt            1           1   2.9483119738400215E-002           8       24268           0
</event>
<event>
      5   9999  3.19816E-02  1.20487E+02 -1.00000E+00  1.20294E-01
      21    -1     0     0   502   511  0.000000000E+00  0.000000000E+00  6.326204838E+02  6.326204838E+02  0.000000000E+00  0.00000E+00  9.000E+00
      21    -1     0     0   501   502  0.000000000E+00  0.000000000E+00 -1.442973206E+03  1.442973206E+03  0.000000000E+00  0.00000E+00  9.000E+00
      25     1     1     2     0     0  3.038919491E+02  8.530530275E+02 -3.914450993E+02  9.944365491E+02  1.250000000E+02  0.00000E+00  9.000E+00
      25     1     1     2     0     0 -1.840566674E+02 -8.405363614E+02 -4.071708912E+02  9.600996648E+02  1.250000000E+02  0.00000E+00  9.000E+00
      21     1     1     2   501   511 -1.198352818E+02 -1.251666606E+01 -1.173673198E+01  1.210574763E+02  2.336015456E-06  0.00000E+00  9.000E+00
#rwgt            1           1   3.3356381140288084E-002           8       24407           0
</event>
<event>
      5   9999  3.19816E-02  1.01575E+02 -1.00000E+00  1.23523E-01
      21    -1     0     0   502   501  0.000000000E+00  0.000000000E+00  1.435746883E+03  1.435746883E+03  0.000000000E+00  0.00000E+00  9.000E+00
      21    -1     0     0   501   512  0.000000000E+00  0.000000000E+00 -1.760880199E+02  1.760880199E+02  0.000000000E+00  0.00000E+00  9.000E+00
      25     1     1     2     0     0 -3.867669589E+01  2.391672731E+02  5.088663523E+02  5.772926778E+02  1.250000000E+02  0.00000E+00  9.000E+00
      25     1     1     2     0     0  5.633716279E+01 -1.391390703E+02  8.620416536E+02  8.838972617E+02  1.250000000E+02  0.00000E+00  9.000E+00
      21     1     1     2   502   512 -1.766046690E+01 -1.000282028E+02 -1.112491424E+02  1.506449638E+02  3.568322551E-06  0.00000E+00  9.000E+00
#rwgt            2          11   8.1314183576634731E-003           8       24519           0
</event>
<event>
      5   9999  3.19816E-02  3.11447E+01 -1.00000E+00  1.51919E-01
      21    -1     0     0   502   501  0.000000000E+00  0.000000000E+00  9.251363897E+02  9.251363897E+02  0.000000000E+00  0.00000E+00  9.000E+00
      21    -1     0     0   501   511  0.000000000E+00  0.000000000E+00 -1.824086691E+02  1.824086691E+02  0.000000000E+00  0.00000E+00  9.000E+00
      25     1     1     2     0     0 -2.736870606E+02 -5.312740665E+01  1.195606048E+02  3.280958194E+02  1.250000000E+02  0.00000E+00  9.000E+00
      25     1     1     2     0     0  3.034590222E+02  6.227193140E+01  6.547814326E+02  7.350706742E+02  1.250000000E+02  0.00000E+00  9.000E+00
      21     1     1     2   502   511 -2.977196160E+01 -9.144524758E+00 -3.161431678E+01  4.437856528E+01  7.539457465E-07  0.00000E+00  9.000E+00
#rwgt            1           1   2.8057438091523623E-002           8       24554           0
</event>
<event>
      5   9999  3.19816E-02  6.24014E+01 -1.00000E+00  1.33799E-01
      21    -1     0     0   502   501  0.000000000E+00  0.000000000E+00  1.372343173E+02  1.372343173E+02  0.000000000E+00  0.00000E+00  9.000E+00
      -1    -1     0     0     0   502  0.000000000E+00  0.000000000E+00 -1.922882844E+03  1.922882844E+03  0.000000000E+00  0.00000E+00  9.000E+00
      25     1     1     2     0     0  1.483691796E+02  1.055046431E+02  8.202396486E+00  2.209907747E+02  1.250000000E+02  0.00000E+00  9.000E+00
      25     1     1     2     0     0 -2.076331038E+02 -8.596700221E+01 -7.395826233E+02  7.830129552E+02  1.250000000E+02  0.00000E+00  9.000E+00
      -1     1     1     2     0   501  5.926392416E+01 -1.953764092E+01 -1.054268300E+03  1.056113432E+03  2.157918644E-05  0.00000E+00  9.000E+00
#rwgt            1           1   3.0082378252344104E-002           8       24669           0
</event>
<event>
      5   9999  3.19816E-02  3.33887E+01 -1.00000E+00  1.49880E-01
      21    -1     0     0   511   501  0.000000000E+00  0.000000000E+00  2.601911145E+02  2.601911145E+02  0.000000000E+00  0.00000E+00  9.000E+00
      21    -1     0     0   501   502  0.000000000E+00  0.000000000E+00 -9.601178194E+02  9.601178194E+02  0.000000000E+00  0.00000E+00  9.000E+00
      25     1     1     2     0     0 -2.939683432E+02  3.015666401E+02 -8.163406540E+01  4.468209327E+02  1.250000000E+02  0.00000E+00  9.000E+00
      25     1     1     2     0     0  2.668539694E+02 -2.820828543E+02 -6.175166479E+02  7.400902568E+02  1.250000000E+02  0.00000E+00  9.000E+00
      21     1     1     2   511   502  2.711437375E+01 -1.948378579E+01 -7.759916543E-01  3.339774447E+01  4.422909641E-07  0.00000E+00  9.000E+00
#rwgt            1           1   2.8569610349003509E-002           8       24782           0
</event>
<event>
      5   9999  3.19816E-02  2.86815E+01 -1.00000E+00  1.54408E-01
      21    -1     0     0   502   512  0.000000000E+00  0.000000000E+00  1.470949688E+02  1.470949688E+02  0.000000000E+00  0.00000E+00  9.000E+00
      21    -1     0     0   501   502  0.000000000E+00  0.000000000E+00 -8.673196833E+02  8.673196833E+02  0.000000000E+00  0.00000E+00  9.000E+00
      25     1     1     2     0     0 -2.941143566E+02  7.586203205E+01 -3.814098752E+02  5.033456025E+02  1.250000000E+02  0.00000E+00  9.000E+00
      25     1     1     2     0     0  3.182964430E+02 -9.128456724E+01 -3.132832231E+02  4.726699438E+02  1.250000000E+02  0.00000E+00  9.000E+00
      21     1     1     2   501   512 -2.418208645E+01  1.542253519E+01 -2.553161629E+01  3.839910581E+01  3.371747881E-07  0.00000E+00  9.000E+00
#rwgt            1           1   2.8009564679054202E-002           8       24986           0
</event>
<event>
      5   9999  3.19816E-02  3.47109E+01 -1.00000E+00  1.48767E-01
      21    -1     0     0   511   501  0.000000000E+00  0.000000000E+00  9.966896483E+02  9.966896483E+02  0.000000000E+00  0.00000E+00  9.000E+00
      21    -1     0     0   501   502  0.000000000E+00  0.000000000E+00 -4.219840139E+01  4.219840139E+01  0.000000000E+00  0.00000E+00  9.000E+00
      25     1     1     2     0     0 -7.060939023E+01  5.923498554E+01  2.054878104E+02  2.575746683E+02  1.250000000E+02  0.00000E+00  9.000E+00
      25     1     1     2     0     0  8.813227647E+01 -8.919822913E+01  5.112802251E+02  5.410693955E+02  1.250000000E+02  0.00000E+00  9.000E+00
      21     1     1     2   511   502 -1.752288623E+01  2.996324359E+01  2.377232115E+02  2.402439859E+02  2.697398305E-06  0.00000E+00  9.000E+00
#rwgt            1           1   3.2388259861308596E-002           8       25181           0
</event>
<event>
      5   9999  3.19816E-02  2.40829E+02 -1.00000E+00  1.08788E-01
      21    -1     0     0   512   501  0.000000000E+00  0.000000000E+00  1.331656956E+02  1.331656956E+02  0.000000000E+00  0.00000E+00  9.000E+00
      21    -1     0     0   501   502  0.000000000E+00  0.000000000E+00 -2.051933811E+03  2.051933811E+03  0.000000000E+00  0.00000E+00  9.000E+00
      25     1     1     2     0     0  3.129519444E+02 -2.258993780E+02 -9.164749849E+02  1.002257874E+03  1.250000000E+02  0.00000E+00  9.000E+00
      25     1     1     2     0     0 -1.055667929E+02  3.483335835E+02 -6.662593272E+02  7.694199921E+02  1.250000000E+02  0.00000E+00  9.000E+00
      21     1     1     2   512   502 -2.073851515E+02 -1.224342055E+02 -3.360338037E+02  4.134216406E+02  3.814697266E-06  0.00000E+00  9.000E+00
#rwgt            1           1   2.9838528365741395E-002           8       25253           0
</event>
<event>
      5   9999  3.19816E-02  1.15649E+02 -1.00000E+00  1.21053E-01
      21    -1     0     0   511   501  0.000000000E+00  0.000000000E+00  2.926689846E+02  2.926689846E+02  0.000000000E+00  0.00000E+00  9.000E+00
      21    -1     0     0   501   502  0.000000000E+00  0.000000000E+00 -2.387394106E+03  2.387394106E+03  0.000000000E+00  0.00000E+00  9.000E+00
      25     1     1     2     0     0 -6.093869781E+02  3.638301576E+02 -1.223771842E+03  1.420199772E+03  1.250000000E+02  0.00000E+00  9.000E+00
      25     1     1     2     0     0  5.279400163E+02 -4.459340944E+02 -8.990695607E+02  1.140845718E+03  1.250000000E+02  0.00000E+00  9.000E+00
      21     1     1     2   511   502  8.144696187E+01  8.210393680E+01  2.811628063E+01  1.190176007E+02  1.994752947E-06  0.00000E+00  9.000E+00
#rwgt            1           1   2.8385992373717573E-002           8       25324           0
</event>
<event>
      5   9999  3.19816E-02  3.88215E+01 -1.00000E+00  1.45650E-01
      21    -1     0     0   502   512  0.000000000E+00  0.000000000E+00  1.709434945E+03  1.709434945E+03  0.000000000E+00  0.00000E+00  9.000E+00
      21    -1     0     0   501   502  0.000000000E+00  0.000000000E+00 -3.710032919E+02  3.710032919E+02  0.000000000E+00  0.00000E+00  9.000E+00
      25     1     1     2     0     0  6.622165311E+02 -1.639521507E+02  3.206160492E+02  7.640881447E+02  1.250000000E+02  0.00000E+00  9.000E+00
      25     1     1     2     0     0 -6.910703624E+02  1.899244910E+02  7.468639751E+02  1.042631457E+03  1.250000000E+02  0.00000E+00  9.000E+00
      21     1     1     2   501   512  2.885383124E+01 -2.597234021E+01  2.709516290E+02  2.737186353E+02  6.607249480E-06  0.00000E+00  9.000E+00
#rwgt            1           1   3.4302809258470207E-002           8       25440           0
</event>
<event>
      5   9999  3.19816E-02  3.33997E+01 -1.00000E+00  1.49871E-01
      21    -1     0     0   511   501  0.000000000E+00  0.000000000E+00  3.765571686E+02  3.765571686E+02  0.000000000E+00  0.00000E+00  9.000E+00
      21    -1     0     0   501   502  0.000000000E+00  0.000000000E+00 -2.189000481E+02  2.189000481E+02  0.000000000E+00  0.00000E+00  9.000E+00
      25     1     1     2     0     0 -8.387624309E+01 -1.380306324E+01  2.000845347E+02  2.507679599E+02  1.250000000E+02  0.00000E+00  9.000E+00
      25     1     1     2     0     0  8.580834703E+01  4.714681699E+01 -1.582338973E+02  2.241625772E+02  1.250000000E+02  0.00000E+00  9.000E+00
      21     1     1     2   511   502 -1.932103937E+00 -3.334375375E+01  1.158064832E+02  1.205266796E+02  1.348699152E-06  0.00000E+00  9.000E+00
#rwgt            1           1   2.9931967533092085E-002           8       25600           0
</event>
<event>
      5   9999  3.19816E-02  1.97319E+02 -1.00000E+00  1.11862E-01
      21    -1     0     0   512   501  0.000000000E+00  0.000000000E+00  1.979657767E+02  1.979657767E+02  0.000000000E+00  0.00000E+00  9.000E+00
      21    -1     0     0   501   502  0.000000000E+00  0.000000000E+00 -2.571093937E+03  2.571093937E+03  0.000000000E+00  0.00000E+00  9.000E+00
      25     1     1     2     0     0 -7.153367545E+00  6.747893765E+02 -1.387322457E+03  1.547798589E+03  1.250000000E+02  0.00000E+00  9.000E+00
      25     1     1     2     0     0  9.392378614E+01 -4.975723718E+02 -7.545749931E+02  9.172831422E+02  1.250000000E+02  0.00000E+00  9.000E+00
      21     1     1     2   512   502 -8.677041859E+01 -1.772170046E+02 -2.312307105E+02  3.039779823E+02  3.814697266E-06  0.00000E+00  9.000E+00
#rwgt            1           1   3.2158766513319698E-002           8       25752           0
</event>
<event>
      5   9999  3.19816E-02  7.04854E+01 -1.00000E+00  1.31069E-01
      21    -1     0     0   502   511  0.000000000E+00  0.000000000E+00  6.273100368E+02  6.273100368E+02  0.000000000E+00  0.00000E+00  9.000E+00
      21    -1     0     0   501   502  0.000000000E+00  0.000000000E+00 -2.338008618E+02  2.338008618E+02  0.000000000E+00  0.00000E+00  9.000E+00
      25     1     1     2     0     0 -5.515615328E+01 -3.256692958E+02  3.974355735E+01  3.553973014E+02  1.250000000E+02  0.00000E+00  9.000E+00
      25     1     1     2     0     0  6.117868783E+01  2.554416768E+02  2.839112754E+02  4.064774218E+02  1.250000000E+02  0.00000E+00  9.000E+00
      21     1     1     2   501   511 -6.022534547E+00  7.022761900E+01  6.985434217E+01  9.923617543E+01  0.000000000E+00  0.00000E+00  9.000E+00
#rwgt            1           1   2.7003923189364020E-002           8       25861           0
</event>
<event>
      5   9999  3.19816E-02  3.19840E+01 -1.00000E+00  1.51133E-01
      21    -1     0     0   502   501  0.000000000E+00  0.000000000E+00  2.034605911E+02  2.034605911E+02  0.000000000E+00  0.00000E+00  9.000E+00
       2    -1     0     0   501     0  0.000000000E+00  0.000000000E+00 -1.256688570E+03  1.256688570E+03  0.000000000E+00  0.00000E+00  9.000E+00
      25     1     1     2     0     0  2.366453194E+02  3.092072525E+01 -2.149012394E+02  3.446224617E+02  1.250000000E+02  0.00000E+00  9.000E+00
      25     1     1     2     0     0 -2.449947703E+02 -6.179569217E+01 -5.362269670E+00  2.819483977E+02  1.250000000E+02  0.00000E+00  9.000E+00
       2     1     1     2   502     0  8.349450876E+00  3.087496693E+01 -8.329644697E+02  8.335783015E+02  1.078959322E-05  0.00000E+00  9.000E+00
#rwgt            1           1   2.9501872202691917E-002           8       25917           0
</event>
<event>
      5   9999  3.19816E-02  3.38770E+01 -1.00000E+00  1.49462E-01
      21    -1     0     0   502   511  0.000000000E+00  0.000000000E+00  3.763288464E+02  3.763288464E+02  0.000000000E+00  0.00000E+00  9.000E+00
      21    -1     0     0   501   502  0.000000000E+00  0.000000000E+00 -2.417354218E+02  2.417354218E+02  0.000000000E+00  0.00000E+00  9.000E+00
      25     1     1     2     0     0 -1.643480587E+02  1.081576779E+00 -1.519470323E+02  2.563676166E+02  1.250000000E+02  0.00000E+00  9.000E+00
      25     1     1     2     0     0  1.315539574E+02  7.415442888E+00  2.078382473E+02  2.760129880E+02  1.250000000E+02  0.00000E+00  9.000E+00
      21     1     1     2   501   511  3.279410126E+01 -8.497019667E+00  7.870220955E+01  8.568366360E+01  1.348699152E-06  0.00000E+00  9.000E+00
#rwgt            1           1   2.7381619828899147E-002           8       26014           0
</event>
<event>
      5   9999  3.19816E-02  1.44538E+02 -1.00000E+00  1.17036E-01
      21    -1     0     0   512   501  0.000000000E+00  0.000000000E+00  5.019539763E+02  5.019539763E+02  0.000000000E+00  0.00000E+00  9.000E+00
      21    -1     0     0   501   502  0.000000000E+00  0.000000000E+00 -1.831616383E+03  1.831616383E+03  0.000000000E+00  0.00000E+00  9.000E+00
      25     1     1     2     0     0  1.231945521E+02  1.663526663E+02 -1.722018378E+03  1.738914145E+03  1.250000000E+02  0.00000E+00  9.000E+00
      25     1     1     2     0     0 -2.341252782E+01 -2.709224115E+02  2.960493834E+02  4.209718956E+02  1.250000000E+02  0.00000E+00  9.000E+00
      21     1     1     2   512   502 -9.978202430E+01  1.045697452E+02  9.630658777E+01  1.736843195E+02  2.697398305E-06  0.00000E+00  9.000E+00
#rwgt            1           1   2.8154436829024292E-002           8       26176           0
</event>
<event>
      5   9999  3.19816E-02  7.37220E+01 -1.00000E+00  1.30091E-01
      21    -1     0     0   502   511  0.000000000E+00  0.000000000E+00  1.976847043E+02  1.976847043E+02  0.000000000E+00  0.00000E+00  9.000E+00
      21    -1     0     0   501   502  0.000000000E+00  0.000000000E+00 -6.096819180E+02  6.096819180E+02  0.000000000E+00  0.00000E+00  9.000E+00
      25     1     1     2     0     0 -2.586229747E+02  1.268521785E+02 -3.517540077E+02  4.715222159E+02  1.250000000E+02  0.00000E+00  9.000E+00
      25     1     1     2     0     0  1.894256039E+02 -1.014227068E+02 -7.701214528E+01  2.602393041E+02  1.250000000E+02  0.00000E+00  9.000E+00
      21     1     1     2   501   511  6.919737082E+01 -2.542947170E+01  1.676893927E+01  7.560510223E+01  4.768371582E-07  0.00000E+00  9.000E+00
#rwgt            1           1   2.8169049890687539E-002           8       26288           0
</event>
<event>
      5   9999  3.19816E-02  6.84459E+01 -1.00000E+00  1.31716E-01
      21    -1     0     0   502   501  0.000000000E+00  0.000000000E+00  2.232747717E+02  2.232747717E+02  0.000000000E+00  0.00000E+00  9.000E+00
      21    -1     0     0   501   512  0.000000000E+00  0.000000000E+00 -6.923241384E+02  6.923241384E+02  0.000000000E+00  0.00000E+00  9.000E+00
      25     1     1     2     0     0 -9.688564494E+00  2.094682604E+02 -3.198754022E+02  4.023879885E+02  1.250000000E+02  0.00000E+00  9.000E+00
      25     1     1     2     0     0 -5.812035968E+01 -2.187844220E+02  8.266200128E+01  2.714822388E+02  1.250000000E+02  0.00000E+00  9.000E+00
      21     1     1     2   502   512  6.780892418E+01  9.316161642E+00 -2.318359657E+02  2.417286828E+02  0.000000000E+00  0.00000E+00  9.000E+00
#rwgt            1           1   2.4401137547880092E-002           8       26336           0
</event>
<event>
      5   9999  3.19816E-02  4.36483E+02  7.55638E-03  1.00558E-01
      -2    -1     0     0     0   501  0.000000000E+00  0.000000000E+00  4.971372771E+02  4.971372771E+02  0.000000000E+00  0.00000E+00  9.000E+00
       2    -1     0     0   502     0  0.000000000E+00  0.000000000E+00 -9.090568961E+02  9.090568961E+02  0.000000000E+00  0.00000E+00  9.000E+00
      25     1     1     2     0     0 -1.737093003E+00 -1.477964596E+02  2.738855499E+02  3.353879923E+02  1.250000000E+02  0.00000E+00  9.000E+00
      25     1     1     2     0     0 -1.506383994E+02 -2.612253977E+02 -1.022429677E+02  3.420661635E+02  1.250000000E+02  0.00000E+00  9.000E+00
      21     1     1     2   502   501  1.523754924E+02  4.090218572E+02 -5.835622012E+02  7.287400175E+02  7.629394531E-06  0.00000E+00  9.000E+00
#rwgt            3           4   2.5146136353908202E-005           8       26514           0
</event>
<event>
      5   9999  3.19816E-02  1.75037E+02 -1.00000E+00  1.13797E-01
      21    -1     0     0   511   501  0.000000000E+00  0.000000000E+00  4.035012362E+02  4.035012362E+02  0.000000000E+00  0.00000E+00  9.000E+00
      21    -1     0     0   501   502  0.000000000E+00  0.000000000E+00 -6.106889148E+02  6.106889148E+02  0.000000000E+00  0.00000E+00  9.000E+00
      25     1     1     2     0     0  1.499203911E+00  4.721298264E+01 -4.953418846E+02  5.130496038E+02  1.250000000E+02  0.00000E+00  9.000E+00
      25     1     1     2     0     0  1.616790144E+02 -1.105429000E+02  1.360400573E+02  2.692428896E+02  1.250000000E+02  0.00000E+00  9.000E+00
      21     1     1     2   511   502 -1.631782183E+02  6.332991737E+01  1.521141486E+02  2.318976575E+02  4.264961200E-06  0.00000E+00  9.000E+00
#rwgt            2          11   3.3925049852828065E-003           8       26818           0
</event>
<event>
      5   9999  3.19816E-02  1.36373E+02 -1.00000E+00  1.18057E-01
      21    -1     0     0   502   512  0.000000000E+00  0.000000000E+00  3.675362294E+02  3.675362294E+02  0.000000000E+00  0.00000E+00  9.000E+00
      21    -1     0     0   501   502  0.000000000E+00  0.000000000E+00 -1.003068023E+03  1.003068023E+03  0.000000000E+00  0.00000E+00  9.000E+00
      25     1     1     2     0     0  2.004683791E+02 -3.012431203E+01 -6.664676613E+02  7.077423180E+02  1.250000000E+02  0.00000E+00  9.000E+00
      25     1     1     2     0     0 -6.718372177E+01  1.266732008E+00 -2.852045217E+02  3.185622016E+02  1.250000000E+02  0.00000E+00  9.000E+00
      21     1     1     2   501   512 -1.332846574E+02  2.885758002E+01  3.161403897E+02  3.442997325E+02  3.814697266E-06  0.00000E+00  9.000E+00
#rwgt            1           1   3.3814873582041487E-002           8       26838           0
</event>
<event>
      5   9999  3.19816E-02  1.99395E+01 -1.00000E+00  1.66478E-01
      21    -1     0     0   502   511  0.000000000E+00  0.000000000E+00  1.150227822E+02  1.150227822E+02  0.000000000E+00  0.00000E+00  9.000E+00
      21    -1     0     0   501   502  0.000000000E+00  0.000000000E+00 -8.074449817E+02  8.074449817E+02  0.000000000E+00  0.00000E+00  9.000E+00
      25     1     1     2     0     0  1.587242758E+02  3.056493376E+01 -1.112211719E+02  2.326429883E+02  1.250000000E+02  0.00000E+00  9.000E+00
      25     1     1     2     0     0 -1.388129624E+02 -3.162389935E+01 -6.188610943E+02  6.472118383E+02  1.250000000E+02  0.00000E+00  9.000E+00
      21     1     1     2   501   511 -1.991131345E+01  1.058965583E+00  3.766006671E+01  4.261293742E+01  1.651812370E-06  0.00000E+00  9.000E+00
#rwgt            1           1   2.7249089318959783E-002           8       26874           0
</event>
<event>
      5   9999  3.19816E-02  3.84198E+01 -1.00000E+00  1.45934E-01
       3    -1     0     0   502     0  0.000000000E+00  0.000000000E+00  8.674267293E+02  8.674267293E+02  0.000000000E+00  0.00000E+00  9.000E+00
      21    -1     0     0   501   502  0.000000000E+00  0.000000000E+00 -2.504574732E+02  2.504574732E+02  0.000000000E+00  0.00000E+00  9.000E+00
      25     1     1     2     0     0  1.153665171E+02  1.024887922E+02  7.342723512E+01  2.117308307E+02  1.250000000E+02  0.00000E+00  9.000E+00
      25     1     1     2     0     0 -9.884302158E+01 -1.371738570E+02 -1.195993359E+02  2.419000023E+02  1.250000000E+02  0.00000E+00  9.000E+00
       3     1     1     2   501     0 -1.652349552E+01  3.468506476E+01  6.631413569E+02  6.642533695E+02  0.000000000E+00  0.00000E+00  9.000E+00
#rwgt            1           1   2.8791464728740203E-002           8       27023           0
</event>
<event>
      5   9999  3.19816E-02  2.17473E+01 -1.00000E+00  1.63423E-01
      21    -1     0     0   502   501  0.000000000E+00  0.000000000E+00  8.167143221E+01  8.167143221E+01  0.000000000E+00  0.00000E+00  9.000E+00
      21    -1     0     0   501   511  0.000000000E+00  0.000000000E+00 -1.416879894E+03  1.416879894E+03  0.000000000E+00  0.00000E+00  9.000E+00
      25     1     1     2     0     0 -2.565890442E+02  3.830511341E+01 -7.732832599E+02  8.251649650E+02  1.250000000E+02  0.00000E+00  9.000E+00
      25     1     1     2     0     0  2.750851568E+02 -2.686653937E+01 -3.620582722E+02  4.723397579E+02  1.250000000E+02  0.00000E+00  9.000E+00
      21     1     1     2   502   511 -1.849611255E+01 -1.143857404E+01 -1.998669300E+02  2.010466038E+02  2.697398305E-06  0.00000E+00  9.000E+00
#rwgt            1           1   2.6180562273422966E-002           8       27136           0
</event>
<event>
      5   9999  3.19816E-02  6.16850E+01 -1.00000E+00  1.34064E-01
      21    -1     0     0   502   512  0.000000000E+00  0.000000000E+00  1.944058129E+02  1.944058129E+02  0.000000000E+00  0.00000E+00  9.000E+00
      21    -1     0     0   501   502  0.000000000E+00  0.000000000E+00 -3.546689927E+03  3.546689927E+03  0.000000000E+00  0.00000E+00  9.000E+00
      25     1     1     2     0     0  7.850791542E+02  6.879885704E+00 -1.184867185E+03  1.426860840E+03  1.250000000E+02  0.00000E+00  9.000E+00
      25     1     1     2     0     0 -7.286229545E+02 -3.173430710E+01 -2.076218805E+03  2.204134297E+03  1.250000000E+02  0.00000E+00  9.000E+00
      21     1     1     2   501   512 -5.645619965E+01  2.485442140E+01 -9.119812482E+01  1.101006027E+02  1.348699152E-06  0.00000E+00  9.000E+00
#rwgt            1           1   4.5986494339973927E-002           8       27246           0
</event>
<event>
      5   9999  3.19816E-02  2.78859E+01 -1.00000E+00  1.55277E-01
      21    -1     0     0   511   501  0.000000000E+00  0.000000000E+00  1.386654568E+03  1.386654568E+03  0.000000000E+00  0.00000E+00  9.000E+00
      21    -1     0     0   501   502  0.000000000E+00  0.000000000E+00 -2.677718229E+02  2.677718229E+02  0.000000000E+00  0.00000E+00  9.000E+00
      25     1     1     2     0     0  3.983504051E+02  3.353058898E+02  1.937267080E+02  5.694454516E+02  1.250000000E+02  0.00000E+00  9.000E+00
      25     1     1     2     0     0 -3.783573126E+02 -3.158662792E+02  7.407430410E+02  8.984714882E+02  1.250000000E+02  0.00000E+00  9.000E+00
      21     1     1     2   511   502 -1.999309252E+01 -1.943961065E+01  1.844129961E+02  1.865094511E+02  2.697398305E-06  0.00000E+00  9.000E+00
#rwgt            1           1   3.1308360332826440E-002           8       27331           0
</event>
<event>
      5   9999  3.19816E-02  4.40682E+01 -1.00000E+00  1.42279E-01
      21    -1     0     0   512   501  0.000000000E+00  0.000000000E+00  3.213894002E+02  3.213894002E+02  0.000000000E+00  0.00000E+00  9.000E+00
      21    -1     0     0   501   502  0.000000000E+00  0.000000000E+00 -1.298907724E+03  1.298907724E+03  0.000000000E+00  0.00000E+00  9.000E+00
      25     1     1     2     0     0  5.136902342E+02  2.112683092E+02 -2.321513693E+02  6.148424298E+02  1.250000000E+02  0.00000E+00  9.000E+00
      25     1     1     2     0     0 -5.373818782E+02 -2.484262635E+02 -7.470491047E+02  9.613543864E+02  1.250000000E+02  0.00000E+00  9.000E+00
      21     1     1     2   512   502  2.369164397E+01  3.715795434E+01  1.682149976E+00  4.410030832E+01  6.960612961E-07  0.00000E+00  9.000E+00
#rwgt            1           1   2.9679512427202768E-002           8       27471           0
</event>
<event>
      5   9999  3.19816E-02  1.02499E+02 -1.00000E+00  1.23348E-01
      21    -1     0     0   511   501  0.000000000E+00  0.000000000E+00  2.920308000E+02  2.920308000E+02  0.000000000E+00  0.00000E+00  9.000E+00
      21    -1     0     0   501   502  0.000000000E+00  0.000000000E+00 -2.297748896E+02  2.297748896E+02  0.000000000E+00  0.00000E+00  9.000E+00
      25     1     1     2     0     0  2.777444032E+01 -1.430389456E+02  8.401931131E+01  2.095609796E+02  1.250000000E+02  0.00000E+00  9.000E+00
      25     1     1     2     0     0 -6.020814432E+01  4.580669506E+01 -1.052301605E+02  1.800601584E+02  1.250000000E+02  0.00000E+00  9.000E+00
      21     1     1     2   511   502  3.243370400E+01  9.723225058E+01  8.346675966E+01  1.321845516E+02  3.303624740E-06  0.00000E+00  9.000E+00
#rwgt            1           1   3.2075644594089014E-002           8       27646           0
</event>
<event>
      5   9999  3.19816E-02  5.59075E+01 -1.00000E+00  1.36364E-01
      21    -1     0     0   512   501  0.000000000E+00  0.000000000E+00  4.186155341E+02  4.186155341E+02  0.000000000E+00  0.00000E+00  9.000E+00
      21    -1     0     0   501   502  0.000000000E+00  0.000000000E+00 -1.661215260E+03  1.661215260E+03  0.000000000E+00  0.00000E+00  9.000E+00
      25     1     1     2     0     0  1.202632835E+02  7.738421057E+02 -8.981422041E+02  1.198156618E+03  1.250000000E+02  0.00000E+00  9.000E+00
      25     1     1     2     0     0 -1.114490800E+02 -7.186337604E+02 -3.635626988E+02  8.225923748E+02  1.250000000E+02  0.00000E+00  9.000E+00
      21     1     1     2   512   502 -8.814203535E+00 -5.520834523E+01  1.910517657E+01  5.908180209E+01  6.743495762E-07  0.00000E+00  9.000E+00
#rwgt            1           1   3.1553501128646390E-002           8       27692           0
</event>
<event>
      5   9999  3.19816E-02  4.70631E+01 -1.00000E+00  1.40592E-01
       1    -1     0     0   502     0  0.000000000E+00  0.000000000E+00  3.932943153E+02  3.932943153E+02  0.000000000E+00  0.00000E+00  9.000E+00
      21    -1     0     0   501   502  0.000000000E+00  0.000000000E+00 -2.921844095E+02  2.921844095E+02  0.000000000E+00  0.00000E+00  9.000E+00
      25     1     1     2     0     0  6.089117380E+01 -1.553084345E+02 -1.299606002E+02  2.456485345E+02  1.250000000E+02  0.00000E+00  9.000E+00
      25     1     1     2     0     0 -8.748432829E+01  1.164788483E+02 -1.192149788E+01  1.923225205E+02  1.250000000E+02  0.00000E+00  9.000E+00
       1     1     1     2   501     0  2.659315450E+01  3.882958627E+01  2.429920039E+02  2.475076698E+02  2.697398305E-06  0.00000E+00  9.000E+00
#rwgt            1           1   2.2522899615870756E-002           8       27864           0
</event>
<event>
      5   9999  3.19816E-02  3.89518E+02 -1.00000E+00  1.02034E-01
      21    -1     0     0   502   511  0.000000000E+00  0.000000000E+00  9.445068388E+02  9.445068388E+02  0.000000000E+00  0.00000E+00  9.000E+00
      21    -1     0     0   501   502  0.000000000E+00  0.000000000E+00 -9.196473479E+02  9.196473479E+02  0.000000000E+00  0.00000E+00  9.000E+00
      25     1     1     2     0     0 -2.952710398E+02 -2.278058564E+01  1.102291143E+02  3.398226003E+02  1.250000000E+02  0.00000E+00  9.000E+00
      25     1     1     2     0     0  5.594583077E+02  3.090129613E+02 -5.955253981E+02  8.824727237E+02  1.250000000E+02  0.00000E+00  9.000E+00
      21     1     1     2   501   511 -2.641872679E+02 -2.862323756E+02  5.101557745E+02  6.418588627E+02  5.394796609E-06  0.00000E+00  9.000E+00
#rwgt            1           1   2.7168286786169372E-002           8       27912           0
</event>
<event>
      5   9999  3.19816E-02  7.34991E+01 -1.00000E+00  1.30157E-01
      21    -1     0     0   512   501  0.000000000E+00  0.000000000E+00  2.815427295E+03  2.815427295E+03  0.000000000E+00  0.00000E+00  9.000E+00
      21    -1     0     0   501   502  0.000000000E+00  0.000000000E+00 -8.174198035E+01  8.174198035E+01  0.000000000E+00  0.00000E+00  9.000E+00
      25     1     1     2     0     0 -1.279233560E+01  2.738929033E+02  2.220194001E+03  2.240550684E+03  1.250000000E+02  0.00000E+00  9.000E+00
      25     1     1     2     0     0  7.883863661E+01 -2.416437942E+02  2.333436258E+02  3.669897840E+02  1.250000000E+02  0.00000E+00  9.000E+00
      21     1     1     2   512   502 -6.604630101E+01 -3.224910907E+01  2.801476881E+02  2.896288074E+02  3.814697266E-06  0.00000E+00  9.000E+00
#rwgt            1           1   8.2544783041706316E-002           8       27995           0
</event>
<event>
      5   9999  3.19816E-02  9.24404E+01 -1.00000E+00  1.25383E-01
      21    -1     0     0   511   501  0.000000000E+00  0.000000000E+00  6.558022515E+02  6.558022515E+02  0.000000000E+00  0.00000E+00  9.000E+00
      21    -1     0     0   501   502  0.000000000E+00  0.000000000E+00 -1.040724641E+03  1.040724641E+03  0.000000000E+00  0.00000E+00  9.000E+00
      25     1     1     2     0     0 -5.674343603E+02 -9.141258464E+01 -6.911854938E+02  9.075794184E+02  1.250000000E+02  0.00000E+00  9.000E+00
      25     1     1     2     0     0  5.597900846E+02  1.835363911E+02  1.726706357E+02  6.264907774E+02  1.250000000E+02  0.00000E+00  9.000E+00
      21     1     1     2   511   502  7.644275666E+00 -9.212380642E+01  1.335924686E+02  1.624566967E+02  1.907348633E-06  0.00000E+00  9.000E+00
#rwgt            2          11   4.0189828457730852E-003           8       28090           0
</event>
<event>
      5   9999  3.19816E-02  5.25737E+01 -1.00000E+00  1.37843E-01
      21    -1     0     0   502   501  0.000000000E+00  0.000000000E+00  1.787078946E+02  1.787078946E+02  0.000000000E+00  0.00000E+00  9.000E+00
      21    -1     0     0   512   502  0.000000000E+00  0.000000000E+00 -1.347196105E+03  1.347196105E+03  0.000000000E+00  0.00000E+00  9.000E+00
      25     1     1     2     0     0 -6.305125532E+01 -3.683569282E+02 -3.273344451E+02  5.122842241E+02  1.250000000E+02  0.00000E+00  9.000E+00
      25     1     1     2     0     0  3.153210750E+01  3.262792212E+02 -2.769347633E+02  4.469566726E+02  1.250000000E+02  0.00000E+00  9.000E+00
      21     1     1     2   512   501  3.151914782E+01  4.207770695E+01 -5.642190017E+02  5.666631027E+02  1.078959322E-05  0.00000E+00  9.000E+00
#rwgt            1           1   2.7932313395187220E-002           8       28125           0
</event>
<event>
      5   9999  3.19816E-02  8.18797E+01 -1.00000E+00  1.27863E-01
      21    -1     0     0   502   501  0.000000000E+00  0.000000000E+00  6.137120392E+01  6.137120392E+01  0.000000000E+00  0.00000E+00  9.000E+00
      21    -1     0     0   511   502  0.000000000E+00  0.000000000E+00 -1.853023541E+03  1.853023541E+03  0.000000000E+00  0.00000E+00  9.000E+00
      25     1     1     2     0     0 -5.850747380E+01  1.882952937E+02 -4.316828162E+02  4.907680673E+02  1.250000000E+02  0.00000E+00  9.000E+00
      25     1     1     2     0     0 -2.329471922E+01 -1.918581959E+02 -4.104306398E+02  4.705640460E+02  1.250000000E+02  0.00000E+00  9.000E+00
      21     1     1     2   511   501  8.180219302E+01  3.562902141E+00 -9.495388813E+02  9.530626318E+02  0.000000000E+00  0.00000E+00  9.000E+00
#rwgt            1           1   2.8606050999861719E-002           8       28249           0
</event>
<event>
      5   9999  3.19816E-02  4.61590E+01 -1.00000E+00  1.41085E-01
       1    -1     0     0   502     0  0.000000000E+00  0.000000000E+00  1.938975498E+03  1.938975498E+03  0.000000000E+00  0.00000E+00  9.000E+00
      21    -1     0     0   501   502  0.000000000E+00  0.000000000E+00 -1.899655463E+02  1.899655463E+02  0.000000000E+00  0.00000E+00  9.000E+00
      25     1     1     2     0     0  3.765994744E+02 -6.745616394E+01  9.484067265E+02  1.030280456E+03  1.250000000E+02  0.00000E+00  9.000E+00
      25     1     1     2     0     0 -3.339602427E+02  4.977701927E+01  7.023007742E+01  3.668302865E+02  1.250000000E+02  0.00000E+00  9.000E+00
       1     1     1     2   501     0 -4.263923175E+01  1.767914467E+01  7.303731474E+02  7.318303018E+02  1.078959322E-05  0.00000E+00  9.000E+00
#rwgt            1           1   3.2898414449383059E-002           8       28325           0
</event>
<event>
      5   9999  3.19816E-02  6.82039E+01 -1.00000E+00  1.31795E-01
      21    -1     0     0   502   501  0.000000000E+00  0.000000000E+00  1.842876876E+03  1.842876876E+03  0.000000000E+00  0.00000E+00  9.000E+00
      21    -1     0     0   501   511  0.000000000E+00  0.000000000E+00 -4.141211453E+02  4.141211453E+02  0.000000000E+00  0.00000E+00  9.000E+00
      25     1     1     2     0     0  5.332981601E+02 -2.904286788E+02  3.123574139E+02  6.942246747E+02  1.250000000E+02  0.00000E+00  9.000E+00
      25     1     1     2     0     0 -5.281917001E+02  2.224161912E+02  1.267686868E+03  1.396821545E+03  1.250000000E+02  0.00000E+00  9.000E+00
      21     1     1     2   502   511 -5.106459956E+00  6.801248758E+01 -1.512885515E+02  1.659518009E+02  3.303624740E-06  0.00000E+00  9.000E+00
#rwgt            1           1   2.5148977486426593E-002           8       28426           0
</event>
<event>
      5   9999  3.19816E-02  9.68514E+01 -1.00000E+00  1.24456E-01
       1    -1     0     0   502     0  0.000000000E+00  0.000000000E+00  6.130658330E+02  6.130658330E+02  0.000000000E+00  0.00000E+00  9.000E+00
      21    -1     0     0   501   502  0.000000000E+00  0.000000000E+00 -6.481912561E+02  6.481912561E+02  0.000000000E+00  0.00000E+00  9.000E+00
      25     1     1     2     0     0 -2.589955807E+01  4.143446287E+02  2.921949495E+02  5.228337661E+02  1.250000000E+02  0.00000E+00  9.000E+00
      25     1     1     2     0     0  1.211242815E+02 -3.966684325E+02 -4.207294103E+02  6.038668509E+02  1.250000000E+02  0.00000E+00  9.000E+00
       1     1     1     2   501     0 -9.522472342E+01 -1.767619628E+01  9.340903780E+01  1.345564722E+02  1.907348633E-06  0.00000E+00  9.000E+00
#rwgt            1           1   3.0578748946780622E-002           8       28517           0
</event>
<event>
      5   9999  3.19816E-02  4.81482E+01 -1.00000E+00  1.40017E-01
      21    -1     0     0   502   511  0.000000000E+00  0.000000000E+00  1.326670093E+03  1.326670093E+03  0.000000000E+00  0.00000E+00  9.000E+00
      21    -1     0     0   501   502  0.000000000E+00  0.000000000E+00 -7.043661146E+01  7.043661146E+01  0.000000000E+00  0.00000E+00  9.000E+00
      25     1     1     2     0     0  2.058306050E+02 -7.513578019E+01  3.821231243E+02  4.578806674E+02  1.250000000E+02  0.00000E+00  9.000E+00
      25     1     1     2     0     0 -2.524404267E+02  6.306221108E+01  6.704733905E+02  7.299743686E+02  1.250000000E+02  0.00000E+00  9.000E+00
      21     1     1     2   501   511  4.660982167E+01  1.207356911E+01  2.036369671E+02  2.092516688E+02  3.814697266E-06  0.00000E+00  9.000E+00
#rwgt            1           1   2.7295303698179649E-002           8       28617           0
</event>
<event>
      5   9999  3.19816E-02  7.85609E+01 -1.00000E+00  1.28732E-01
      21    -1     0     0   502   512  0.000000000E+00  0.000000000E+00  1.974327104E+03  1.974327104E+03  0.000000000E+00  0.00000E+00  9.000E+00
      21    -1     0     0   501   502  0.000000000E+00  0.000000000E+00 -4.253943622E+02  4.253943622E+02  0.000000000E+00  0.00000E+00  9.000E+00
      25     1     1     2     0     0 -2.563644474E+02  8.289728552E+02  4.758570480E+02  9.974886740E+02  1.250000000E+02  0.00000E+00  9.000E+00
      25     1     1     2     0     0  2.034479170E+02 -7.709068982E+02  8.813066645E+02  1.194995790E+03  1.250000000E+02  0.00000E+00  9.000E+00
      21     1     1     2   501   512  5.291653038E+01 -5.806595706E+01  1.917690289E+02  2.072370020E+02  0.000000000E+00  0.00000E+00  9.000E+00
#rwgt            1           1   3.5051326491539615E-002           8       28687           0
</event>
<event>
      5   9999  3.19816E-02  4.55983E+01 -1.00000E+00  1.41398E-01
      21    -1     0     0   502   501  0.000000000E+00  0.000000000E+00  8.922748393E+01  8.922748393E+01  0.000000000E+00  0.00000E+00  9.000E+00
       1    -1     0     0   501     0  0.000000000E+00  0.000000000E+00 -2.793110236E+03  2.793110236E+03  0.000000000E+00  0.00000E+00  9.000E+00
      25     1     1     2     0     0 -1.327882147E+02  4.514082622E+01 -7.003184735E+02  7.250802497E+02  1.250000000E+02  0.00000E+00  9.000E+00
      25     1     1     2     0     0  1.045618334E+02 -8.095249780E+01 -3.150707395E+01  1.846731697E+02  1.250000000E+02  0.00000E+00  9.000E+00
       1     1     1     2   502     0  2.822638133E+01  3.581167158E+01 -1.972057205E+03  1.972584301E+03  0.000000000E+00  0.00000E+00  9.000E+00
#rwgt            1           1   3.1699090013273631E-002           8       28827           0
</event>
<event>
      5   9999  3.19816E-02  8.16569E+01 -1.00000E+00  1.27920E-01
      21    -1     0     0   502   501  0.000000000E+00  0.000000000E+00  6.950088758E+02  6.950088758E+02  0.000000000E+00  0.00000E+00  9.000E+00
      21    -1     0     0   511   502  0.000000000E+00  0.000000000E+00 -1.189792755E+02  1.189792755E+02  0.000000000E+00  0.00000E+00  9.000E+00
      25     1     1     2     0     0 -2.035131802E+02  1.410038033E+02  2.651919354E+02  3.837335660E+02  1.250000000E+02  0.00000E+00  9.000E+00
      25     1     1     2     0     0  1.434206731E+02 -8.571604264E+01  2.626115579E+02  3.354199753E+02  1.250000000E+02  0.00000E+00  9.000E+00
      21     1     1     2   511   501  6.009250709E+01 -5.528776065E+01  4.822610691E+01  9.483461010E+01  1.168007728E-06  0.00000E+00  9.000E+00
#rwgt            1           1   3.1124845207498288E-002           8       28889           0
</event>
<event>
      5   9999  3.19816E-02  1.18365E+02 -1.00000E+00  1.20622E-01
      21    -1     0     0   502   512  0.000000000E+00  0.000000000E+00  2.027321305E+03  2.027321305E+03  0.000000000E+00  0.00000E+00  9.000E+00
      21    -1     0     0   501   502  0.000000000E+00  0.000000000E+00 -5.219725303E+01  5.219725303E+01  0.000000000E+00  0.00000E+00  9.000E+00
      25     1     1     2     0     0  3.368613241E+01  1.550360562E+02  3.656348170E+02  4.177137221E+02  1.250000000E+02  0.00000E+00  9.000E+00
      25     1     1     2     0     0 -1.238834708E+02 -2.316833099E+02  1.246497183E+03  1.280001757E+03  1.250000000E+02  0.00000E+00  9.000E+00
      21     1     1     2   501   512  9.019733840E+01  7.664725366E+01  3.629920514E+02  3.818030785E+02  5.394796609E-06  0.00000E+00  9.000E+00
#rwgt            1           1   3.2403394325049302E-002           8       29000           0
</event>
<event>
      5   9999  3.19816E-02  6.71460E+01 -1.00000E+00  1.32143E-01
      21    -1     0     0   511   501  0.000000000E+00  0.000000000E+00  3.946323305E+03  3.946323305E+03  0.000000000E+00  0.00000E+00  9.000E+00
      21    -1     0     0   501   502  0.000000000E+00  0.000000000E+00 -3.228587201E+02  3.228587201E+02  0.000000000E+00  0.00000E+00  9.000E+00
      25     1     1     2     0     0 -5.982756825E+02 -6.027881973E+02  4.999616724E+02  9.934153597E+02  1.250000000E+02  0.00000E+00  9.000E+00
      25     1     1     2     0     0  6.650830642E+02  5.960535970E+02  2.691037839E+03  2.838119981E+03  1.250000000E+02  0.00000E+00  9.000E+00
      21     1     1     2   511   502 -6.680738179E+01  6.734600304E+00  4.324650737E+02  4.376466852E+02  5.394796609E-06  0.00000E+00  9.000E+00
#rwgt            1           1   6.4129147700134226E-002           8       29093           0
</event>
<event>
      5   9999  3.19816E-02  1.09701E+02 -1.00000E+00  1.22046E-01
      21    -1     0     0   502   512  0.000000000E+00  0.000000000E+00  3.531697727E+02  3.531697727E+02  0.000000000E+00  0.00000E+00  9.000E+00
      21    -1     0     0   501   502  0.000000000E+00  0.000000000E+00 -1.450979276E+03  1.450979276E+03  0.000000000E+00  0.00000E+00  9.000E+00
      25     1     1     2     0     0 -1.253908837E+02  6.347101116E+02 -4.624778933E+02  8.050407451E+02  1.250000000E+02  0.00000E+00  9.000E+00
      25     1     1     2     0     0  2.310934492E+02 -6.053611365E+02 -5.654756584E+02  8.690535128E+02  1.250000000E+02  0.00000E+00  9.000E+00
      21     1     1     2   501   512 -1.057025654E+02 -2.934897506E+01 -6.985595191E+01  1.300547911E+02  2.697398305E-06  0.00000E+00  9.000E+00
#rwgt            1           1   2.5798254907753549E-002           8       29204           0
</event>
<event>
      5   9999  3.19816E-02  2.60323E+01 -1.00000E+00  1.57446E-01
      21    -1     0     0   502   501  0.000000000E+00  0.000000000E+00  1.034618280E+02  1.034618280E+02  0.000000000E+00  0.00000E+00  9.000E+00
      21    -1     0     0   511   502  0.000000000E+00  0.000000000E+00 -8.255767944E+02  8.255767944E+02  0.000000000E+00  0.00000E+00  9.000E+00
      25     1     1     2     0     0  1.808235354E+02 -6.994345663E+01 -4.208410239E+02  4.799181238E+02  1.250000000E+02  0.00000E+00  9.000E+00
      25     1     1     2     0     0 -1.663811103E+02  9.160209175E+01 -1.038139450E+02  2.499518999E+02  1.250000000E+02  0.00000E+00  9.000E+00
      21     1     1     2   511   501 -1.444242511E+01 -2.165863512E+01 -1.974599975E+02  1.991685987E+02  0.000000000E+00  0.00000E+00  9.000E+00
#rwgt            2          11   8.4591961971763386E-004           8       29347           0
</event>
<event>
      5   9999  3.19816E-02  3.69547E+01 -1.00000E+00  1.47006E-01
      21    -1     0     0   512   501  0.000000000E+00  0.000000000E+00  4.504155146E+02  4.504155146E+02  0.000000000E+00  0.00000E+00  9.000E+00
      21    -1     0     0   501   502  0.000000000E+00  0.000000000E+00 -5.036137186E+02  5.036137186E+02  0.000000000E+00  0.00000E+00  9.000E+00
      25     1     1     2     0     0 -1.178138648E+02  4.256948081E+01 -4.623395800E+02  4.950506587E+02  1.250000000E+02  0.00000E+00  9.000E+00
      25     1     1     2     0     0  8.153424027E+01 -3.553823860E+01  3.860167082E+02  4.153849994E+02  1.250000000E+02  0.00000E+00  9.000E+00
      21     1     1     2   512   502  3.627962451E+01 -7.031242209E+00  2.312466780E+01  4.359357502E+01  7.539457465E-07  0.00000E+00  9.000E+00
#rwgt            2          11   3.2677046212380503E-003           8       29397           0
</event>
<event>
      5   9999  3.19816E-02  2.01803E+02 -1.00000E+00  1.11506E-01
       2    -1     0     0   502     0  0.000000000E+00  0.000000000E+00  1.052826156E+03  1.052826156E+03  0.000000000E+00  0.00000E+00  9.000E+00
      21    -1     0     0   501   502  0.000000000E+00  0.000000000E+00 -1.252604752E+03  1.252604752E+03  0.000000000E+00  0.00000E+00  9.000E+00
      25     1     1     2     0     0 -6.935288951E+01 -1.057854137E+02  1.426595402E+02  2.279849150E+02  1.250000000E+02  0.00000E+00  9.000E+00
      25     1     1     2     0     0 -8.312666416E+01 -2.640621411E+01 -1.193292377E+03  1.202987543E+03  1.250000000E+02  0.00000E+00  9.000E+00
       2     1     1     2   501     0  1.524795537E+02  1.321916278E+02  8.508542418E+02  8.744584505E+02  0.000000000E+00  0.00000E+00  9.000E+00
#rwgt            2          18   3.8871691405290673E-003           8       29417           0
</event>
<event>
      5   9999  3.19816E-02  5.45479E+01 -1.00000E+00  1.36952E-01
      21    -1     0     0   502   501  0.000000000E+00  0.000000000E+00  1.181365302E+03  1.181365302E+03  0.000000000E+00  0.00000E+00  9.000E+00
      21    -1     0     0   511   502  0.000000000E+00  0.000000000E+00 -3.375434606E+01  3.375434606E+01  0.000000000E+00  0.00000E+00  9.000E+00
      25     1     1     2     0     0  3.581588743E+01 -4.753144893E+00  1.731264852E+02  2.165713509E+02  1.250000000E+02  0.00000E+00  9.000E+00
      25     1     1     2     0     0  7.787088144E+00 -2.802267677E+01  8.811150925E+02  8.904126658E+02  1.250000000E+02  0.00000E+00  9.000E+00
      21     1     1     2   511   501 -4.360297558E+01  3.277582167E+01  9.336937818E+01  1.081356313E+02  1.907348633E-06  0.00000E+00  9.000E+00
#rwgt            1           1   3.6242398368704472E-002           8       29451           0
</event>
<event>
      5   9999  3.90675E-02  1.05363E+02 -1.00000E+00  1.22816E-01
      21    -1     0     0   502   512  0.000000000E+00  0.000000000E+00  1.113610350E+03  1.113610350E+03  0.000000000E+00  0.00000E+00  9.000E+00
      21    -1     0     0   501   502  0.000000000E+00  0.000000000E+00 -1.374707422E+03  1.374707422E+03  0.000000000E+00  0.00000E+00  9.000E+00
      25     1     1     2     0     0  1.032816580E+01  8.104084930E+02  6.856407815E+02  1.068923233E+03  1.250000000E+02  0.00000E+00  9.000E+00
      25     1     1     2     0     0  8.543529926E+01 -7.664679606E+02 -1.024524368E+03  1.288428308E+03  1.250000000E+02  0.00000E+00  9.000E+00
      21     1     1     2   501   512 -9.576346506E+01 -4.394053241E+01  7.778651553E+01  1.309662309E+02  9.536743164E-07  0.00000E+00  9.000E+00
#rwgt            1           1   9.5190287869130502E-002           8       29528           0
</event>
<event>
      5   9999  3.19816E-02  2.82111E+01 -1.00000E+00  1.54918E-01
      21    -1     0     0   502   511  0.000000000E+00  0.000000000E+00  1.078635259E+03  1.078635259E+03  0.000000000E+00  0.00000E+00  9.000E+00
      21    -1     0     0   501   502  0.000000000E+00  0.000000000E+00 -2.551931800E+02  2.551931800E+02  0.000000000E+00  0.00000E+00  9.000E+00
      25     1     1     2     0     0 -1.998451095E+01 -3.931150088E+02  2.710846734E+01  4.138824227E+02  1.250000000E+02  0.00000E+00  9.000E+00
      25     1     1     2     0     0 -1.340034148E+00  4.115846612E+02  7.218032140E+02  8.402550855E+02  1.250000000E+02  0.00000E+00  9.000E+00
      21     1     1     2   501   511  2.132454510E+01 -1.846965240E+01  7.453039750E+01  7.969093070E+01  9.536743164E-07  0.00000E+00  9.000E+00
#rwgt            1           1   2.2851232666590355E-002           8       29660           0
</event>
<event>
      5   9999  3.19816E-02  8.69731E+01 -1.00000E+00  1.26617E-01
      21    -1     0     0   502   501  0.000000000E+00  0.000000000E+00  1.854809217E+02  1.854809217E+02  0.000000000E+00  0.00000E+00  9.000E+00
      21    -1     0     0   501   512  0.000000000E+00  0.000000000E+00 -3.883852722E+02  3.883852722E+02  0.000000000E+00  0.00000E+00  9.000E+00
      25     1     1     2     0     0 -1.270044006E+02 -7.337955573E+01 -5.463950064E+01  2.003126357E+02  1.250000000E+02  0.00000E+00  9.000E+00
      25     1     1     2     0     0  2.135752211E+02  6.502419197E+01 -1.084731927E+02  2.779099749E+02  1.250000000E+02  0.00000E+00  9.000E+00
      21     1     1     2   502   512 -8.657082044E+01  8.355363768E+00 -3.979165717E+01  9.564358335E+01  1.261592536E-06  0.00000E+00  9.000E+00
#rwgt            2          11   2.6055921639816723E-003           8       30123           0
</event>
<event>
      5   9999  3.19816E-02  3.71584E+01 -1.00000E+00  1.46853E-01
      21    -1     0     0   502   501  0.000000000E+00  0.000000000E+00  3.819257716E+02  3.819257716E+02  0.000000000E+00  0.00000E+00  9.000E+00
      21    -1     0     0   511   502  0.000000000E+00  0.000000000E+00 -2.656289281E+02  2.656289281E+02  0.000000000E+00  0.00000E+00  9.000E+00
      25     1     1     2     0     0 -9.743343437E+01  1.933260251E+02 -9.900028701E+01  2.688759620E+02  1.250000000E+02  0.00000E+00  9.000E+00
      25     1     1     2     0     0  7.454322105E+01 -2.225968891E+02  2.142303174E+02  3.415050450E+02  1.250000000E+02  0.00000E+00  9.000E+00
      21     1     1     2   511   501  2.289021331E+01  2.927086396E+01  1.066813128E+00  3.717369275E+01  2.240135726E-07  0.00000E+00  9.000E+00
#rwgt            1           1   2.7242806641311922E-002           8       30143           0
</event>
<event>
      5   9999  3.19816E-02  3.35444E+02 -1.00000E+00  1.04040E-01
      21    -1     0     0   502   501  0.000000000E+00  0.000000000E+00  9.776163707E+02  9.776163707E+02  0.000000000E+00  0.00000E+00  9.000E+00
      21    -1     0     0   512   502  0.000000000E+00  0.000000000E+00 -2.401565177E+02  2.401565177E+02  0.000000000E+00  0.00000E+00  9.000E+00
      25     1     1     2     0     0 -2.511993486E+02 -1.876436551E+02  2.807203511E+02  4.390218327E+02  1.250000000E+02  0.00000E+00  9.000E+00
      25     1     1     2     0     0 -7.898750036E+01  1.284894504E+02  3.904285964E+02  4.368158113E+02  1.250000000E+02  0.00000E+00  9.000E+00
      21     1     1     2   512   501  3.301868490E+02  5.915420470E+01  6.631090546E+01  3.419352444E+02  8.259061849E-06  0.00000E+00  9.000E+00
#rwgt            1           1   2.7462894726042832E-002           8       30245           0
</event>
<event>
      5   9999  3.19816E-02  2.17662E+02 -1.00000E+00  1.10326E-01
      21    -1     0     0   502   501  0.000000000E+00  0.000000000E+00  4.126029192E+02  4.126029192E+02  0.000000000E+00  0.00000E+00  9.000E+00
       2    -1     0     0   501     0  0.000000000E+00  0.000000000E+00 -1.680334166E+03  1.680334166E+03  0.000000000E+00  0.00000E+00  9.000E+00
      25     1     1     2     0     0  2.623471637E+02  1.765192045E+02 -6.864301699E+01  3.468745128E+02  1.250000000E+02  0.00000E+00  9.000E+00
      25     1     1     2     0     0 -4.746677298E+02 -1.285937133E+02  1.988835046E+01  5.078054188E+02  1.250000000E+02  0.00000E+00  9.000E+00
       2     1     1     2   502     0  2.123205662E+02 -4.792549116E+01 -1.218976581E+03  1.238257154E+03  0.000000000E+00  0.00000E+00  9.000E+00
#rwgt            1           1   2.8140733269998167E-002           8       30288           0
</event>
<event>
      5   9999  3.19816E-02  1.52506E+01 -1.00000E+00  1.76708E-01
      21    -1     0     0   502   501  0.000000000E+00  0.000000000E+00  2.726783193E+02  2.726783193E+02  0.000000000E+00  0.00000E+00  9.000E+00
       2    -1     0     0   501     0  0.000000000E+00  0.000000000E+00 -8.948520867E+02  8.948520867E+02  0.000000000E+00  0.00000E+00  9.000E+00
      25     1     1     2     0     0  3.161286176E+02  6.692263412E+01  9.101340523E+01  3.582239269E+02  1.250000000E+02  0.00000E+00  9.000E+00
      25     1     1     2     0     0 -3.041747101E+02 -7.639286571E+01 -5.496293009E+02  6.450391404E+02  1.250000000E+02  0.00000E+00  9.000E+00
       2     1     1     2   502     0 -1.195390754E+01  9.470231591E+00 -1.635578717E+02  1.642673388E+02  3.814697266E-06  0.00000E+00  9.000E+00
#rwgt            1           1   2.4875712070053440E-002           8       30346           0
</event>
<event>
      5   9999  3.19816E-02  4.76549E+01 -1.00000E+00  1.40276E-01
      21    -1     0     0   511   501  0.000000000E+00  0.000000000E+00  5.258336437E+02  5.258336437E+02  0.000000000E+00  0.00000E+00  9.000E+00
      21    -1     0     0   501   502  0.000000000E+00  0.000000000E+00 -3.853189544E+02  3.853189544E+02  0.000000000E+00  0.00000E+00  9.000E+00
      25     1     1     2     0     0 -7.982889924E+01 -2.570278932E+02 -2.266754038E+02  3.734203124E+02  1.250000000E+02  0.00000E+00  9.000E+00
      25     1     1     2     0     0  1.274185834E+02  2.545349525E+02  2.143025886E+02  3.775899058E+02  1.250000000E+02  0.00000E+00  9.000E+00
      21     1     1     2   511   502 -4.758968416E+01  2.492940648E+00  1.528875046E+02  1.601423799E+02  2.697398305E-06  0.00000E+00  9.000E+00
#rwgt            1           1   2.7897838756261534E-002           8       30543           0
</event>
<event>
      5   9999  3.19816E-02  5.48867E+00 -1.00000E+00  2.31652E-01
      21    -1     0     0   502   512  0.000000000E+00  0.000000000E+00  4.785754172E+02  4.785754172E+02  0.000000000E+00  0.00000E+00  9.000E+00
      21    -1     0     0   501   502  0.000000000E+00  0.000000000E+00 -1.695198351E+02  1.695198351E+02  0.000000000E+00  0.00000E+00  9.000E+00
      25     1     1     2     0     0  1.828059048E+02  1.413622328E+02  4.524545948E+01  2.665960076E+02  1.250000000E+02  0.00000E+00  9.000E+00
      25     1     1     2     0     0 -1.837664314E+02 -1.467662039E+02  2.449288036E+02  3.618363425E+02  1.250000000E+02  0.00000E+00  9.000E+00
      21     1     1     2   501   512  9.605266590E-01  5.403971067E+00  1.888131907E+01  1.966290224E+01  0.000000000E+00  0.00000E+00  9.000E+00
#rwgt            1           1   2.8870383682777268E-002           8       30655           0
</event>
<event>
      5   9999  3.19816E-02  2.15113E+02 -1.00000E+00  1.10508E-01
      21    -1     0     0   511   501  0.000000000E+00  0.000000000E+00  1.055236770E+03  1.055236770E+03  0.000000000E+00  0.00000E+00  9.000E+00
      21    -1     0     0   501   502  0.000000000E+00  0.000000000E+00 -4.131172154E+02  4.131172154E+02  0.000000000E+00  0.00000E+00  9.000E+00
      25     1     1     2     0     0  7.319702256E+01  3.277937209E+02 -1.204947520E+02  3.780879697E+02  1.250000000E+02  0.00000E+00  9.000E+00
      25     1     1     2     0     0 -9.444523225E+01 -5.418546624E+02  5.535938531E+02  7.903274835E+02  1.250000000E+02  0.00000E+00  9.000E+00
      21     1     1     2   511   502  2.124820970E+01  2.140609414E+02  2.090204534E+02  2.999385320E+02  3.814697266E-06  0.00000E+00  9.000E+00
#rwgt            2          11   4.4267464749116817E-003           8       31081           0
</event>
<event>
      5   9999  3.19816E-02  4.85271E+01 -1.00000E+00  1.39821E-01
      21    -1     0     0   512   501  0.000000000E+00  0.000000000E+00  8.388666269E+02  8.388666269E+02  0.000000000E+00  0.00000E+00  9.000E+00
      21    -1     0     0   501   502  0.000000000E+00  0.000000000E+00 -2.897940893E+02  2.897940893E+02  0.000000000E+00  0.00000E+00  9.000E+00
      25     1     1     2     0     0  1.549896212E+02  4.304378823E+01  4.330335283E+02  4.785578199E+02  1.250000000E+02  0.00000E+00  9.000E+00
      25     1     1     2     0     0 -1.899417492E+02 -9.380368693E+00 -2.164612460E+02  3.140801338E+02  1.250000000E+02  0.00000E+00  9.000E+00
      21     1     1     2   512   502  3.495212801E+01 -3.366341954E+01  3.325002554E+02  3.360227625E+02  3.814697266E-06  0.00000E+00  9.000E+00
#rwgt            1           1   3.0821665176206596E-002           8       31161           0
</event>
<event>
      5   9999  3.19816E-02  5.28305E+01 -1.00000E+00  1.37725E-01
      21    -1     0     0   502   501  0.000000000E+00  0.000000000E+00  1.523069704E+03  1.523069704E+03  0.000000000E+00  0.00000E+00  9.000E+00
      21    -1     0     0   501   511  0.000000000E+00  0.000000000E+00 -1.485840231E+02  1.485840231E+02  0.000000000E+00  0.00000E+00  9.000E+00
      25     1     1     2     0     0 -1.172419980E+02  2.449723912E+02  3.409925315E+02  4.534953860E+02  1.250000000E+02  0.00000E+00  9.000E+00
      25     1     1     2     0     0  8.514143690E+01 -2.030127440E+02  1.102533188E+03  1.131223970E+03  1.250000000E+02  0.00000E+00  9.000E+00
      21     1     1     2   502   511  3.210056113E+01 -4.195964719E+01 -6.904003872E+01  8.693437159E+01  2.697398305E-06  0.00000E+00  9.000E+00
#rwgt            1           1   2.7771745844454611E-002           8       31280           0
</event>
<event>
      5   9999  3.19816E-02  1.03837E+02 -1.00000E+00  1.23097E-01
      21    -1     0     0   512   501  0.000000000E+00  0.000000000E+00  6.688261045E+01  6.688261045E+01  0.000000000E+00  0.00000E+00  9.000E+00
      21    -1     0     0   501   502  0.000000000E+00  0.000000000E+00 -2.500042324E+03  2.500042324E+03  0.000000000E+00  0.00000E+00  9.000E+00
      25     1     1     2     0     0 -3.647084165E+02  6.602765278E+01 -1.050739379E+03  1.121182467E+03  1.250000000E+02  0.00000E+00  9.000E+00
      25     1     1     2     0     0  2.733089272E+02 -1.675059975E+01 -1.185570947E+03  1.223185114E+03  1.250000000E+02  0.00000E+00  9.000E+00
      21     1     1     2   512   502  9.139948936E+01 -4.927705302E+01 -1.968493870E+02  2.225573539E+02  4.672030912E-06  0.00000E+00  9.000E+00
#rwgt            1           1   8.5827125343558505E-002           8       31383           0
</event>
<event>
      5   9999  3.19816E-02  1.20204E+02 -1.00000E+00  1.20337E-01
      21    -1     0     0   502   501  0.000000000E+00  0.000000000E+00  1.562872168E+02  1.562872168E+02  0.000000000E+00  0.00000E+00  9.000E+00
       1    -1     0     0   501     0  0.000000000E+00  0.000000000E+00 -4.992219458E+02  4.992219458E+02  0.000000000E+00  0.00000E+00  9.000E+00
      25     1     1     2     0     0 -7.190223885E+01 -8.235374940E+00 -9.090060479E+01  1.706624543E+02  1.250000000E+02  0.00000E+00  9.000E+00
      25     1     1     2     0     0  1.912834178E+02  2.227566189E+01 -2.890621763E+01  2.314003467E+02  1.250000000E+02  0.00000E+00  9.000E+00
       1     1     1     2   502     0 -1.193811789E+02 -1.404028695E+01 -2.231279066E+02  2.534463616E+02  2.697398305E-06  0.00000E+00  9.000E+00
#rwgt            1           1   2.8733389777416334E-002           8       31471           0
</event>
<event>
      5   9999  3.19816E-02  4.44066E+01 -1.00000E+00  1.42080E-01
      21    -1     0     0   502   501  0.000000000E+00  0.000000000E+00  3.047013628E+03  3.047013628E+03  0.000000000E+00  0.00000E+00  9.000E+00
       1    -1     0     0   501     0  0.000000000E+00  0.000000000E+00 -1.281459762E+02  1.281459762E+02  0.000000000E+00  0.00000E+00  9.000E+00
      25     1     1     2     0     0 -5.536202225E+00  2.711500392E+02  2.722415568E+02  4.040958532E+02  1.250000000E+02  0.00000E+00  9.000E+00
      25     1     1     2     0     0  1.880676911E+01 -2.287727307E+02  2.693699340E+03  2.706350271E+03  1.250000000E+02  0.00000E+00  9.000E+00
       1     1     1     2   502     0 -1.327056688E+01 -4.237730849E+01 -4.707324425E+01  6.471348039E+01  2.523185073E-06  0.00000E+00  9.000E+00
#rwgt            1           1   5.1618402733805163E-002           8       31525           0
</event>
<event>
      5   9999  3.19816E-02  1.85255E+02 -1.00000E+00  1.12872E-01
       3    -1     0     0   502     0  0.000000000E+00  0.000000000E+00  2.755091542E+02  2.755091542E+02  0.000000000E+00  0.00000E+00  9.000E+00
      21    -1     0     0   501   502  0.000000000E+00  0.000000000E+00 -3.443701677E+03  3.443701677E+03  0.000000000E+00  0.00000E+00  9.000E+00
      25     1     1     2     0     0 -3.322055491E+02 -7.358764870E+01 -4.951054432E+02  6.136204599E+02  1.250000000E+02  0.00000E+00  9.000E+00
      25     1     1     2     0     0  3.912066530E+02  2.491958122E+02 -2.825284746E+03  2.865833229E+03  1.250000000E+02  0.00000E+00  9.000E+00
       3     1     1     2   501     0 -5.900110394E+01 -1.756081635E+02  1.521976670E+02  2.397571421E+02  1.907348633E-06  0.00000E+00  9.000E+00
#rwgt            2          19   2.1225828354160239E-004           8       31655           0
</event>
<event>
      5   9999  3.19816E-02  1.71200E+02 -1.00000E+00  1.14163E-01
      21    -1     0     0   502   511  0.000000000E+00  0.000000000E+00  1.601003528E+02  1.601003528E+02  0.000000000E+00  0.00000E+00  9.000E+00
      21    -1     0     0   501   502  0.000000000E+00  0.000000000E+00 -1.972710924E+03  1.972710924E+03  0.000000000E+00  0.00000E+00  9.000E+00
      25     1     1     2     0     0  4.287875103E+02 -2.558580838E+02 -7.682219674E+02  9.247227040E+02  1.250000000E+02  0.00000E+00  9.000E+00
      25     1     1     2     0     0 -2.646458160E+02  2.072059687E+02 -9.435511321E+02  1.009398564E+03  1.250000000E+02  0.00000E+00  9.000E+00
      21     1     1     2   501   511 -1.641416943E+02  4.865211508E+01 -1.008374720E+02  1.986900095E+02  1.907348633E-06  0.00000E+00  9.000E+00
#rwgt            1           1   2.6873713073772537E-002           8       31674           0
</event>
<event>
      5   9999  3.19816E-02  1.54964E+02 -1.00000E+00  1.15836E-01
      21    -1     0     0   502   501  0.000000000E+00  0.000000000E+00  3.109996949E+02  3.109996949E+02  0.000000000E+00  0.00000E+00  9.000E+00
      21    -1     0     0   512   502  0.000000000E+00  0.000000000E+00 -7.915867093E+02  7.915867093E+02  0.000000000E+00  0.00000E+00  9.000E+00
      25     1     1     2     0     0 -1.063683138E+02 -1.196747940E+02  2.447559699E+02  3.180672245E+02  1.250000000E+02  0.00000E+00  9.000E+00
      25     1     1     2     0     0 -3.688416248E+01  6.057639122E+01 -3.643695763E+02  3.916888162E+02  1.250000000E+02  0.00000E+00  9.000E+00
      21     1     1     2   512   501  1.432524763E+02  5.909840277E+01 -3.609734080E+02  3.928303635E+02  3.814697266E-06  0.00000E+00  9.000E+00
#rwgt            1           1   2.7236983120036039E-002           8       31729           0
</event>
<event>
      5   9999  3.19816E-02  9.23338E+01 -1.00000E+00  1.25406E-01
      21    -1     0     0   502   501  0.000000000E+00  0.000000000E+00  3.963016078E+02  3.963016078E+02  0.000000000E+00  0.00000E+00  9.000E+00
      21    -1     0     0   511   502  0.000000000E+00  0.000000000E+00 -1.302886937E+03  1.302886937E+03  0.000000000E+00  0.00000E+00  9.000E+00
      25     1     1     2     0     0  9.729884474E+01  2.173076156E+02  1.433571541E+02  3.047391321E+02  1.250000000E+02  0.00000E+00  9.000E+00
      25     1     1     2     0     0 -1.405894086E+02 -2.988640791E+02 -1.297732801E+01  3.533815653E+02  1.250000000E+02  0.00000E+00  9.000E+00
      21     1     1     2   511   501  4.329056390E+01  8.155646352E+01 -1.036965156E+03  1.041067848E+03  1.525878906E-05  0.00000E+00  9.000E+00
#rwgt            1           1   2.8726366021234288E-002           8       31797           0
</event>
<event>
      5   9999  3.19816E-02  8.04521E+01 -1.00000E+00  1.28231E-01
      21    -1     0     0   502   501  0.000000000E+00  0.000000000E+00  6.989347075E+02  6.989347075E+02  0.000000000E+00  0.00000E+00  9.000E+00
       2    -1     0     0   501     0  0.000000000E+00  0.000000000E+00 -1.648819408E+03  1.648819408E+03  0.000000000E+00  0.00000E+00  9.000E+00
      25     1     1     2     0     0  1.600026455E+02  1.466295928E+02  2.771769785E+02  3.735681483E+02  1.250000000E+02  0.00000E+00  9.000E+00
      25     1     1     2     0     0 -1.487678529E+02 -2.262933808E+02  3.128055262E+02  4.322185390E+02  1.250000000E+02  0.00000E+00  9.000E+00
       2     1     1     2   502     0 -1.123479258E+01  7.966378803E+01 -1.539867205E+03  1.541967428E+03  2.157918644E-05  0.00000E+00  9.000E+00
#rwgt            2          13   1.4442535011438870E-002           8       31916           0
</event>
<event>
      5   9999  3.19816E-02  4.63523E+01 -1.00000E+00  1.40979E-01
      21    -1     0     0   502   501  0.000000000E+00  0.000000000E+00  6.602033105E+02  6.602033105E+02  0.000000000E+00  0.00000E+00  9.000E+00
      21    -1     0     0   501   511  0.000000000E+00  0.000000000E+00 -3.773641357E+02  3.773641357E+02  0.000000000E+00  0.00000E+00  9.000E+00
      25     1     1     2     0     0  6.887747370E+00  2.056330797E+02  5.539664073E+02  6.040167092E+02  1.250000000E+02  0.00000E+00  9.000E+00
      25     1     1     2     0     0 -3.903856647E+01 -2.390225664E+02 -1.671727173E+02  3.197303776E+02  1.250000000E+02  0.00000E+00  9.000E+00
      21     1     1     2   502   511  3.215081910E+01  3.338948673E+01 -1.039545151E+02  1.138203594E+02  1.348699152E-06  0.00000E+00  9.000E+00
#rwgt            1           1   2.8330918275011170E-002           8       32010           0
</event>
<event>
      5   9999  3.19816E-02  8.71324E+01 -1.00000E+00  1.26580E-01
      21    -1     0     0   502   501  0.000000000E+00  0.000000000E+00  6.921585669E+02  6.921585669E+02  0.000000000E+00  0.00000E+00  9.000E+00
      21    -1     0     0   501   512  0.000000000E+00  0.000000000E+00 -9.738854924E+02  9.738854924E+02  0.000000000E+00  0.00000E+00  9.000E+00
      25     1     1     2     0     0  1.234317464E+02  8.941689829E+01  6.487210089E+02  6.780079093E+02  1.250000000E+02  0.00000E+00  9.000E+00
      25     1     1     2     0     0 -1.544010367E+02 -7.973927189E+00 -8.369148547E+02  8.602062181E+02  1.250000000E+02  0.00000E+00  9.000E+00
      21     1     1     2   502   512  3.096929023E+01 -8.144297110E+01 -9.353307973E+01  1.278299319E+02  1.907348633E-06  0.00000E+00  9.000E+00
#rwgt            1           1   3.2902107020214566E-002           8       32165           0
</event>
<event>
      5   9999  3.19816E-02  1.02236E+01 -1.00000E+00  1.94653E-01
      21    -1     0     0   511   501  0.000000000E+00  0.000000000E+00  7.269166298E+01  7.269166298E+01  0.000000000E+00  0.00000E+00  9.000E+00
      21    -1     0     0   501   502  0.000000000E+00  0.000000000E+00 -5.494352019E+02  5.494352019E+02  0.000000000E+00  0.00000E+00  9.000E+00
      25     1     1     2     0     0 -9.953305423E+01 -3.152713316E+01 -1.030518764E+02  1.927316223E+02  1.250000000E+02  0.00000E+00  9.000E+00
      25     1     1     2     0     0  9.244863990E+01  2.415597063E+01 -3.839347493E+02  4.149230695E+02  1.250000000E+02  0.00000E+00  9.000E+00
      21     1     1     2   511   502  7.084414333E+00  7.371162531E+00  1.024308681E+01  1.447217298E+01  2.665600750E-07  0.00000E+00  9.000E+00
#rwgt            1           1   2.5094418154597450E-002           8       32260           0
</event>
<event>
      5   9999  3.19816E-02  8.41078E+01 -1.00000E+00  1.27306E-01
      21    -1     0     0   512   501  0.000000000E+00  0.000000000E+00  4.471504425E+02  4.471504425E+02  0.000000000E+00  0.00000E+00  9.000E+00
      21    -1     0     0   501   502  0.000000000E+00  0.000000000E+00 -1.918105983E+02  1.918105983E+02  0.000000000E+00  0.00000E+00  9.000E+00
      25     1     1     2     0     0  1.781279457E+02 -1.194672251E+02 -2.930667633E+01  2.499717268E+02  1.250000000E+02  0.00000E+00  9.000E+00
      25     1     1     2     0     0 -1.127197970E+02  6.659091761E+01  1.937079749E+02  2.651186197E+02  1.250000000E+02  0.00000E+00  9.000E+00
      21     1     1     2   512   502 -6.540814870E+01  5.287630750E+01  9.093854561E+01  1.238706942E+02  0.000000000E+00  0.00000E+00  9.000E+00
#rwgt            1           1   2.7777862375895909E-002           8       32412           0
</event>
<event>
      5   9999  3.19816E-02  3.37707E+02 -1.00000E+00  1.03948E-01
       1    -1     0     0   502     0  0.000000000E+00  0.000000000E+00  5.829730731E+02  5.829730731E+02  0.000000000E+00  0.00000E+00  9.000E+00
      21    -1     0     0   501   502  0.000000000E+00  0.000000000E+00 -1.165630885E+03  1.165630885E+03  0.000000000E+00  0.00000E+00  9.000E+00
      25     1     1     2     0     0  1.045350277E+02  2.131088778E+02  1.955225958E+02  3.319594121E+02  1.250000000E+02  0.00000E+00  9.000E+00
      25     1     1     2     0     0 -3.769874194E+02 -4.126482139E+02 -8.921991744E+02  1.060208673E+03  1.250000000E+02  0.00000E+00  9.000E+00
       1     1     1     2   501     0  2.724523917E+02  1.995393360E+02  1.140187669E+02  3.564358730E+02  2.697398305E-06  0.00000E+00  9.000E+00
#rwgt            2          17   2.6176726510710011E-004           8       32506           0
</event>
<event>
      5   9999  3.19816E-02  2.36237E+01 -1.00000E+00  1.60615E-01
      21    -1     0     0   502   501  0.000000000E+00  0.000000000E+00  2.162731755E+02  2.162731755E+02  0.000000000E+00  0.00000E+00  9.000E+00
      21    -1     0     0   501   511  0.000000000E+00  0.000000000E+00 -6.396186195E+02  6.396186195E+02  0.000000000E+00  0.00000E+00  9.000E+00
      25     1     1     2     0     0 -2.372082394E+01 -2.000562757E+02 -1.600430633E+02  2.860488997E+02  1.250000000E+02  0.00000E+00  9.000E+00
      25     1     1     2     0     0  4.584500137E+01  1.917737573E+02  6.369460545E+01  2.419936795E+02  1.250000000E+02  0.00000E+00  9.000E+00
      21     1     1     2   502   511 -2.212417743E+01  8.282518361E+00 -3.269969862E+02  3.278492158E+02  0.000000000E+00  0.00000E+00  9.000E+00
#rwgt            1           1   2.8796332292389534E-002           8       32540           0
</event>
<event>
      5   9999  3.19816E-02  3.93306E+01 -1.00000E+00  1.45296E-01
      21    -1     0     0   502   501  0.000000000E+00  0.000000000E+00  4.641417127E+02  4.641417127E+02  0.000000000E+00  0.00000E+00  9.000E+00
      21    -1     0     0   501   512  0.000000000E+00  0.000000000E+00 -6.984928434E+02  6.984928434E+02  0.000000000E+00  0.00000E+00  9.000E+00
      25     1     1     2     0     0 -4.791858630E+02 -1.111830097E+02 -2.714549992E+02  5.755810712E+02  1.250000000E+02  0.00000E+00  9.000E+00
      25     1     1     2     0     0  5.119670633E+02  1.329151619E+02  4.964632363E+01  5.457714463E+02  1.250000000E+02  0.00000E+00  9.000E+00
      21     1     1     2   502   512 -3.278120029E+01 -2.173215212E+01 -1.254245507E+01  4.128203856E+01  6.078504936E-07  0.00000E+00  9.000E+00
#rwgt            1           1   2.9300687343120423E-002           8       32740           0
</event>
<event>
      5   9999  3.19816E-02  5.96767E+01 -1.00000E+00  1.34829E-01
      21    -1     0     0   502   501  0.000000000E+00  0.000000000E+00  9.634602310E+01  9.634602310E+01  0.000000000E+00  0.00000E+00  9.000E+00
      21    -1     0     0   501   511  0.000000000E+00  0.000000000E+00 -9.923018825E+02  9.923018825E+02  0.000000000E+00  0.00000E+00  9.000E+00
      25     1     1     2     0     0  2.488598033E+02 -6.235805747E+01 -2.834165601E+02  4.022060113E+02  1.250000000E+02  0.00000E+00  9.000E+00
      25     1     1     2     0     0 -1.946950832E+02  3.730838441E+01 -3.807588283E+02  4.471021989E+02  1.250000000E+02  0.00000E+00  9.000E+00
      21     1     1     2   502   511 -5.416472007E+01  2.504967307E+01 -2.317804711E+02  2.393396954E+02  2.697398305E-06  0.00000E+00  9.000E+00
#rwgt            1           1   3.2816128656325702E-002           8       32870           0
</event>
<event>
      5   9999  3.19816E-02  4.51007E+02 -1.00000E+00  1.00141E-01
      21    -1     0     0   502   501  0.000000000E+00  0.000000000E+00  2.668190889E+03  2.668190889E+03  0.000000000E+00  0.00000E+00  9.000E+00
      -2    -1     0     0     0   502  0.000000000E+00  0.000000000E+00 -2.769517896E+02  2.769517896E+02  0.000000000E+00  0.00000E+00  9.000E+00
      25     1     1     2     0     0  1.348701115E+01 -1.263037956E+02  2.143004766E+02  2.787189311E+02  1.250000000E+02  0.00000E+00  9.000E+00
      25     1     1     2     0     0 -2.804953521E+02 -2.371709013E+02  2.181153694E+03  2.215397056E+03  1.250000000E+02  0.00000E+00  9.000E+00
      -2     1     1     2     0   501  2.670083409E+02  3.634746969E+02 -4.215071414E+00  4.510266913E+02  1.145262574E-05  0.00000E+00  9.000E+00
#rwgt            2           9   8.3880609217171567E-004           8       33074           0
</event>
<event>
      5   9999  3.19816E-02  3.19077E+01 -1.00000E+00  1.51203E-01
      21    -1     0     0   502   501  0.000000000E+00  0.000000000E+00  9.474819333E+02  9.474819333E+02  0.000000000E+00  0.00000E+00  9.000E+00
      21    -1     0     0   501   511  0.000000000E+00  0.000000000E+00 -7.220057703E+02  7.220057703E+02  0.000000000E+00  0.00000E+00  9.000E+00
      25     1     1     2     0     0 -7.948191636E+01  2.402173376E+02  8.955800427E+02  9.389943329E+02  1.250000000E+02  0.00000E+00  9.000E+00
      25     1     1     2     0     0  7.052855280E+01 -2.095915878E+02 -6.297212326E+02  6.790263185E+02  1.250000000E+02  0.00000E+00  9.000E+00
      21     1     1     2   502   511  8.953363563E+00 -3.062574973E+01 -4.038264720E+01  5.146705219E+01  4.768371582E-07  0.00000E+00  9.000E+00
#rwgt            1           1   2.8304434107309994E-002           8       33093           0
</event>
<event>
      5   9999  3.19816E-02  3.09550E+01 -1.00000E+00  1.52101E-01
      21    -1     0     0   502   501  0.000000000E+00  0.000000000E+00  3.120347453E+02  3.120347453E+02  0.000000000E+00  0.00000E+00  9.000E+00
      21    -1     0     0   501   512  0.000000000E+00  0.000000000E+00 -3.249474531E+02  3.249474531E+02  0.000000000E+00  0.00000E+00  9.000E+00
      25     1     1     2     0     0  3.110573962E+01 -5.620409775E+01  2.623219912E+02  2.975975381E+02  1.250000000E+02  0.00000E+00  9.000E+00
      25     1     1     2     0     0 -2.273904785E+00  6.747063465E+01 -2.737218157E+02  3.083927521E+02  1.250000000E+02  0.00000E+00  9.000E+00
      21     1     1     2   502   512 -2.883183484E+01 -1.126653691E+01 -1.512883277E+00  3.099190813E+01  3.264680848E-07  0.00000E+00  9.000E+00
#rwgt            1           1   2.4074045465247912E-002           8       33241           0
</event>
<event>
      5   9999  3.67793E-02  4.54915E+01 -1.00000E+00  1.41458E-01
      21    -1     0     0   511   501  0.000000000E+00  0.000000000E+00  8.699831513E+01  8.699831513E+01  0.000000000E+00  0.00000E+00  9.000E+00
      21    -1     0     0   501   502  0.000000000E+00  0.000000000E+00 -2.110293119E+03  2.110293119E+03  0.000000000E+00  0.00000E+00  9.000E+00
      25     1     1     2     0     0 -5.396298053E+01  1.853893033E+02 -1.816213185E+03  1.830720221E+03  1.250000000E+02  0.00000E+00  9.000E+00
      25     1     1     2     0     0  9.252446325E+01 -1.612544705E+02 -2.251543182E+02  3.176212328E+02  1.250000000E+02  0.00000E+00  9.000E+00
      21     1     1     2   511   502 -3.856148272E+01 -2.413483282E+01  1.807269879E+01  4.894998005E+01  2.384185791E-07  0.00000E+00  9.000E+00
#rwgt            1           1  0.11085884056241456                8       33307           0
</event>
<event>
      5   9999  3.35156E-02  1.82998E+02 -1.00000E+00  1.13071E-01
      21    -1     0     0   512   501  0.000000000E+00  0.000000000E+00  3.111106525E+03  3.111106525E+03  0.000000000E+00  0.00000E+00  9.000E+00
      21    -1     0     0   501   502  0.000000000E+00  0.000000000E+00 -3.350709186E+02  3.350709186E+02  0.000000000E+00  0.00000E+00  9.000E+00
      25     1     1     2     0     0 -2.659502052E+02  2.177277525E+02  1.631678136E+03  1.672164293E+03  1.250000000E+02  0.00000E+00  9.000E+00
      25     1     1     2     0     0  3.790751198E+02 -7.388455465E+01 -1.749831015E+02  4.420418076E+02  1.250000000E+02  0.00000E+00  9.000E+00
      21     1     1     2   512   502 -1.131249146E+02 -1.438431978E+02  1.319340573E+03  1.331971343E+03  0.000000000E+00  0.00000E+00  9.000E+00
#rwgt            1           1   3.1108572942622550E-002           8       33406           0
</event>
<event>
      5   9999  3.19816E-02  3.18215E+02 -1.00000E+00  1.04767E-01
      21    -1     0     0   502   501  0.000000000E+00  0.000000000E+00  1.794063668E+03  1.794063668E+03  0.000000000E+00  0.00000E+00  9.000E+00
      21    -1     0     0   511   502  0.000000000E+00  0.000000000E+00 -5.403406983E+02  5.403406983E+02  0.000000000E+00  0.00000E+00  9.000E+00
      25     1     1     2     0     0 -1.193584137E+02  7.484550015E+02  4.072119317E+02  8.694123748E+02  1.250000000E+02  0.00000E+00  9.000E+00
      25     1     1     2     0     0  4.057283916E+02 -6.096986229E+02  8.722089651E+02  1.145740554E+03  1.250000000E+02  0.00000E+00  9.000E+00
      21     1     1     2   511   501 -2.863699779E+02 -1.387563786E+02 -2.569792710E+01  3.192514375E+02  4.659848281E-06  0.00000E+00  9.000E+00
#rwgt            2          11   4.8269540995329414E-003           8       33491           0
</event>
<event>
      5   9999  3.19816E-02  8.81781E+01 -1.00000E+00  1.26336E-01
      21    -1     0     0   512   501  0.000000000E+00  0.000000000E+00  3.269032455E+03  3.269032455E+03  0.000000000E+00  0.00000E+00  9.000E+00
      21    -1     0     0   501   502  0.000000000E+00  0.000000000E+00 -4.422878811E+02  4.422878811E+02  0.000000000E+00  0.00000E+00  9.000E+00
      25     1     1     2     0     0 -3.342242165E+02 -1.017972460E+03  5.980175870E+02  1.233379013E+03  1.250000000E+02  0.00000E+00  9.000E+00
      25     1     1     2     0     0  2.933570202E+02  9.398363745E+02  1.997377250E+03  2.230356839E+03  1.250000000E+02  0.00000E+00  9.000E+00
      21     1     1     2   512   502  4.086719628E+01  7.813608555E+01  2.313497368E+02  2.475844832E+02  2.697398305E-06  0.00000E+00  9.000E+00
#rwgt            1           1   7.3728683289948110E-002           8       33541           0
</event>
<event>
      5   9999  3.19816E-02  1.21576E+02 -1.00000E+00  1.20128E-01
      21    -1     0     0   502   501  0.000000000E+00  0.000000000E+00  2.114390747E+03  2.114390747E+03  0.000000000E+00  0.00000E+00  9.000E+00
      21    -1     0     0   511   502  0.000000000E+00  0.000000000E+00 -1.666134423E+02  1.666134423E+02  0.000000000E+00  0.00000E+00  9.000E+00
      25     1     1     2     0     0 -1.189519293E+01  1.198901249E+02  4.859855110E+01  1.802829910E+02  1.250000000E+02  0.00000E+00  9.000E+00
      25     1     1     2     0     0  1.223179707E+02 -6.902190678E+01  1.957059256E+03  1.966070101E+03  1.250000000E+02  0.00000E+00  9.000E+00
      21     1     1     2   511   501 -1.104227778E+02 -5.086821816E+01 -5.788050251E+01  1.346510975E+02  1.348699152E-06  0.00000E+00  9.000E+00
#rwgt            1           1   2.6693867583077693E-002           8       33675           0
</event>
<event>
      5   9999  3.19816E-02  2.67189E+01 -1.00000E+00  1.56618E-01
      21    -1     0     0   512   501  0.000000000E+00  0.000000000E+00  3.849608547E+02  3.849608547E+02  0.000000000E+00  0.00000E+00  9.000E+00
      21    -1     0     0   501   502  0.000000000E+00  0.000000000E+00 -1.244636069E+03  1.244636069E+03  0.000000000E+00  0.00000E+00  9.000E+00
      25     1     1     2     0     0 -1.578289944E+02  1.461576569E+02 -1.114088063E+02  2.725967245E+02  1.250000000E+02  0.00000E+00  9.000E+00
      25     1     1     2     0     0  1.344334725E+02 -1.590630644E+02 -1.037998319E+03  1.066038896E+03  1.250000000E+02  0.00000E+00  9.000E+00
      21     1     1     2   512   502  2.339552183E+01  1.290540756E+01  2.897319108E+02  2.909613035E+02  3.814697266E-06  0.00000E+00  9.000E+00
#rwgt            1           1   2.7675119046403535E-002           8       33773           0
</event>
<event>
      5   9999  3.19816E-02  8.10375E+01 -1.00000E+00  1.28079E-01
      21    -1     0     0   511   501  0.000000000E+00  0.000000000E+00  1.256497270E+03  1.256497270E+03  0.000000000E+00  0.00000E+00  9.000E+00
      21    -1     0     0   501   502  0.000000000E+00  0.000000000E+00 -6.887371460E+02  6.887371460E+02  0.000000000E+00  0.00000E+00  9.000E+00
      25     1     1     2     0     0  2.083725893E+02 -4.399257292E+02 -5.181045539E+02  7.218109946E+02  1.250000000E+02  0.00000E+00  9.000E+00
      25     1     1     2     0     0 -1.934727437E+02  3.602697984E+02  1.052016468E+03  1.135601021E+03  1.250000000E+02  0.00000E+00  9.000E+00
      21     1     1     2   511   502 -1.489984555E+01  7.965593073E+01  3.384821004E+01  8.782240045E+01  4.768371582E-07  0.00000E+00  9.000E+00
#rwgt            1           1   3.3741718590465736E-002           8       33937           0
</event>
<event>
      5   9999  3.19816E-02  2.01086E+01 -1.00000E+00  1.66175E-01
      21    -1     0     0   502   501  0.000000000E+00  0.000000000E+00  1.411399281E+02  1.411399281E+02  0.000000000E+00  0.00000E+00  9.000E+00
      21    -1     0     0   512   502  0.000000000E+00  0.000000000E+00 -3.870823194E+02  3.870823194E+02  0.000000000E+00  0.00000E+00  9.000E+00
      25     1     1     2     0     0 -2.526989622E+01 -5.464560691E+01 -2.349424196E+02  2.728509676E+02  1.250000000E+02  0.00000E+00  9.000E+00
      25     1     1     2     0     0  3.219357443E+01  7.352468118E+01  7.545006410E+01  1.666133763E+02  1.250000000E+02  0.00000E+00  9.000E+00
      21     1     1     2   512   501 -6.923678209E+00 -1.887907426E+01 -8.645003581E+01  8.875790363E+01  9.536743164E-07  0.00000E+00  9.000E+00
#rwgt            1           1   2.7528661136320715E-002           8       34028           0
</event>
<event>
      5   9999  3.19816E-02  5.64535E+01 -1.00000E+00  1.36133E-01
      21    -1     0     0   502   501  0.000000000E+00  0.000000000E+00  1.082517980E+03  1.082517980E+03  0.000000000E+00  0.00000E+00  9.000E+00
       2    -1     0     0   501     0  0.000000000E+00  0.000000000E+00 -1.350686368E+03  1.350686368E+03  0.000000000E+00  0.00000E+00  9.000E+00
      25     1     1     2     0     0  6.791493924E+01  7.128614687E+02  6.861910213E+02  9.996334479E+02  1.250000000E+02  0.00000E+00  9.000E+00
      25     1     1     2     0     0 -1.392873072E+01 -7.293686606E+02 -3.363276258E+02  8.129661275E+02  1.250000000E+02  0.00000E+00  9.000E+00
       2     1     1     2   502     0 -5.398620852E+01  1.650719190E+01 -6.180317835E+02  6.206047724E+02  7.629394531E-06  0.00000E+00  9.000E+00
#rwgt            1           1   3.5684631846987648E-002           8       34197           0
</event>
<event>
      5   9999  3.19816E-02  9.76855E+01 -1.00000E+00  1.24287E-01
      21    -1     0     0   511   501  0.000000000E+00  0.000000000E+00  2.709654041E+03  2.709654041E+03  0.000000000E+00  0.00000E+00  9.000E+00
      21    -1     0     0   501   502  0.000000000E+00  0.000000000E+00 -1.634385297E+02  1.634385297E+02  0.000000000E+00  0.00000E+00  9.000E+00
      25     1     1     2     0     0 -5.158781904E+02 -2.692633392E+02  1.573377739E+03  1.682193676E+03  1.250000000E+02  0.00000E+00  9.000E+00
      25     1     1     2     0     0  5.220440909E+02  1.717726238E+02  6.857407131E+02  8.876379852E+02  1.250000000E+02  0.00000E+00  9.000E+00
      21     1     1     2   511   502 -6.165900528E+00  9.749071546E+01  2.870970588E+02  3.032609093E+02  3.814697266E-06  0.00000E+00  9.000E+00
#rwgt            2          11   3.8346740903235574E-003           8       34391           0
</event>
<event>
      5   9999  3.19816E-02  4.87984E+01 -1.00000E+00  1.39681E-01
      21    -1     0     0   502   501  0.000000000E+00  0.000000000E+00  1.682062152E+02  1.682062152E+02  0.000000000E+00  0.00000E+00  9.000E+00
       1    -1     0     0   501     0  0.000000000E+00  0.000000000E+00 -1.096842798E+03  1.096842798E+03  0.000000000E+00  0.00000E+00  9.000E+00
      25     1     1     2     0     0  2.663169381E+02 -2.364009361E+02 -4.171510380E+02  5.625389788E+02  1.250000000E+02  0.00000E+00  9.000E+00
      25     1     1     2     0     0 -2.695409867E+02  2.850927591E+02 -3.726883109E+02  5.553843731E+02  1.250000000E+02  0.00000E+00  9.000E+00
       1     1     1     2   502     0  3.224048583E+00 -4.869182298E+01 -1.387972342E+02  1.471256617E+02  2.697398305E-06  0.00000E+00  9.000E+00
#rwgt            1           1   2.7749340541547846E-002           8       34426           0
</event>
<event>
      5   9999  3.19816E-02  4.10527E+01 -1.00000E+00  1.44144E-01
      21    -1     0     0   511   501  0.000000000E+00  0.000000000E+00  1.353980671E+03  1.353980671E+03  0.000000000E+00  0.00000E+00  9.000E+00
      21    -1     0     0   501   502  0.000000000E+00  0.000000000E+00 -1.108855903E+03  1.108855903E+03  0.000000000E+00  0.00000E+00  9.000E+00
      25     1     1     2     0     0  7.810480958E+02 -5.682777433E+02  3.611641608E+02  1.038768633E+03  1.250000000E+02  0.00000E+00  9.000E+00
      25     1     1     2     0     0 -7.662496460E+02  6.065703857E+02 -4.531605689E+02  1.084456386E+03  1.250000000E+02  0.00000E+00  9.000E+00
      21     1     1     2   511   502 -1.479844973E+01 -3.829264245E+01  3.371211758E+02  3.396115542E+02  3.814697266E-06  0.00000E+00  9.000E+00
#rwgt            1           1   3.0490542681360061E-002           8       34549           0
</event>
<event>
      5   9999  3.43880E-02  6.48932E+01 -1.00000E+00  1.32909E-01
      21    -1     0     0   502   501  0.000000000E+00  0.000000000E+00  3.910141499E+02  3.910141499E+02  0.000000000E+00  0.00000E+00  9.000E+00
      21    -1     0     0   501   512  0.000000000E+00  0.000000000E+00 -8.992199981E+02  8.992199981E+02  0.000000000E+00  0.00000E+00  9.000E+00
      25     1     1     2     0     0  4.379279664E+01 -3.266504310E+02  2.498352703E+02  4.320427934E+02  1.250000000E+02  0.00000E+00  9.000E+00
      25     1     1     2     0     0 -1.000802399E+02  2.943571536E+02 -5.978502868E+02  6.853554944E+02  1.250000000E+02  0.00000E+00  9.000E+00
      21     1     1     2   502   512  5.628744331E+01  3.229327732E+01 -1.601908316E+02  1.728358602E+02  0.000000000E+00  0.00000E+00  9.000E+00
#rwgt            1           1   3.4130374139457416E-002           8       34689           0
</event>
<event>
      5   9999  3.19816E-02  7.86157E+01 -1.00000E+00  1.28717E-01
      21    -1     0     0   511   501  0.000000000E+00  0.000000000E+00  7.437133827E+02  7.437133827E+02  0.000000000E+00  0.00000E+00  9.000E+00
      21    -1     0     0   501   502  0.000000000E+00  0.000000000E+00 -2.918910599E+02  2.918910599E+02  0.000000000E+00  0.00000E+00  9.000E+00
      25     1     1     2     0     0  5.882635950E+01 -3.146106149E+02 -1.114839904E+02  3.612396153E+02  1.250000000E+02  0.00000E+00  9.000E+00
      25     1     1     2     0     0 -6.337801856E+01  2.361267838E+02  5.104953336E+02  5.796577584E+02  1.250000000E+02  0.00000E+00  9.000E+00
      21     1     1     2   511   502  4.551659059E+00  7.848383110E+01  5.281097957E+01  9.470706894E+01  2.236564522E-06  0.00000E+00  9.000E+00
#rwgt            1           1   2.8703777873228330E-002           8       34814           0
</event>
<event>
      5   9999  3.19816E-02  2.03992E+01 -1.00000E+00  1.65664E-01
      21    -1     0     0   502   501  0.000000000E+00  0.000000000E+00  2.138941093E+02  2.138941093E+02  0.000000000E+00  0.00000E+00  9.000E+00
      21    -1     0     0   501   512  0.000000000E+00  0.000000000E+00 -3.084059690E+02  3.084059690E+02  0.000000000E+00  0.00000E+00  9.000E+00
      25     1     1     2     0     0  9.245798249E+01  1.754610517E+02  1.839502422E+01  2.351561951E+02  1.250000000E+02  0.00000E+00  9.000E+00
      25     1     1     2     0     0 -1.060742064E+02 -1.602713561E+02 -7.013286554E+01  2.397545905E+02  1.250000000E+02  0.00000E+00  9.000E+00
      21     1     1     2   502   512  1.361622392E+01 -1.518969566E+01 -4.277401843E+01  4.738929268E+01  8.259061849E-07  0.00000E+00  9.000E+00
#rwgt            1           1   2.6967472696651312E-002           8       34880           0
</event>
<event>
      5   9999  3.19816E-02  2.64647E+01 -1.00000E+00  1.56921E-01
       2    -1     0     0   502     0  0.000000000E+00  0.000000000E+00  1.621289205E+03  1.621289205E+03  0.000000000E+00  0.00000E+00  9.000E+00
      21    -1     0     0   501   502  0.000000000E+00  0.000000000E+00 -5.852350677E+02  5.852350677E+02  0.000000000E+00  0.00000E+00  9.000E+00
      25     1     1     2     0     0  1.693308536E+02  1.066443187E+02 -5.515945403E+02  5.999395683E+02  1.250000000E+02  0.00000E+00  9.000E+00
      25     1     1     2     0     0 -1.525235457E+02 -8.620186516E+01  1.297146254E+03  1.314879309E+03  1.250000000E+02  0.00000E+00  9.000E+00
       2     1     1     2   501     0 -1.680730786E+01 -2.044245352E+01  2.905024233E+02  2.917053949E+02  3.814697266E-06  0.00000E+00  9.000E+00
#rwgt            1           1   3.4062683573959508E-002           8       35043           0
</event>
<event>
      5   9999  3.19816E-02  4.55480E+01 -1.00000E+00  1.41426E-01
      21    -1     0     0   502   511  0.000000000E+00  0.000000000E+00  2.858818074E+02  2.858818074E+02  0.000000000E+00  0.00000E+00  9.000E+00
      21    -1     0     0   501   502  0.000000000E+00  0.000000000E+00 -5.440135483E+02  5.440135483E+02  0.000000000E+00  0.00000E+00  9.000E+00
      25     1     1     2     0     0 -1.388547250E+02  2.656736875E+02 -2.614429705E+02  4.169419261E+02  1.250000000E+02  0.00000E+00  9.000E+00
      25     1     1     2     0     0  1.556978706E+02 -3.079930603E+02  8.208304637E+00  3.671429264E+02  1.250000000E+02  0.00000E+00  9.000E+00
      21     1     1     2   501   511 -1.684314562E+01  4.231937279E+01 -4.897075075E+00  4.581050329E+01  7.077659420E-07  0.00000E+00  9.000E+00
#rwgt            1           1   2.4514439825115707E-002           8       35216           0
</event>
<event>
      5   9999  3.19816E-02  2.30048E+02 -1.00000E+00  1.09479E-01
       2    -1     0     0   502     0  0.000000000E+00  0.000000000E+00  3.462059345E+03  3.462059345E+03  0.000000000E+00  0.00000E+00  9.000E+00
      21    -1     0     0   501   502  0.000000000E+00  0.000000000E+00 -3.452979594E+02  3.452979594E+02  0.000000000E+00  0.00000E+00  9.000E+00
      25     1     1     2     0     0 -9.329863560E+01 -3.162417044E+02  1.157836898E+03  1.210340751E+03  1.250000000E+02  0.00000E+00  9.000E+00
      25     1     1     2     0     0 -4.834226433E+01  1.349692023E+02 -2.842818319E+02  3.420450556E+02  1.250000000E+02  0.00000E+00  9.000E+00
       2     1     1     2   501     0  1.416408999E+02  1.812725020E+02  2.243206320E+03  2.254971498E+03  0.000000000E+00  0.00000E+00  9.000E+00
#rwgt            2          18   1.4913939778818401E-003           8       35382           0
</event>
<event>
      5   9999  3.19816E-02  2.78992E+02 -1.00000E+00  1.06627E-01
      21    -1     0     0   502   501  0.000000000E+00  0.000000000E+00  1.829622422E+03  1.829622422E+03  0.000000000E+00  0.00000E+00  9.000E+00
      21    -1     0     0   511   502  0.000000000E+00  0.000000000E+00 -8.208003265E+02  8.208003265E+02  0.000000000E+00  0.00000E+00  9.000E+00
      25     1     1     2     0     0  2.278482488E+01  3.622088950E+02  7.384449633E+02  8.322502002E+02  1.250000000E+02  0.00000E+00  9.000E+00
      25     1     1     2     0     0  2.552480257E+02 -3.853189279E+02  9.608110097E+02  1.073501293E+03  1.250000000E+02  0.00000E+00  9.000E+00
      21     1     1     2   511   501 -2.780328505E+02  2.311003288E+01 -6.904338771E+02  7.446712552E+02  7.629394531E-06  0.00000E+00  9.000E+00
#rwgt            1           1   2.8457066299286602E-002           8       35476           0
</event>
<event>
      5   9999  3.19816E-02  1.60913E+02 -1.00000E+00  1.15198E-01
      21    -1     0     0   502   501  0.000000000E+00  0.000000000E+00  9.341036471E+02  9.341036471E+02  0.000000000E+00  0.00000E+00  9.000E+00
       2    -1     0     0   501     0  0.000000000E+00  0.000000000E+00 -6.959006701E+02  6.959006701E+02  0.000000000E+00  0.00000E+00  9.000E+00
      25     1     1     2     0     0  3.564051814E+02  1.395466928E+02 -2.765922665E+02  4.884938226E+02  1.250000000E+02  0.00000E+00  9.000E+00
      25     1     1     2     0     0 -2.338332205E+02 -3.529239177E+01  7.837259500E+02  8.281152653E+02  1.250000000E+02  0.00000E+00  9.000E+00
       2     1     1     2   502     0 -1.225719609E+02 -1.042543010E+02 -2.689307065E+02  3.133952293E+02  0.000000000E+00  0.00000E+00  9.000E+00
#rwgt            1           1   2.7626958730153871E-002           8       35516           0
</event>
<event>
      5   9999  3.19816E-02  8.67505E+01 -1.00000E+00  1.26669E-01
      21    -1     0     0   502   511  0.000000000E+00  0.000000000E+00  3.125515848E+02  3.125515848E+02  0.000000000E+00  0.00000E+00  9.000E+00
      21    -1     0     0   501   502  0.000000000E+00  0.000000000E+00 -2.484614284E+02  2.484614284E+02  0.000000000E+00  0.00000E+00  9.000E+00
      25     1     1     2     0     0 -1.603212328E+02 -6.463694116E+01 -8.826422467E+01  2.308601421E+02  1.250000000E+02  0.00000E+00  9.000E+00
      25     1     1     2     0     0  9.624537898E+01  1.231170810E+02  1.357862691E+02  2.418344464E+02  1.250000000E+02  0.00000E+00  9.000E+00
      21     1     1     2   501   511  6.407585382E+01 -5.848013986E+01  1.656811202E+01  8.831842467E+01  1.846782373E-06  0.00000E+00  9.000E+00
#rwgt            1           1   3.3838056064226560E-002           8       35555           0
</event>
<event>
      5   9999  3.19816E-02  3.84250E+01 -1.00000E+00  1.45930E-01
      21    -1     0     0   502   501  0.000000000E+00  0.000000000E+00  5.083924714E+02  5.083924714E+02  0.000000000E+00  0.00000E+00  9.000E+00
      -1    -1     0     0     0   502  0.000000000E+00  0.000000000E+00 -3.587912684E+02  3.587912684E+02  0.000000000E+00  0.00000E+00  9.000E+00
      25     1     1     2     0     0 -9.196678281E+01  1.178191722E+02  6.491311996E+01  2.053727334E+02  1.250000000E+02  0.00000E+00  9.000E+00
      25     1     1     2     0     0  5.752120129E+01 -1.007902220E+02  3.523196044E+02  3.914351301E+02  1.250000000E+02  0.00000E+00  9.000E+00
      -1     1     1     2     0   501  3.444558152E+01 -1.702895023E+01 -2.676315214E+02  2.703758763E+02  0.000000000E+00  0.00000E+00  9.000E+00
#rwgt            1           1   3.1269374138095919E-002           8       35624           0
</event>
<event>
      5   9999  3.19816E-02  5.79366E+01 -1.00000E+00  1.35521E-01
      21    -1     0     0   502   501  0.000000000E+00  0.000000000E+00  2.320261216E+02  2.320261216E+02  0.000000000E+00  0.00000E+00  9.000E+00
       2    -1     0     0   501     0  0.000000000E+00  0.000000000E+00 -1.360713064E+03  1.360713064E+03  0.000000000E+00  0.00000E+00  9.000E+00
      25     1     1     2     0     0 -2.344389842E+02  2.721065058E+02 -8.228330855E+01  3.891004120E+02  1.250000000E+02  0.00000E+00  9.000E+00
      25     1     1     2     0     0  2.056328458E+02 -3.223743827E+02 -4.467100154E+02  6.011530153E+02  1.250000000E+02  0.00000E+00  9.000E+00
       2     1     1     2   502     0  2.880613840E+01  5.026787695E+01 -5.996936179E+02  6.024857578E+02  1.078959322E-05  0.00000E+00  9.000E+00
#rwgt            1           1   2.9019418715099929E-002           8       35728           0
</event>
<event>
      5   9999  3.19816E-02  1.04120E+02 -1.00000E+00  1.23044E-01
      21    -1     0     0   502   501  0.000000000E+00  0.000000000E+00  1.347004557E+03  1.347004557E+03  0.000000000E+00  0.00000E+00  9.000E+00
      21    -1     0     0   511   502  0.000000000E+00  0.000000000E+00 -7.439709983E+02  7.439709983E+02  0.000000000E+00  0.00000E+00  9.000E+00
      25     1     1     2     0     0  6.367641396E+02  4.740644759E+02 -5.380819721E+01  8.054352977E+02  1.250000000E+02  0.00000E+00  9.000E+00
      25     1     1     2     0     0 -5.356026656E+02 -4.987084952E+02  8.110014091E+02  1.099512921E+03  1.250000000E+02  0.00000E+00  9.000E+00
      21     1     1     2   511   501 -1.011614740E+02  2.464401928E+01 -1.541596528E+02  1.860273368E+02  2.697398305E-06  0.00000E+00  9.000E+00
#rwgt            1           1   3.0148932501606010E-002           8       35857           0
</event>
<event>
      5   9999  3.19816E-02  1.46537E+02 -1.00000E+00  1.16797E-01
      21    -1     0     0   502   501  0.000000000E+00  0.000000000E+00  4.790160429E+02  4.790160429E+02  0.000000000E+00  0.00000E+00  9.000E+00
      21    -1     0     0   512   502  0.000000000E+00  0.000000000E+00 -5.462769366E+02  5.462769366E+02  0.000000000E+00  0.00000E+00  9.000E+00
      25     1     1     2     0     0  1.356033742E+02 -1.159238208E+02  3.903497726E+02  4.470173960E+02  1.250000000E+02  0.00000E+00  9.000E+00
      25     1     1     2     0     0 -1.356205556E+02 -3.061327705E+01 -1.581359013E+02  2.448715400E+02  1.250000000E+02  0.00000E+00  9.000E+00
      21     1     1     2   512   501  1.718140726E-02  1.465370978E+02 -2.994747650E+02  3.334040435E+02  3.814697266E-06  0.00000E+00  9.000E+00
#rwgt            1           1   2.8787464364494593E-002           8       35923           0
</event>
<event>
      5   9999  3.19816E-02  5.15707E+01 -1.00000E+00  1.38313E-01
      21    -1     0     0   502   501  0.000000000E+00  0.000000000E+00  1.605804143E+02  1.605804143E+02  0.000000000E+00  0.00000E+00  9.000E+00
      21    -1     0     0   511   502  0.000000000E+00  0.000000000E+00 -4.792176760E+02  4.792176760E+02  0.000000000E+00  0.00000E+00  9.000E+00
      25     1     1     2     0     0 -1.699717814E+02 -8.589783609E+01 -4.992970095E+01  2.332098192E+02  1.250000000E+02  0.00000E+00  9.000E+00
      25     1     1     2     0     0  1.547409293E+02  3.662757902E+01 -9.144504986E+01  2.219764220E+02  1.250000000E+02  0.00000E+00  9.000E+00
      21     1     1     2   511   501  1.523085205E+01  4.927025707E+01 -1.772625109E+02  1.846118492E+02  3.303624740E-06  0.00000E+00  9.000E+00
#rwgt            1           1   2.8172511581398735E-002           8       35999           0
</event>
<event>
      5   9999  3.19816E-02  1.32444E+01 -1.00000E+00  1.82632E-01
      21    -1     0     0   512   501  0.000000000E+00  0.000000000E+00  3.910139374E+02  3.910139374E+02  0.000000000E+00  0.00000E+00  9.000E+00
      21    -1     0     0   501   502  0.000000000E+00  0.000000000E+00 -8.088523336E+02  8.088523336E+02  0.000000000E+00  0.00000E+00  9.000E+00
      25     1     1     2     0     0 -2.947356416E+02 -3.362590056E+02 -4.913188096E-01  4.642891972E+02  1.250000000E+02  0.00000E+00  9.000E+00
      25     1     1     2     0     0  2.938876599E+02  3.230417355E+02 -4.862430624E+02  6.654195933E+02  1.250000000E+02  0.00000E+00  9.000E+00
      21     1     1     2   512   502  8.479817194E-01  1.321727014E+01  6.889598505E+01  7.015748042E+01  1.348699152E-06  0.00000E+00  9.000E+00
#rwgt            2          11   2.1816395070142695E-003           8       36162           0
</event>
<event>
      5   9999  3.19816E-02  1.77957E+02 -1.00000E+00  1.13526E-01
       2    -1     0     0   502     0  0.000000000E+00  0.000000000E+00  1.068910431E+03  1.068910431E+03  0.000000000E+00  0.00000E+00  9.000E+00
      21    -1     0     0   501   502  0.000000000E+00  0.000000000E+00 -1.692495072E+02  1.692495072E+02  0.000000000E+00  0.00000E+00  9.000E+00
      25     1     1     2     0     0  2.199770825E+02 -6.741116564E+00 -2.149604673E+01  2.540126759E+02  1.250000000E+02  0.00000E+00  9.000E+00
      25     1     1     2     0     0 -4.496552183E+01 -2.550209911E+01  6.178914451E+02  6.325243814E+02  1.250000000E+02  0.00000E+00  9.000E+00
       2     1     1     2   501     0 -1.750115607E+02  3.224321567E+01  3.032655250E+02  3.516228804E+02  6.607249480E-06  0.00000E+00  9.000E+00
#rwgt            1           1   2.8157904013142016E-002           8       36212           0
</event>
<event>
      5   9999  3.19816E-02  1.82539E+01 -1.00000E+00  1.69710E-01
      21    -1     0     0   502   511  0.000000000E+00  0.000000000E+00  9.668320443E+02  9.668320443E+02  0.000000000E+00  0.00000E+00  9.000E+00
      21    -1     0     0   501   502  0.000000000E+00  0.000000000E+00 -9.523609367E+02  9.523609367E+02  0.000000000E+00  0.00000E+00  9.000E+00
      25     1     1     2     0     0  5.378458881E+02 -4.607958793E+02  4.547464988E+02  8.508997708E+02  1.250000000E+02  0.00000E+00  9.000E+00
      25     1     1     2     0     0 -5.196536512E+02  4.622954601E+02 -5.880843857E+02  9.193613296E+02  1.250000000E+02  0.00000E+00  9.000E+00
      21     1     1     2   501   511 -1.819223682E+01 -1.499580718E+00  1.478089945E+02  1.489318806E+02  0.000000000E+00  0.00000E+00  9.000E+00
#rwgt            1           1   3.3271564740967527E-002           8       36310           0
</event>
<event>
      5   9999  3.19816E-02  2.23190E+01 -1.00000E+00  1.62532E-01
      21    -1     0     0   502   501  0.000000000E+00  0.000000000E+00  5.501916092E+02  5.501916092E+02  0.000000000E+00  0.00000E+00  9.000E+00
      21    -1     0     0   512   502  0.000000000E+00  0.000000000E+00 -2.287272739E+02  2.287272739E+02  0.000000000E+00  0.00000E+00  9.000E+00
      25     1     1     2     0     0 -8.299234613E+01 -2.917080554E+02  1.239995935E+02  3.506882066E+02  1.250000000E+02  0.00000E+00  9.000E+00
      25     1     1     2     0     0  1.053113398E+02  2.917506002E+02  2.169322049E+02  3.986144409E+02  1.250000000E+02  0.00000E+00  9.000E+00
      21     1     1     2   512   501 -2.231899364E+01 -4.254478525E-02 -1.946746307E+01  2.961623551E+01  0.000000000E+00  0.00000E+00  9.000E+00
#rwgt            1           1   2.7054747752374271E-002           8       36551           0
</event>
<event>
      5   9999  3.19816E-02  8.13892E+01 -1.00000E+00  1.27989E-01
      21    -1     0     0   502   501  0.000000000E+00  0.000000000E+00  1.058305747E+02  1.058305747E+02  0.000000000E+00  0.00000E+00  9.000E+00
       2    -1     0     0   501     0  0.000000000E+00  0.000000000E+00 -1.941947457E+03  1.941947457E+03  0.000000000E+00  0.00000E+00  9.000E+00
      25     1     1     2     0     0 -2.171941467E+02 -3.284169283E+02 -1.044262116E+03  1.123004605E+03  1.250000000E+02  0.00000E+00  9.000E+00
      25     1     1     2     0     0  1.361879630E+02  3.363033534E+02 -5.585526949E+02  6.776822410E+02  1.250000000E+02  0.00000E+00  9.000E+00
       2     1     1     2   502     0  8.100618378E+01 -7.886425104E+00 -2.333020716E+02  2.470911859E+02  3.814697266E-06  0.00000E+00  9.000E+00
#rwgt            1           1   3.0188906263210670E-002           8       36681           0
</event>
<event>
      5   9999  3.19816E-02  4.93201E+01 -1.00000E+00  1.39416E-01
      21    -1     0     0   511   501  0.000000000E+00  0.000000000E+00  8.604837986E+02  8.604837986E+02  0.000000000E+00  0.00000E+00  9.000E+00
      21    -1     0     0   501   502  0.000000000E+00  0.000000000E+00 -3.524528235E+02  3.524528235E+02  0.000000000E+00  0.00000E+00  9.000E+00
      25     1     1     2     0     0 -3.032474354E+02 -1.566245240E+02 -1.939137666E+02  4.119681996E+02  1.250000000E+02  0.00000E+00  9.000E+00
      25     1     1     2     0     0  2.575831710E+02  1.752591184E+02  6.278717785E+02  7.119781028E+02  1.250000000E+02  0.00000E+00  9.000E+00
      21     1     1     2   511   502  4.566426438E+01 -1.863459434E+01  7.407296309E+01  8.899031975E+01  1.907348633E-06  0.00000E+00  9.000E+00
#rwgt            1           1   2.8633809341984225E-002           8       36741           0
</event>
<event>
      5   9999  3.19816E-02  6.81192E+01 -1.00000E+00  1.31823E-01
       2    -1     0     0   502     0  0.000000000E+00  0.000000000E+00  2.262288985E+03  2.262288985E+03  0.000000000E+00  0.00000E+00  9.000E+00
      21    -1     0     0   501   502  0.000000000E+00  0.000000000E+00 -2.439608394E+02  2.439608394E+02  0.000000000E+00  0.00000E+00  9.000E+00
      25     1     1     2     0     0 -1.237781957E+02 -4.009347618E+02  6.934726224E+01  4.432874550E+02  1.250000000E+02  0.00000E+00  9.000E+00
      25     1     1     2     0     0  1.438438644E+02  4.660315787E+02  1.083105027E+03  1.194411148E+03  1.250000000E+02  0.00000E+00  9.000E+00
       2     1     1     2   501     0 -2.006566870E+01 -6.509681684E+01  8.658758558E+02  8.685512214E+02  1.078959322E-05  0.00000E+00  9.000E+00
#rwgt            2          18   9.6046684005333060E-004           8       36856           0
</event>
<event>
      5   9999  3.19816E-02  6.62511E+01 -1.00000E+00  1.32443E-01
      21    -1     0     0   502   501  0.000000000E+00  0.000000000E+00  4.645688503E+02  4.645688503E+02  0.000000000E+00  0.00000E+00  9.000E+00
       2    -1     0     0   501     0  0.000000000E+00  0.000000000E+00 -2.963538392E+03  2.963538392E+03  0.000000000E+00  0.00000E+00  9.000E+00
      25     1     1     2     0     0  4.494101017E+01 -1.468991540E+01  4.012272962E+02  4.228993157E+02  1.250000000E+02  0.00000E+00  9.000E+00
      25     1     1     2     0     0 -1.111838419E+02  1.364249909E+01 -8.302913336E+01  1.872613187E+02  1.250000000E+02  0.00000E+00  9.000E+00
       2     1     1     2   502     0  6.624283178E+01  1.047416307E+00 -2.817167705E+03  2.817946608E+03  3.051757812E-05  0.00000E+00  9.000E+00
#rwgt            1           1   2.6195008572820755E-002           8       36875           0
</event>
<event>
      5   9999  3.19816E-02  5.89499E+01 -1.00000E+00  1.35114E-01
      21    -1     0     0   502   511  0.000000000E+00  0.000000000E+00  4.745432929E+02  4.745432929E+02  0.000000000E+00  0.00000E+00  9.000E+00
      21    -1     0     0   501   502  0.000000000E+00  0.000000000E+00 -3.512122713E+02  3.512122713E+02  0.000000000E+00  0.00000E+00  9.000E+00
      25     1     1     2     0     0 -1.437845567E+02 -2.320796291E+02 -1.826243197E+02  3.514421647E+02  1.250000000E+02  0.00000E+00  9.000E+00
      25     1     1     2     0     0  8.833406463E+01  2.520879398E+02  2.112917791E+02  3.627953311E+02  1.250000000E+02  0.00000E+00  9.000E+00
      21     1     1     2   501   511  5.545049211E+01 -2.000831069E+01  9.466356215E+01  1.115180684E+02  0.000000000E+00  0.00000E+00  9.000E+00
#rwgt            1           1   2.7289996406162313E-002           8       36969           0
</event>
<event>
      5   9999  3.19816E-02  1.58950E+02 -1.00000E+00  1.15405E-01
      21    -1     0     0   512   501  0.000000000E+00  0.000000000E+00  1.453737583E+03  1.453737583E+03  0.000000000E+00  0.00000E+00  9.000E+00
      21    -1     0     0   501   502  0.000000000E+00  0.000000000E+00 -2.863868675E+02  2.863868675E+02  0.000000000E+00  0.00000E+00  9.000E+00
      25     1     1     2     0     0 -3.253510106E+02  6.348481733E+01  1.113643753E+03  1.168636390E+03  1.250000000E+02  0.00000E+00  9.000E+00
      25     1     1     2     0     0  1.740612142E+02 -1.473420720E+01 -1.858180907E+02  2.840207140E+02  1.250000000E+02  0.00000E+00  9.000E+00
      21     1     1     2   512   502  1.512897964E+02 -4.875061014E+01  2.395250529E+02  2.874673468E+02  2.697398305E-06  0.00000E+00  9.000E+00
#rwgt            1           1   2.2083786194526091E-002           8       37078           0
</event>
<event>
      5   9999  3.48093E-02  9.32113E+00 -1.00000E+00  1.99354E-01
      21    -1     0     0   502   501  0.000000000E+00  0.000000000E+00  5.292204804E+02  5.292204804E+02  0.000000000E+00  0.00000E+00  9.000E+00
      21    -1     0     0   501   511  0.000000000E+00  0.000000000E+00 -1.854370841E+02  1.854370841E+02  0.000000000E+00  0.00000E+00  9.000E+00
      25     1     1     2     0     0  1.725967091E+02  1.251781686E+02 -3.072220530E+00  2.471712695E+02  1.250000000E+02  0.00000E+00  9.000E+00
      25     1     1     2     0     0 -1.647188649E+02 -1.301604429E+02  3.695117980E+02  4.429876005E+02  1.250000000E+02  0.00000E+00  9.000E+00
      21     1     1     2   502   511 -7.877844210E+00  4.982274301E+00 -2.265618118E+01  2.449869450E+01  5.840038640E-07  0.00000E+00  9.000E+00
#rwgt            1           1   3.1970336402262864E-002           8       37229           0
</event>
<event>
      5   9999  3.19816E-02  8.12110E+01 -1.00000E+00  1.28034E-01
      21    -1     0     0   502   501  0.000000000E+00  0.000000000E+00  1.659709792E+03  1.659709792E+03  0.000000000E+00  0.00000E+00  9.000E+00
      21    -1     0     0   512   502  0.000000000E+00  0.000000000E+00 -2.382074186E+01  2.382074186E+01  0.000000000E+00  0.00000E+00  9.000E+00
      25     1     1     2     0     0  4.413818677E+01 -7.329844151E+01  4.193605844E+02  4.458801866E+02  1.250000000E+02  0.00000E+00  9.000E+00
      25     1     1     2     0     0  3.210081901E+01  4.531925397E+01  9.235742229E+02  9.336480293E+02  1.250000000E+02  0.00000E+00  9.000E+00
      21     1     1     2   512   501 -7.623900578E+01  2.797918754E+01  2.929542426E+02  3.040023177E+02  3.814697266E-06  0.00000E+00  9.000E+00
#rwgt            1           1   6.5577690180269030E-002           8       37470           0
</event>
<event>
      5   9999  3.19816E-02  1.09563E+02 -1.00000E+00  1.22070E-01
      21    -1     0     0   502   501  0.000000000E+00  0.000000000E+00  5.059406958E+02  5.059406958E+02  0.000000000E+00  0.00000E+00  9.000E+00
       2    -1     0     0   501     0  0.000000000E+00  0.000000000E+00 -1.738363087E+02  1.738363087E+02  0.000000000E+00  0.00000E+00  9.000E+00
      25     1     1     2     0     0 -2.587207930E+01  1.801791448E+02  1.581742401E+02  2.716210208E+02  1.250000000E+02  0.00000E+00  9.000E+00
      25     1     1     2     0     0  9.475246158E+01 -9.497554951E+01  2.224892554E+02  2.883138095E+02  1.250000000E+02  0.00000E+00  9.000E+00
       2     1     1     2   502     0 -6.888038228E+01 -8.520359529E+01 -4.855910840E+01  1.198421742E+02  2.431401974E-06  0.00000E+00  9.000E+00
#rwgt            1           1   2.5106652076405576E-002           8       37506           0
</event>
<event>
      5   9999  3.19816E-02  1.18462E+02 -1.00000E+00  1.20607E-01
      21    -1     0     0   511   501  0.000000000E+00  0.000000000E+00  1.992933365E+02  1.992933365E+02  0.000000000E+00  0.00000E+00  9.000E+00
      21    -1     0     0   501   502  0.000000000E+00  0.000000000E+00 -1.103074887E+03  1.103074887E+03  0.000000000E+00  0.00000E+00  9.000E+00
      25     1     1     2     0     0 -7.088723620E+01  1.626610367E+02 -9.244318755E+02  9.495698529E+02  1.250000000E+02  0.00000E+00  9.000E+00
      25     1     1     2     0     0  1.462423862E+02 -7.125682983E+01  8.012087954E+01  2.202469674E+02  1.250000000E+02  0.00000E+00  9.000E+00
      21     1     1     2   511   502 -7.535514999E+01 -9.140420685E+01 -5.947055470E+01  1.325514034E+02  1.348699152E-06  0.00000E+00  9.000E+00
#rwgt            1           1   3.0081122644879079E-002           8       37561           0
</event>
<event>
      5   9999  3.19816E-02  1.94134E+02 -1.00000E+00  1.12121E-01
      21    -1     0     0   502   501  0.000000000E+00  0.000000000E+00  3.531717136E+03  3.531717136E+03  0.000000000E+00  0.00000E+00  9.000E+00
      21    -1     0     0   512   502  0.000000000E+00  0.000000000E+00 -2.161511047E+02  2.161511047E+02  0.000000000E+00  0.00000E+00  9.000E+00
      25     1     1     2     0     0 -4.211768914E+02  1.783492027E+02  3.482436190E+02  5.883001191E+02  1.250000000E+02  0.00000E+00  9.000E+00
      25     1     1     2     0     0  5.511296291E+02 -3.225719772E+02  2.869168774E+03  2.942031781E+03  1.250000000E+02  0.00000E+00  9.000E+00
      21     1     1     2   512   501 -1.299527377E+02  1.442227745E+02  9.815363869E+01  2.175363406E+02  4.473129043E-06  0.00000E+00  9.000E+00
#rwgt            2          11   6.9646394728406537E-003           8       37640           0
</event>
<event>
      5   9999  3.19816E-02  2.55677E+02 -1.00000E+00  1.07898E-01
      21    -1     0     0   502   501  0.000000000E+00  0.000000000E+00  2.470833128E+03  2.470833128E+03  0.000000000E+00  0.00000E+00  9.000E+00
       2    -1     0     0   501     0  0.000000000E+00  0.000000000E+00 -2.034899163E+03  2.034899163E+03  0.000000000E+00  0.00000E+00  9.000E+00
      25     1     1     2     0     0 -3.779668899E+02  4.596182111E+02  2.078111868E+03  2.165244052E+03  1.250000000E+02  0.00000E+00  9.000E+00
      25     1     1     2     0     0  4.156897339E+02 -2.067392643E+02  1.703005781E+02  5.100650597E+02  1.250000000E+02  0.00000E+00  9.000E+00
       2     1     1     2   502     0 -3.772284402E+01 -2.528789468E+02 -1.812478481E+03  1.830423180E+03  2.157918644E-05  0.00000E+00  9.000E+00
#rwgt            1           1   4.4250516861944006E-002           8       37660           0
</event>
<event>
      5   9999  3.19816E-02  4.64249E+01  7.55638E-03  1.40939E-01
       2    -1     0     0   501     0  0.000000000E+00  0.000000000E+00  1.786090524E+03  1.786090524E+03  0.000000000E+00  0.00000E+00  9.000E+00
      -2    -1     0     0     0   502  0.000000000E+00  0.000000000E+00 -5.591959606E+01  5.591959606E+01  0.000000000E+00  0.00000E+00  9.000E+00
      25     1     1     2     0     0 -1.775791960E+02  1.007286284E+02  6.568248295E+02  6.990883235E+02  1.250000000E+02  0.00000E+00  9.000E+00
      25     1     1     2     0     0  2.083913767E+02 -1.354544833E+02  1.058090463E+03  1.094054529E+03  1.250000000E+02  0.00000E+00  9.000E+00
      21     1     1     2   501   502 -3.081218066E+01  3.472585481E+01  1.525563505E+01  4.886726788E+01  1.215700987E-06  0.00000E+00  9.000E+00
#rwgt            3           7   2.1964076089169265E-005           8       37884           0
</event>
<event>
      5   9999  3.19816E-02  1.86554E+02 -1.00000E+00  1.12760E-01
      21    -1     0     0   502   501  0.000000000E+00  0.000000000E+00  3.555905960E+02  3.555905960E+02  0.000000000E+00  0.00000E+00  9.000E+00
      21    -1     0     0   501   511  0.000000000E+00  0.000000000E+00 -1.202619244E+03  1.202619244E+03  0.000000000E+00  0.00000E+00  9.000E+00
      25     1     1     2     0     0 -1.764529175E+02 -1.724905324E+02  2.149005053E+02  3.502796640E+02  1.250000000E+02  0.00000E+00  9.000E+00
      25     1     1     2     0     0  1.089932223E+02  3.464202961E+02 -7.865135614E+02  8.752800274E+02  1.250000000E+02  0.00000E+00  9.000E+00
      21     1     1     2   502   511  6.745969517E+01 -1.739297637E+02 -2.754155922E+02  3.326501489E+02  0.000000000E+00  0.00000E+00  9.000E+00
#rwgt            2          11   3.9495278209217303E-003           8       37903           0
</event>
<event>
      5   9999  3.19816E-02  3.37300E+02 -1.00000E+00  1.03964E-01
      21    -1     0     0   502   501  0.000000000E+00  0.000000000E+00  5.764302055E+02  5.764302055E+02  0.000000000E+00  0.00000E+00  9.000E+00
      -1    -1     0     0     0   502  0.000000000E+00  0.000000000E+00 -4.911815781E+02  4.911815781E+02  0.000000000E+00  0.00000E+00  9.000E+00
      25     1     1     2     0     0  4.296383708E+01  2.706761297E+02  2.120111585E+02  3.683547065E+02  1.250000000E+02  0.00000E+00  9.000E+00
      25     1     1     2     0     0 -3.141493003E+02 -7.010295432E+01 -1.065105899E+02  3.613498483E+02  1.250000000E+02  0.00000E+00  9.000E+00
      -1     1     1     2     0   501  2.711854632E+02 -2.005731754E+02 -2.025194119E+01  3.379072288E+02  3.430246012E-06  0.00000E+00  9.000E+00
#rwgt            2          10   7.2832897711893628E-005           8       37983           0
</event>
<event>
      5   9999  3.19816E-02  3.93719E+02 -1.00000E+00  1.01893E-01
      21    -1     0     0   502   501  0.000000000E+00  0.000000000E+00  2.829837830E+02  2.829837830E+02  0.000000000E+00  0.00000E+00  9.000E+00
       2    -1     0     0   501     0  0.000000000E+00  0.000000000E+00 -3.746308019E+03  3.746308019E+03  0.000000000E+00  0.00000E+00  9.000E+00
      25     1     1     2     0     0  1.802596534E+02 -7.870262242E+02 -8.552843406E+02  1.182810265E+03  1.250000000E+02  0.00000E+00  9.000E+00
      25     1     1     2     0     0 -3.227017473E+02  4.199768825E+02 -6.429341930E+02  8.423220145E+02  1.250000000E+02  0.00000E+00  9.000E+00
       2     1     1     2   502     0  1.424420938E+02  3.670493417E+02 -1.965105703E+03  2.004159522E+03  0.000000000E+00  0.00000E+00  9.000E+00
#rwgt            2          13   1.0514495385436507E-003           8       38017           0
</event>
<event>
      5   9999  3.19816E-02  1.91928E+02 -1.00000E+00  1.12303E-01
      21    -1     0     0   502   511  0.000000000E+00  0.000000000E+00  3.347270366E+02  3.347270366E+02  0.000000000E+00  0.00000E+00  9.000E+00
      21    -1     0     0   501   502  0.000000000E+00  0.000000000E+00 -2.398395941E+03  2.398395941E+03  0.000000000E+00  0.00000E+00  9.000E+00
      25     1     1     2     0     0  3.166953005E+02 -2.431342697E+02 -1.528193058E+03  1.584427091E+03  1.250000000E+02  0.00000E+00  9.000E+00
      25     1     1     2     0     0 -2.117346659E+02  4.038190477E+02 -7.336647988E+02  8.728060661E+02  1.250000000E+02  0.00000E+00  9.000E+00
      21     1     1     2   501   511 -1.049606345E+02 -1.606847781E+02  1.981889514E+02  2.758898207E+02  1.144409180E-05  0.00000E+00  9.000E+00
#rwgt            2          11   2.3514641583127469E-002           8       38126           0
</event>
<event>
      5   9999  3.19816E-02  1.11592E+01 -1.00000E+00  1.90407E-01
      21    -1     0     0   502   501  0.000000000E+00  0.000000000E+00  7.393698961E+02  7.393698961E+02  0.000000000E+00  0.00000E+00  9.000E+00
      21    -1     0     0   512   502  0.000000000E+00  0.000000000E+00 -1.045860007E+02  1.045860007E+02  0.000000000E+00  0.00000E+00  9.000E+00
      25     1     1     2     0     0 -1.327128199E+02 -1.360685912E+02  1.567872714E+02  2.762871740E+02  1.250000000E+02  0.00000E+00  9.000E+00
      25     1     1     2     0     0  1.438668977E+02  1.357321668E+02  4.948948799E+02  5.474183478E+02  1.250000000E+02  0.00000E+00  9.000E+00
      21     1     1     2   512   501 -1.115407784E+01  3.364243255E-01 -1.689825586E+01  2.025037493E+01  6.307962682E-07  0.00000E+00  9.000E+00
#rwgt            1           1   2.8005162194482514E-002           8       38146           0
</event>
<event>
      5   9999  3.19816E-02  3.07816E+02 -1.00000E+00  1.05230E-01
       1    -1     0     0   502     0  0.000000000E+00  0.000000000E+00  2.202848970E+03  2.202848970E+03  0.000000000E+00  0.00000E+00  9.000E+00
      21    -1     0     0   501   502  0.000000000E+00  0.000000000E+00 -2.358709157E+02  2.358709157E+02  0.000000000E+00  0.00000E+00  9.000E+00
      25     1     1     2     0     0 -4.747526706E+02 -8.468193463E+01  4.857078544E+02  6.957716925E+02  1.250000000E+02  0.00000E+00  9.000E+00
      25     1     1     2     0     0  2.358494644E+02  2.787854304E+02  2.191726395E+02  4.438557558E+02  1.250000000E+02  0.00000E+00  9.000E+00
       1     1     1     2   501     0  2.389032061E+02 -1.941034958E+02  1.262097560E+03  1.299092437E+03  1.525878906E-05  0.00000E+00  9.000E+00
#rwgt            2          17   6.0831968578351674E-004           8       38453           0
</event>
<event>
      5   9999  3.19816E-02  1.09261E+02 -1.00000E+00  1.22122E-01
      21    -1     0     0   502   511  0.000000000E+00  0.000000000E+00  1.294236046E+02  1.294236046E+02  0.000000000E+00  0.00000E+00  9.000E+00
      21    -1     0     0   501   502  0.000000000E+00  0.000000000E+00 -1.183551704E+03  1.183551704E+03  0.000000000E+00  0.00000E+00  9.000E+00
      25     1     1     2     0     0  6.409324090E+01 -6.485007398E+00 -1.048831749E+03  1.058216914E+03  1.250000000E+02  0.00000E+00  9.000E+00
      25     1     1     2     0     0  3.671980432E+01 -3.564325067E+01 -3.870092754E+01  1.405046161E+02  1.250000000E+02  0.00000E+00  9.000E+00
      21     1     1     2   501   511 -1.008130452E+02  4.212825807E+01  3.340457699E+01  1.142537788E+02  2.697398305E-06  0.00000E+00  9.000E+00
#rwgt            1           1   3.3696772232096231E-002           8       38562           0
</event>
<event>
      5   9999  3.19816E-02  2.13826E+02 -1.00000E+00  1.10601E-01
      21    -1     0     0   502   501  0.000000000E+00  0.000000000E+00  5.940851659E+02  5.940851659E+02  0.000000000E+00  0.00000E+00  9.000E+00
      21    -1     0     0   501   512  0.000000000E+00  0.000000000E+00 -6.636338451E+02  6.636338451E+02  0.000000000E+00  0.00000E+00  9.000E+00
      25     1     1     2     0     0 -5.667694830E+01 -3.791408058E+02 -4.175407354E+02  5.804526620E+02  1.250000000E+02  0.00000E+00  9.000E+00
      25     1     1     2     0     0  5.230637840E+01  1.653597891E+02  4.032502018E+02  4.564159751E+02  1.250000000E+02  0.00000E+00  9.000E+00
      21     1     1     2   502   512  4.370569901E+00  2.137810167E+02 -5.525814564E+01  2.208503739E+02  4.815819234E-06  0.00000E+00  9.000E+00
#rwgt            1           1   3.2717579803712510E-002           8       38602           0
</event>
<event>
      5   9999  3.19816E-02  6.84624E+01 -1.00000E+00  1.31711E-01
      21    -1     0     0   511   501  0.000000000E+00  0.000000000E+00  1.516403127E+02  1.516403127E+02  0.000000000E+00  0.00000E+00  9.000E+00
      21    -1     0     0   501   502  0.000000000E+00  0.000000000E+00 -8.243325194E+02  8.243325194E+02  0.000000000E+00  0.00000E+00  9.000E+00
      25     1     1     2     0     0 -9.387271174E+01  2.052464617E+02 -4.014724277E+02  4.772245868E+02  1.250000000E+02  0.00000E+00  9.000E+00
      25     1     1     2     0     0  1.560639740E+02 -2.338706677E+02 -2.950087306E+02  4.262705765E+02  1.250000000E+02  0.00000E+00  9.000E+00
      21     1     1     2   511   502 -6.219126226E+01  2.862420605E+01  2.378895162E+01  7.247766893E+01  4.768371582E-07  0.00000E+00  9.000E+00
#rwgt            1           1   2.8363073511832971E-002           8       38640           0
</event>
<event>
      5   9999  3.19816E-02  4.73295E+02 -1.00000E+00  9.95340E-02
      21    -1     0     0   502   501  0.000000000E+00  0.000000000E+00  6.597672943E+02  6.597672943E+02  0.000000000E+00  0.00000E+00  9.000E+00
       2    -1     0     0   501     0  0.000000000E+00  0.000000000E+00 -2.014142760E+03  2.014142760E+03  0.000000000E+00  0.00000E+00  9.000E+00
      25     1     1     2     0     0 -4.240283382E+02 -5.513009782E+02 -8.415781587E+01  7.116462170E+02  1.250000000E+02  0.00000E+00  9.000E+00
      25     1     1     2     0     0  6.995315593E+02  1.664559700E+02 -1.296959964E+03  1.488214413E+03  1.250000000E+02  0.00000E+00  9.000E+00
       2     1     1     2   502     0 -2.755032212E+02  3.848450083E+02  2.674231376E+01  4.740494242E+02  7.317547442E-06  0.00000E+00  9.000E+00
#rwgt            2          13   6.4475369761529905E-004           8       39269           0
</event>
<event>
      5   9999  3.19816E-02  2.78813E+01 -1.00000E+00  1.55282E-01
      21    -1     0     0   502   501  0.000000000E+00  0.000000000E+00  4.872597306E+02  4.872597306E+02  0.000000000E+00  0.00000E+00  9.000E+00
      21    -1     0     0   501   511  0.000000000E+00  0.000000000E+00 -1.889434275E+02  1.889434275E+02  0.000000000E+00  0.00000E+00  9.000E+00
      25     1     1     2     0     0 -1.119356447E+02 -2.268401625E+02  1.379322082E+02  3.140642322E+02  1.250000000E+02  0.00000E+00  9.000E+00
      25     1     1     2     0     0  8.406179670E+01  2.261940564E+02  1.818142348E+02  3.269733212E+02  1.250000000E+02  0.00000E+00  9.000E+00
      21     1     1     2   502   511  2.787384804E+01  6.461061029E-01 -2.143013981E+01  3.516560465E+01  2.384185791E-07  0.00000E+00  9.000E+00
#rwgt            1           1   2.8061525220236919E-002           8       39303           0
</event>
<event>
      5   9999  3.19816E-02  4.11717E+01 -1.00000E+00  1.44067E-01
      21    -1     0     0   502   501  0.000000000E+00  0.000000000E+00  4.415765311E+01  4.415765311E+01  0.000000000E+00  0.00000E+00  9.000E+00
      21    -1     0     0   501   512  0.000000000E+00  0.000000000E+00 -1.065321079E+03  1.065321079E+03  0.000000000E+00  0.00000E+00  9.000E+00
      25     1     1     2     0     0 -1.207892441E+02 -3.481326512E+01 -3.185679233E+02  3.645717030E+02  1.250000000E+02  0.00000E+00  9.000E+00
      25     1     1     2     0     0  1.085322116E+02 -4.491600780E+00 -3.219797147E+02  3.620709214E+02  1.250000000E+02  0.00000E+00  9.000E+00
      21     1     1     2   502   512  1.225703257E+01  3.930486590E+01 -3.806157877E+02  3.828361075E+02  5.394796609E-06  0.00000E+00  9.000E+00
#rwgt            1           1   4.0233725068088068E-002           8       39393           0
</event>
<event>
      5   9999  3.19816E-02  2.00227E+01 -1.00000E+00  1.66329E-01
      21    -1     0     0   511   501  0.000000000E+00  0.000000000E+00  3.140220561E+02  3.140220561E+02  0.000000000E+00  0.00000E+00  9.000E+00
      21    -1     0     0   501   502  0.000000000E+00  0.000000000E+00 -2.639204166E+02  2.639204166E+02  0.000000000E+00  0.00000E+00  9.000E+00
      25     1     1     2     0     0  1.434501610E+02  1.722825054E+02 -6.430582665E+01  2.646118850E+02  1.250000000E+02  0.00000E+00  9.000E+00
      25     1     1     2     0     0 -1.625957553E+02 -1.781436628E+02  1.056914352E+02  2.914930938E+02  1.250000000E+02  0.00000E+00  9.000E+00
      21     1     1     2   511   502  1.914559436E+01  5.861157420E+00  8.716030920E+00  2.183749401E+01  2.384185791E-07  0.00000E+00  9.000E+00
#rwgt            1           1   2.7209933383130335E-002           8       39450           0
</event>
<event>
      5   9999  3.19816E-02  3.07721E+01 -1.00000E+00  1.52277E-01
      21    -1     0     0   502   501  0.000000000E+00  0.000000000E+00  8.686901943E+02  8.686901943E+02  0.000000000E+00  0.00000E+00  9.000E+00
       2    -1     0     0   501     0  0.000000000E+00  0.000000000E+00 -3.204636427E+03  3.204636427E+03  0.000000000E+00  0.00000E+00  9.000E+00
      25     1     1     2     0     0  5.949713153E+02 -3.791257005E+02  3.768119925E+02  8.095303827E+02  1.250000000E+02  0.00000E+00  9.000E+00
      25     1     1     2     0     0 -5.897029236E+02  3.488079550E+02 -1.648385762E+02  7.156907738E+02  1.250000000E+02  0.00000E+00  9.000E+00
       2     1     1     2   502     0 -5.268391718E+00  3.031774556E+01 -2.547919649E+03  2.548105465E+03  3.051757812E-05  0.00000E+00  9.000E+00
#rwgt            1           1   2.9039616456036987E-002           8       39566           0
</event>
<event>
      5   9999  3.19816E-02  1.90940E+01 -1.00000E+00  1.68048E-01
      21    -1     0     0   502   501  0.000000000E+00  0.000000000E+00  2.649278247E+02  2.649278247E+02  0.000000000E+00  0.00000E+00  9.000E+00
      21    -1     0     0   511   502  0.000000000E+00  0.000000000E+00 -2.069954846E+02  2.069954846E+02  0.000000000E+00  0.00000E+00  9.000E+00
      25     1     1     2     0     0 -1.322084207E+02  5.681313372E+01  1.305501274E+02  2.310305920E+02  1.250000000E+02  0.00000E+00  9.000E+00
      25     1     1     2     0     0  1.415055702E+02 -7.349074261E+01 -4.537707000E+01  2.076265738E+02  1.250000000E+02  0.00000E+00  9.000E+00
      21     1     1     2   511   501 -9.297149575E+00  1.667760889E+01 -2.724071730E+01  3.326614356E+01  3.371747881E-07  0.00000E+00  9.000E+00
#rwgt            1           1   2.6976669919561814E-002           8       39771           0
</event>
<event>
      5   9999  3.19816E-02  4.07866E+01 -1.00000E+00  1.44318E-01
      21    -1     0     0   512   501  0.000000000E+00  0.000000000E+00  5.146866213E+02  5.146866213E+02  0.000000000E+00  0.00000E+00  9.000E+00
      21    -1     0     0   501   502  0.000000000E+00  0.000000000E+00 -1.161567162E+03  1.161567162E+03  0.000000000E+00  0.00000E+00  9.000E+00
      25     1     1     2     0     0 -2.971227167E+02 -5.056365517E+02 -3.760483155E+02  7.078047519E+02  1.250000000E+02  0.00000E+00  9.000E+00
      25     1     1     2     0     0  2.962032863E+02  5.464127830E+02 -4.546564434E+02  7.801543423E+02  1.250000000E+02  0.00000E+00  9.000E+00
      21     1     1     2   512   502  9.194303753E-01 -4.077623139E+01  1.838242187E+02  1.882946886E+02  2.697398305E-06  0.00000E+00  9.000E+00
#rwgt            1           1   2.9376060682138914E-002           8       39930           0
</event>
<event>
      5   9999  3.19816E-02  4.86236E+01 -1.00000E+00  1.39771E-01
      21    -1     0     0   502   501  0.000000000E+00  0.000000000E+00  3.421675932E+02  3.421675932E+02  0.000000000E+00  0.00000E+00  9.000E+00
      21    -1     0     0   511   502  0.000000000E+00  0.000000000E+00 -4.538560887E+02  4.538560887E+02  0.000000000E+00  0.00000E+00  9.000E+00
      25     1     1     2     0     0  1.004927478E+02  4.894790719E+01  2.118476982E+02  2.701835251E+02  1.250000000E+02  0.00000E+00  9.000E+00
      25     1     1     2     0     0 -1.456085946E+02 -6.708110470E+01 -4.727415206E+00  2.033447464E+02  1.250000000E+02  0.00000E+00  9.000E+00
      21     1     1     2   511   501  4.511584677E+01  1.813319751E+01 -3.188087785E+02  3.224954104E+02  5.394796609E-06  0.00000E+00  9.000E+00
#rwgt            1           1   2.9432405836821739E-002           8       40034           0
</event>
<event>
      5   9999  3.19816E-02  1.74155E+01 -1.00000E+00  1.71485E-01
      21    -1     0     0   512   501  0.000000000E+00  0.000000000E+00  8.641049177E+01  8.641049177E+01  0.000000000E+00  0.00000E+00  9.000E+00
      21    -1     0     0   501   502  0.000000000E+00  0.000000000E+00 -5.169049081E+02  5.169049081E+02  0.000000000E+00  0.00000E+00  9.000E+00
      25     1     1     2     0     0  9.980593695E+01  9.990203768E+01 -1.273050448E+02  2.275372862E+02  1.250000000E+02  0.00000E+00  9.000E+00
      25     1     1     2     0     0 -8.942711950E+01 -8.591703309E+01 -3.104515488E+02  3.569091067E+02  1.250000000E+02  0.00000E+00  9.000E+00
      21     1     1     2   512   502 -1.037881745E+01 -1.398500458E+01  7.262177291E+00  1.886900697E+01  2.665600750E-07  0.00000E+00  9.000E+00
#rwgt            1           1   2.8067751460540337E-002           8       40107           0
</event>
<event>
      5   9999  3.19816E-02  4.36897E+01 -1.00000E+00  1.42503E-01
      21    -1     0     0   502   501  0.000000000E+00  0.000000000E+00  4.923947126E+02  4.923947126E+02  0.000000000E+00  0.00000E+00  9.000E+00
      21    -1     0     0   511   502  0.000000000E+00  0.000000000E+00 -3.764828386E+02  3.764828386E+02  0.000000000E+00  0.00000E+00  9.000E+00
      25     1     1     2     0     0 -1.735728992E+02 -2.867536041E+02  1.052512905E+01  3.578979731E+02  1.250000000E+02  0.00000E+00  9.000E+00
      25     1     1     2     0     0  1.397319426E+02  3.143865291E+02  1.924620095E+02  4.135583762E+02  1.250000000E+02  0.00000E+00  9.000E+00
      21     1     1     2   511   501  3.384095663E+01 -2.763292499E+01 -8.707526450E+01  9.742120189E+01  9.536743164E-07  0.00000E+00  9.000E+00
#rwgt            1           1   2.3387780810856337E-002           8       40267           0
</event>
<event>
      5   9999  3.19816E-02  4.09735E+01 -1.00000E+00  1.44195E-01
      21    -1     0     0   502   501  0.000000000E+00  0.000000000E+00  6.688980176E+02  6.688980176E+02  0.000000000E+00  0.00000E+00  9.000E+00
      21    -1     0     0   512   502  0.000000000E+00  0.000000000E+00 -5.275241281E+02  5.275241281E+02  0.000000000E+00  0.00000E+00  9.000E+00
      25     1     1     2     0     0  4.361266470E+02 -2.142149531E+02  3.421241096E+02  6.072630441E+02  1.250000000E+02  0.00000E+00  9.000E+00
      25     1     1     2     0     0 -4.226588990E+02  2.529117926E+02 -1.635943103E+02  5.338473735E+02  1.250000000E+02  0.00000E+00  9.000E+00
      21     1     1     2   512   501 -1.346774794E+01 -3.869683957E+01 -3.715590985E+01  5.531172809E+01  1.168007728E-06  0.00000E+00  9.000E+00
#rwgt            1           1   3.0379108510571417E-002           8       40401           0
</event>
<event>
      5   9999  3.19816E-02  9.50546E+01 -1.00000E+00  1.24827E-01
      21    -1     0     0   502   501  0.000000000E+00  0.000000000E+00  2.558727360E+02  2.558727360E+02  0.000000000E+00  0.00000E+00  9.000E+00
      21    -1     0     0   501   511  0.000000000E+00  0.000000000E+00 -6.496386455E+02  6.496386455E+02  0.000000000E+00  0.00000E+00  9.000E+00
      25     1     1     2     0     0 -5.625012752E+00 -9.125523516E+01 -4.921201256E+02  5.159131484E+02  1.250000000E+02  0.00000E+00  9.000E+00
      25     1     1     2     0     0 -8.599059553E+01  1.165921061E+02  1.811856233E+02  2.635172324E+02  1.250000000E+02  0.00000E+00  9.000E+00
      21     1     1     2   502   511  9.161560828E+01 -2.533687092E+01 -8.283140720E+01  1.260810007E+02  1.907348633E-06  0.00000E+00  9.000E+00
#rwgt            1           1   2.7965084092643342E-002           8       40659           0
</event>
<event>
      5   9999  3.19816E-02  8.09210E+01 -1.00000E+00  1.28109E-01
      21    -1     0     0   502   501  0.000000000E+00  0.000000000E+00  1.494119733E+02  1.494119733E+02  0.000000000E+00  0.00000E+00  9.000E+00
      21    -1     0     0   512   502  0.000000000E+00  0.000000000E+00 -4.432068453E+02  4.432068453E+02  0.000000000E+00  0.00000E+00  9.000E+00
      25     1     1     2     0     0  6.576714573E+01 -6.528965754E+01  2.652271966E+01  1.578496484E+02  1.250000000E+02  0.00000E+00  9.000E+00
      25     1     1     2     0     0 -1.072176737E+02  1.347883289E+02 -2.240685444E+02  3.090230343E+02  1.250000000E+02  0.00000E+00  9.000E+00
      21     1     1     2   512   501  4.145052794E+01 -6.949867137E+01 -9.624904734E+01  1.257461359E+02  1.348699152E-06  0.00000E+00  9.000E+00
#rwgt            1           1   3.2893202962272536E-002           8       40727           0
</event>
<event>
      5   9999  3.19816E-02  3.70738E+01 -1.00000E+00  1.46916E-01
      21    -1     0     0   511   501  0.000000000E+00  0.000000000E+00  1.016439547E+03  1.016439547E+03  0.000000000E+00  0.00000E+00  9.000E+00
      21    -1     0     0   501   502  0.000000000E+00  0.000000000E+00 -1.102396584E+02  1.102396584E+02  0.000000000E+00  0.00000E+00  9.000E+00
      25     1     1     2     0     0 -2.821731141E+02  4.406883597E+01  6.139552108E+02  6.885707876E+02  1.250000000E+02  0.00000E+00  9.000E+00
      25     1     1     2     0     0  2.499130267E+02 -6.233783399E+01  2.374724554E+02  3.719686728E+02  1.250000000E+02  0.00000E+00  9.000E+00
      21     1     1     2   511   502  3.226008740E+01  1.826899803E+01  5.477222269E+01  6.613974528E+01  6.743495762E-07  0.00000E+00  9.000E+00
#rwgt            1           1   3.0680872555519111E-002           8       40784           0
</event>
<event>
      5   9999  3.19816E-02  1.13349E+02 -1.00000E+00  1.21429E-01
      21    -1     0     0   502   501  0.000000000E+00  0.000000000E+00  2.573212561E+02  2.573212561E+02  0.000000000E+00  0.00000E+00  9.000E+00
      -2    -1     0     0     0   502  0.000000000E+00  0.000000000E+00 -5.122503884E+02  5.122503884E+02  0.000000000E+00  0.00000E+00  9.000E+00
      25     1     1     2     0     0  2.214893285E+02 -9.361760718E+01 -1.588886749E+02  3.141534498E+02  1.250000000E+02  0.00000E+00  9.000E+00
      25     1     1     2     0     0 -2.166550106E+02 -1.962792922E+01  6.434958871E+01  2.590183754E+02  1.250000000E+02  0.00000E+00  9.000E+00
      -2     1     1     2     0   501 -4.834317928E+00  1.132455364E+02 -1.603900461E+02  1.963998193E+02  1.907348633E-06  0.00000E+00  9.000E+00
#rwgt            1           1   2.6408650446919986E-002           8       40914           0
</event>
<event>
      5   9999  3.19816E-02  1.49977E+01 -1.00000E+00  1.77390E-01
      21    -1     0     0   511   501  0.000000000E+00  0.000000000E+00  1.649834674E+03  1.649834674E+03  0.000000000E+00  0.00000E+00  9.000E+00
      21    -1     0     0   501   502  0.000000000E+00  0.000000000E+00 -1.560030117E+02  1.560030117E+02  0.000000000E+00  0.00000E+00  9.000E+00
      25     1     1     2     0     0  1.145593065E+02 -4.127163976E+02  8.844056194E+02  9.905841505E+02  1.250000000E+02  0.00000E+00  9.000E+00
      25     1     1     2     0     0 -1.282059214E+02  4.064953247E+02  3.777459391E+02  5.830885025E+02  1.250000000E+02  0.00000E+00  9.000E+00
      21     1     1     2   511   502  1.364661486E+01  6.221072919E+00  2.316801041E+02  2.321650328E+02  2.697398305E-06  0.00000E+00  9.000E+00
#rwgt            1           1   2.7764420455325935E-002           8       40989           0
</event>
<event>
      5   9999  3.19816E-02  3.94451E+01 -1.00000E+00  1.45217E-01
      21    -1     0     0   502   501  0.000000000E+00  0.000000000E+00  1.829538133E+02  1.829538133E+02  0.000000000E+00  0.00000E+00  9.000E+00
      21    -1     0     0   501   512  0.000000000E+00  0.000000000E+00 -7.597565752E+02  7.597565752E+02  0.000000000E+00  0.00000E+00  9.000E+00
      25     1     1     2     0     0  5.054513899E+01 -7.354678214E+01  1.217935824E+02  1.960168792E+02  1.250000000E+02  0.00000E+00  9.000E+00
      25     1     1     2     0     0 -2.053437189E+01  4.794856029E+01 -1.734584157E+02  2.200762296E+02  1.250000000E+02  0.00000E+00  9.000E+00
      21     1     1     2   502   512 -3.001076711E+01  2.559822185E+01 -5.251379287E+02  5.266172797E+02  1.078959322E-05  0.00000E+00  9.000E+00
#rwgt            1           1   2.7939543700732188E-002           8       41238           0
</event>
<event>
      5   9999  3.19816E-02  2.60724E+02 -1.00000E+00  1.07611E-01
      21    -1     0     0   502   501  0.000000000E+00  0.000000000E+00  1.904484687E+03  1.904484687E+03  0.000000000E+00  0.00000E+00  9.000E+00
      21    -1     0     0   501   511  0.000000000E+00  0.000000000E+00 -6.682530085E+02  6.682530085E+02  0.000000000E+00  0.00000E+00  9.000E+00
      25     1     1     2     0     0  4.123854822E+02  7.349802534E+02  8.005507644E+02  1.169086945E+03  1.250000000E+02  0.00000E+00  9.000E+00
      25     1     1     2     0     0 -3.847367913E+02 -9.942342215E+02  3.404614554E+02  1.126083073E+03  1.250000000E+02  0.00000E+00  9.000E+00
      21     1     1     2   502   511 -2.764869086E+01  2.592539681E+02  9.521945886E+01  2.775676772E+02  7.262967211E-06  0.00000E+00  9.000E+00
#rwgt            1           1   3.4096974316745528E-002           8       41306           0
</event>
<event>
      5   9999  3.19816E-02  5.47963E+01 -1.00000E+00  1.36843E-01
      21    -1     0     0   502   512  0.000000000E+00  0.000000000E+00  4.051950829E+02  4.051950829E+02  0.000000000E+00  0.00000E+00  9.000E+00
      21    -1     0     0   501   502  0.000000000E+00  0.000000000E+00 -1.944220876E+02  1.944220876E+02  0.000000000E+00  0.00000E+00  9.000E+00
      25     1     1     2     0     0  2.376727537E+01 -2.012017351E+02 -1.412423906E+01  2.384774952E+02  1.250000000E+02  0.00000E+00  9.000E+00
      25     1     1     2     0     0  1.737438122E+01  1.650078933E+02  1.128468821E+02  2.364083179E+02  1.250000000E+02  0.00000E+00  9.000E+00
      21     1     1     2   501   512 -4.114165659E+01  3.619384182E+01  1.120503523E+02  1.247313575E+02  0.000000000E+00  0.00000E+00  9.000E+00
#rwgt            1           1   2.5317564598631995E-002           8       41390           0
</event>
<event>
      5   9999  3.19816E-02  2.45522E+02 -1.00000E+00  1.08499E-01
      21    -1     0     0   502   501  0.000000000E+00  0.000000000E+00  2.114780503E+03  2.114780503E+03  0.000000000E+00  0.00000E+00  9.000E+00
       1    -1     0     0   501     0  0.000000000E+00  0.000000000E+00 -5.250117994E+02  5.250117994E+02  0.000000000E+00  0.00000E+00  9.000E+00
      25     1     1     2     0     0 -4.363666118E+02  9.868775788E+01  1.281407664E+03  1.363006124E+03  1.250000000E+02  0.00000E+00  9.000E+00
      25     1     1     2     0     0  2.100268250E+02 -1.938258098E+02  7.272051512E+02  7.912850584E+02  1.250000000E+02  0.00000E+00  9.000E+00
       1     1     1     2   502     0  2.263397868E+02  9.513805189E+01 -4.188441113E+02  4.855011200E+02  7.629394531E-06  0.00000E+00  9.000E+00
#rwgt            1           1   3.7001581401669488E-002           8       41482           0
</event>
<event>
      5   9999  3.19816E-02  1.19855E+02 -1.00000E+00  1.20391E-01
       2    -1     0     0   502     0  0.000000000E+00  0.000000000E+00  1.558331858E+03  1.558331858E+03  0.000000000E+00  0.00000E+00  9.000E+00
      21    -1     0     0   501   502  0.000000000E+00  0.000000000E+00 -1.353930635E+02  1.353930635E+02  0.000000000E+00  0.00000E+00  9.000E+00
      25     1     1     2     0     0  1.765982318E+02 -6.537124376E+01  2.484689612E+02  3.358901006E+02  1.250000000E+02  0.00000E+00  9.000E+00
      25     1     1     2     0     0 -2.909204145E+02  1.013677791E+02  2.264347604E+02  4.022534213E+02  1.250000000E+02  0.00000E+00  9.000E+00
       2     1     1     2   501     0  1.143221827E+02 -3.599653536E+01  9.480350725E+02  9.555813993E+02  1.525878906E-05  0.00000E+00  9.000E+00
#rwgt            1           1   2.7120612078030681E-002           8       41529           0
</event>
<event>
      5   9999  3.19816E-02  9.96579E+00 -1.00000E+00  1.95929E-01
      21    -1     0     0   502   511  0.000000000E+00  0.000000000E+00  7.088835334E+02  7.088835334E+02  0.000000000E+00  0.00000E+00  9.000E+00
      21    -1     0     0   501   502  0.000000000E+00  0.000000000E+00 -1.214196415E+02  1.214196415E+02  0.000000000E+00  0.00000E+00  9.000E+00
      25     1     1     2     0     0 -1.161620937E+02  1.738543648E+02  9.427439285E+01  2.612118552E+02  1.250000000E+02  0.00000E+00  9.000E+00
      25     1     1     2     0     0  1.070173980E+02 -1.778156105E+02  3.506621170E+02  4.262159489E+02  1.250000000E+02  0.00000E+00  9.000E+00
      21     1     1     2   501   511  9.144695719E+00  3.961245722E+00  1.425273821E+02  1.428753708E+02  1.907348633E-06  0.00000E+00  9.000E+00
#rwgt            1           1   2.7499820679739089E-002           8       41574           0
</event>
<event>
      5   9999  3.19816E-02  1.16323E+02 -1.00000E+00  1.20945E-01
      21    -1     0     0   512   501  0.000000000E+00  0.000000000E+00  3.825454581E+02  3.825454581E+02  0.000000000E+00  0.00000E+00  9.000E+00
      21    -1     0     0   501   502  0.000000000E+00  0.000000000E+00 -3.472566889E+03  3.472566889E+03  0.000000000E+00  0.00000E+00  9.000E+00
      25     1     1     2     0     0  7.237369950E+01 -1.003960190E+03 -2.012021105E+03  2.253226119E+03  1.250000000E+02  0.00000E+00  9.000E+00
      25     1     1     2     0     0  1.796263473E+01  9.306777064E+02 -1.134291141E+03  1.472659174E+03  1.250000000E+02  0.00000E+00  9.000E+00
      21     1     1     2   512   502 -9.033633423E+01  7.328248379E+01  5.629081534E+01  1.292270545E+02  4.370284743E-06  0.00000E+00  9.000E+00
#rwgt            1           1   7.3268214722039690E-002           8       41788           0
</event>
<event>
      5   9999  3.19816E-02  2.30387E+02 -1.00000E+00  1.09457E-01
       2    -1     0     0   502     0  0.000000000E+00  0.000000000E+00  2.437002193E+03  2.437002193E+03  0.000000000E+00  0.00000E+00  9.000E+00
      21    -1     0     0   501   502  0.000000000E+00  0.000000000E+00 -2.324932435E+03  2.324932435E+03  0.000000000E+00  0.00000E+00  9.000E+00
      25     1     1     2     0     0  2.661486181E+02 -1.901772640E+02 -2.211044174E+03  2.238603095E+03  1.250000000E+02  0.00000E+00  9.000E+00
      25     1     1     2     0     0 -4.927633010E+02  2.316992542E+02  7.595754791E+02  9.429104537E+02  1.250000000E+02  0.00000E+00  9.000E+00
       2     1     1     2   501     0  2.266146829E+02 -4.152199029E+01  1.563538453E+03  1.580421078E+03  0.000000000E+00  0.00000E+00  9.000E+00
#rwgt            1           1   4.6266306092120152E-002           8       41870           0
</event>
<event>
      5   9999  3.19816E-02  1.05863E+02 -1.00000E+00  1.22725E-01
      21    -1     0     0   502   501  0.000000000E+00  0.000000000E+00  8.487278758E+02  8.487278758E+02  0.000000000E+00  0.00000E+00  9.000E+00
      21    -1     0     0   501   511  0.000000000E+00  0.000000000E+00 -5.647786524E+02  5.647786524E+02  0.000000000E+00  0.00000E+00  9.000E+00
      25     1     1     2     0     0 -1.208883029E+02  2.560279389E+02  4.149079494E+02  5.176271764E+02  1.250000000E+02  0.00000E+00  9.000E+00
      25     1     1     2     0     0  1.529900651E+01 -2.636378296E+02  3.196168366E+02  4.330345102E+02  1.250000000E+02  0.00000E+00  9.000E+00
      21     1     1     2   502   511  1.055892964E+02  7.609890673E+00 -4.505755625E+02  4.628448416E+02  7.629394531E-06  0.00000E+00  9.000E+00
#rwgt            1           1   2.8560398890590050E-002           8       41937           0
</event>
<event>
      5   9999  3.19816E-02  3.12843E+01 -1.00000E+00  1.51786E-01
      21    -1     0     0   502   501  0.000000000E+00  0.000000000E+00  1.571366088E+02  1.571366088E+02  0.000000000E+00  0.00000E+00  9.000E+00
       2    -1     0     0   501     0  0.000000000E+00  0.000000000E+00 -3.093907362E+03  3.093907362E+03  0.000000000E+00  0.00000E+00  9.000E+00
      25     1     1     2     0     0  2.264895397E+02 -2.433435461E+02 -7.408244533E+02  8.215591663E+02  1.250000000E+02  0.00000E+00  9.000E+00
      25     1     1     2     0     0 -2.357432961E+02  2.732279435E+02 -1.959490085E+02  4.292428505E+02  1.250000000E+02  0.00000E+00  9.000E+00
       2     1     1     2   502     0  9.253756430E+00 -2.988439739E+01 -1.999997291E+03  2.000241954E+03  3.737624730E-05  0.00000E+00  9.000E+00
#rwgt            1           1   3.3764185308484566E-002           8       41991           0
</event>
<event>
      5   9999  3.19816E-02  1.13504E+02 -1.00000E+00  1.21403E-01
      21    -1     0     0   502   501  0.000000000E+00  0.000000000E+00  4.753773327E+02  4.753773327E+02  0.000000000E+00  0.00000E+00  9.000E+00
      -5    -1     0     0     0   502  0.000000000E+00  0.000000000E+00 -5.575144754E+02  5.575144754E+02  0.000000000E+00  0.00000E+00  9.000E+00
      25     1     1     2     0     0 -3.407537966E+00  7.465806793E+01  4.322348600E+02  4.561111845E+02  1.250000000E+02  0.00000E+00  9.000E+00
      25     1     1     2     0     0  5.269507313E+01  2.758605374E+01 -2.060738163E+02  2.482522484E+02  1.250000000E+02  0.00000E+00  9.000E+00
      -5     1     1     2     0   501 -4.928753516E+01 -1.022441217E+02 -3.082981865E+02  3.285283752E+02  3.814697266E-06  0.00000E+00  9.000E+00
#rwgt            1           1   3.1358756712485815E-002           8       42170           0
</event>
<event>
      5   9999  3.19816E-02  8.67878E+01 -1.00000E+00  1.26661E-01
      21    -1     0     0   502   511  0.000000000E+00  0.000000000E+00  3.623956434E+02  3.623956434E+02  0.000000000E+00  0.00000E+00  9.000E+00
      21    -1     0     0   501   502  0.000000000E+00  0.000000000E+00 -4.332356784E+02  4.332356784E+02  0.000000000E+00  0.00000E+00  9.000E+00
      25     1     1     2     0     0  2.224213874E+02 -9.896489375E+01 -1.397274785E+01  2.740174474E+02  1.250000000E+02  0.00000E+00  9.000E+00
      25     1     1     2     0     0 -2.773094605E+02  3.173829965E+01 -1.919322206E+02  3.610690154E+02  1.250000000E+02  0.00000E+00  9.000E+00
      21     1     1     2   501   511  5.488807314E+01  6.722659410E+01  1.350649335E+02  1.605448591E+02  1.907348633E-06  0.00000E+00  9.000E+00
#rwgt            1           1   2.6761452161106144E-002           8       42275           0
</event>
<event>
      5   9999  3.19816E-02  1.56793E+02 -1.00000E+00  1.15636E-01
      21    -1     0     0   502   501  0.000000000E+00  0.000000000E+00  7.280120921E+02  7.280120921E+02  0.000000000E+00  0.00000E+00  9.000E+00
      21    -1     0     0   512   502  0.000000000E+00  0.000000000E+00 -5.844481529E+02  5.844481529E+02  0.000000000E+00  0.00000E+00  9.000E+00
      25     1     1     2     0     0  5.344497301E+02 -1.502277689E+01  2.204926565E+02  5.916960448E+02  1.250000000E+02  0.00000E+00  9.000E+00
      25     1     1     2     0     0 -5.047122165E+02 -1.389245537E+02  1.611686868E+01  5.384414606E+02  1.250000000E+02  0.00000E+00  9.000E+00
      21     1     1     2   512   501 -2.973751365E+01  1.539473306E+02 -9.304558597E+01  1.823227396E+02  1.907348633E-06  0.00000E+00  9.000E+00
#rwgt            1           1   2.5876162888403480E-002           8       42347           0
</event>
<event>
      5   9999  3.32321E-02  1.83381E+02 -1.00000E+00  1.13037E-01
      21    -1     0     0   502   501  0.000000000E+00  0.000000000E+00  4.103210849E+02  4.103210849E+02  0.000000000E+00  0.00000E+00  9.000E+00
      21    -1     0     0   511   502  0.000000000E+00  0.000000000E+00 -4.404985018E+02  4.404985018E+02  0.000000000E+00  0.00000E+00  9.000E+00
      25     1     1     2     0     0 -1.051477551E+02 -1.548932041E+02 -1.315098528E+02  2.607063414E+02  1.250000000E+02  0.00000E+00  9.000E+00
      25     1     1     2     0     0 -6.745466018E+01  2.168352776E+02  2.453685855E+02  3.569291407E+02  1.250000000E+02  0.00000E+00  9.000E+00
      21     1     1     2   511   501  1.726024152E+02 -6.194207348E+01 -1.440361496E+02  2.331841045E+02  0.000000000E+00  0.00000E+00  9.000E+00
#rwgt            1           1   3.1159538618448536E-002           8       42399           0
</event>
<event>
      5   9999  3.19816E-02  8.97459E+01 -1.00000E+00  1.25979E-01
      21    -1     0     0   512   501  0.000000000E+00  0.000000000E+00  1.706206240E+03  1.706206240E+03  0.000000000E+00  0.00000E+00  9.000E+00
      21    -1     0     0   501   502  0.000000000E+00  0.000000000E+00 -4.878674238E+01  4.878674238E+01  0.000000000E+00  0.00000E+00  9.000E+00
      25     1     1     2     0     0  1.441900045E+02 -4.115376973E+01  2.016756599E+02  2.806821368E+02  1.250000000E+02  0.00000E+00  9.000E+00
      25     1     1     2     0     0 -6.987357869E+01 -9.159291902E+00  8.937459808E+02  9.051922933E+02  1.250000000E+02  0.00000E+00  9.000E+00
      21     1     1     2   512   502 -7.431642578E+01  5.031306164E+01  5.619978569E+02  5.691185522E+02  7.629394531E-06  0.00000E+00  9.000E+00
#rwgt            1           1   2.8824640967316805E-002           8       42490           0
</event>
<event>
      5   9999  3.19816E-02  3.92637E+01 -1.00000E+00  1.45342E-01
      21    -1     0     0   502   501  0.000000000E+00  0.000000000E+00  5.746525012E+02  5.746525012E+02  0.000000000E+00  0.00000E+00  9.000E+00
      21    -1     0     0   501   511  0.000000000E+00  0.000000000E+00 -2.115545856E+02  2.115545856E+02  0.000000000E+00  0.00000E+00  9.000E+00
      25     1     1     2     0     0  9.753973359E+01 -2.145347308E+02  2.528584105E+02  3.675615950E+02  1.250000000E+02  0.00000E+00  9.000E+00
      25     1     1     2     0     0 -6.189139451E+01  2.309916590E+02  1.898134871E+02  3.299118839E+02  1.250000000E+02  0.00000E+00  9.000E+00
      21     1     1     2   502   511 -3.564833908E+01 -1.645692818E+01 -7.957398201E+01  8.873360793E+01  9.536743164E-07  0.00000E+00  9.000E+00
#rwgt            2          11   1.4234486561594021E-003           8       42542           0
</event>
<event>
      5   9999  3.19816E-02  2.71500E+02 -1.00000E+00  1.07020E-01
      21    -1     0     0   502   501  0.000000000E+00  0.000000000E+00  2.516445763E+02  2.516445763E+02  0.000000000E+00  0.00000E+00  9.000E+00
       2    -1     0     0   501     0  0.000000000E+00  0.000000000E+00 -3.118209349E+03  3.118209349E+03  0.000000000E+00  0.00000E+00  9.000E+00
      25     1     1     2     0     0 -5.727111786E+01  6.718600917E+01 -9.736877166E+01  1.813825197E+02  1.250000000E+02  0.00000E+00  9.000E+00
      25     1     1     2     0     0  1.439972502E+02 -3.244618642E+02  2.869581923E+01  3.774376232E+02  1.250000000E+02  0.00000E+00  9.000E+00
       2     1     1     2   502     0 -8.672613230E+01  2.572758550E+02 -2.797891820E+03  2.811033782E+03  0.000000000E+00  0.00000E+00  9.000E+00
#rwgt            2          13   4.3457899372817532E-003           8       42727           0
</event>
<event>
      5   9999  3.19816E-02  5.77885E+01 -1.00000E+00  1.35581E-01
      21    -1     0     0   502   501  0.000000000E+00  0.000000000E+00  4.310371800E+02  4.310371800E+02  0.000000000E+00  0.00000E+00  9.000E+00
      21    -1     0     0   511   502  0.000000000E+00  0.000000000E+00 -1.917097256E+03  1.917097256E+03  0.000000000E+00  0.00000E+00  9.000E+00
      25     1     1     2     0     0 -8.068653514E+02 -7.997428943E+01 -7.677502238E+02  1.123607133E+03  1.250000000E+02  0.00000E+00  9.000E+00
      25     1     1     2     0     0  7.761100063E+02  3.104968893E+01 -3.663256371E+02  8.678308000E+02  1.250000000E+02  0.00000E+00  9.000E+00
      21     1     1     2   511   501  3.075534500E+01  4.892460050E+01 -3.519842150E+02  3.566965032E+02  3.814697266E-06  0.00000E+00  9.000E+00
#rwgt            1           1   3.5432646532589894E-002           8       42746           0
</event>
<event>
      5   9999  3.19816E-02  5.19058E+01 -1.00000E+00  1.38155E-01
      21    -1     0     0   502   501  0.000000000E+00  0.000000000E+00  2.293184890E+02  2.293184890E+02  0.000000000E+00  0.00000E+00  9.000E+00
      21    -1     0     0   512   502  0.000000000E+00  0.000000000E+00 -6.585076410E+02  6.585076410E+02  0.000000000E+00  0.00000E+00  9.000E+00
      25     1     1     2     0     0 -5.011957666E+01 -2.889158921E+02 -1.651338063E+02  3.589965719E+02  1.250000000E+02  0.00000E+00  9.000E+00
      25     1     1     2     0     0  4.187685178E+01  3.401630664E+02 -1.337382178E+02  3.885556503E+02  1.250000000E+02  0.00000E+00  9.000E+00
      21     1     1     2   512   501  8.242724885E+00 -5.124717434E+01 -1.303171279E+02  1.402739078E+02  1.907348633E-06  0.00000E+00  9.000E+00
#rwgt            1           1   2.4983434607125439E-002           8       42867           0
</event>
<event>
      5   9999  3.19816E-02  8.72036E+01 -1.00000E+00  1.26563E-01
      21    -1     0     0   502   511  0.000000000E+00  0.000000000E+00  7.477550348E+01  7.477550348E+01  0.000000000E+00  0.00000E+00  9.000E+00
      21    -1     0     0   501   502  0.000000000E+00  0.000000000E+00 -2.192829354E+03  2.192829354E+03  0.000000000E+00  0.00000E+00  9.000E+00
      25     1     1     2     0     0 -6.793771061E+01 -2.323621121E+02 -1.719673853E+03  1.741123444E+03  1.250000000E+02  0.00000E+00  9.000E+00
      25     1     1     2     0     0  5.964477165E+01  1.455537774E+02 -3.902063271E+02  4.388956352E+02  1.250000000E+02  0.00000E+00  9.000E+00
      21     1     1     2   501   511  8.292938952E+00  8.680833468E+01 -8.173670364E+00  8.758577906E+01  2.336015456E-06  0.00000E+00  9.000E+00
#rwgt            1           1   8.6220557949841417E-002           8       42954           0
</event>
<event>
      5   9999  3.19816E-02  1.28924E+02 -1.00000E+00  1.19061E-01
      21    -1     0     0   512   501  0.000000000E+00  0.000000000E+00  2.142512859E+03  2.142512859E+03  0.000000000E+00  0.00000E+00  9.000E+00
      21    -1     0     0   501   502  0.000000000E+00  0.000000000E+00 -7.504856272E+01  7.504856272E+01  0.000000000E+00  0.00000E+00  9.000E+00
      25     1     1     2     0     0 -1.717449600E+02  1.817295878E+02  9.796733093E+02  1.018777094E+03  1.250000000E+02  0.00000E+00  9.000E+00
      25     1     1     2     0     0  2.955162337E+02 -1.456441042E+02  6.156782839E+02  7.093848031E+02  1.250000000E+02  0.00000E+00  9.000E+00
      21     1     1     2   512   502 -1.237712737E+02 -3.608548366E+01  4.721127030E+02  4.893995246E+02  0.000000000E+00  0.00000E+00  9.000E+00
#rwgt            2          11   2.6665732500017508E-003           8       43003           0
</event>
<event>
      5   9999  3.19816E-02  3.28553E+02 -1.00000E+00  1.04325E-01
      21    -1     0     0   502   501  0.000000000E+00  0.000000000E+00  5.499324640E+02  5.499324640E+02  0.000000000E+00  0.00000E+00  9.000E+00
      21    -1     0     0   511   502  0.000000000E+00  0.000000000E+00 -7.846308791E+02  7.846308791E+02  0.000000000E+00  0.00000E+00  9.000E+00
      25     1     1     2     0     0 -2.297593509E+02 -1.545058357E+02 -3.953776220E+01  3.063488979E+02  1.250000000E+02  0.00000E+00  9.000E+00
      25     1     1     2     0     0 -9.197097043E+01  2.211120313E+02  3.190190707E+02  4.180279384E+02  1.250000000E+02  0.00000E+00  9.000E+00
      21     1     1     2   511   501  3.217303213E+02 -6.660619559E+01 -5.141797236E+02  6.101865068E+02  1.078959322E-05  0.00000E+00  9.000E+00
#rwgt            2          11   3.5504022879419297E-003           8       43023           0
</event>
<event>
      5   9999  3.19816E-02  6.32311E+01 -1.00000E+00  1.33497E-01
      21    -1     0     0   502   501  0.000000000E+00  0.000000000E+00  4.293318126E+02  4.293318126E+02  0.000000000E+00  0.00000E+00  9.000E+00
      21    -1     0     0   501   512  0.000000000E+00  0.000000000E+00 -1.478759191E+03  1.478759191E+03  0.000000000E+00  0.00000E+00  9.000E+00
      25     1     1     2     0     0  1.000965280E+02  7.334845543E+02 -4.532386183E+02  8.769658782E+02  1.250000000E+02  0.00000E+00  9.000E+00
      25     1     1     2     0     0 -3.763246951E+01 -7.433035030E+02 -4.675200749E+02  8.877591570E+02  1.250000000E+02  0.00000E+00  9.000E+00
      21     1     1     2   502   512 -6.246405849E+01  9.818948691E+00 -1.286686850E+02  1.433659683E+02  1.907348633E-06  0.00000E+00  9.000E+00
#rwgt            1           1   2.5668463535785085E-002           8       43058           0
</event>
<event>
      5   9999  3.19816E-02  2.67994E+01 -1.00000E+00  1.56523E-01
      21    -1     0     0   502   501  0.000000000E+00  0.000000000E+00  1.658954059E+02  1.658954059E+02  0.000000000E+00  0.00000E+00  9.000E+00
      -2    -1     0     0     0   502  0.000000000E+00  0.000000000E+00 -8.623751905E+02  8.623751905E+02  0.000000000E+00  0.00000E+00  9.000E+00
      25     1     1     2     0     0  1.753643954E+02 -2.063356180E+02 -6.156276719E+02  6.840683364E+02  1.250000000E+02  0.00000E+00  9.000E+00
      25     1     1     2     0     0 -1.500028988E+02  2.149960192E+02 -3.695480025E+01  2.927709261E+02  1.250000000E+02  0.00000E+00  9.000E+00
      -2     1     1     2     0   501 -2.536149662E+01 -8.660401273E+00 -4.389731244E+01  5.143133384E+01  0.000000000E+00  0.00000E+00  9.000E+00
#rwgt            1           1   2.3125422581060949E-002           8       43175           0
</event>
<event>
      5   9999  3.19816E-02  2.30993E+01 -1.00000E+00  1.61367E-01
      21    -1     0     0   502   511  0.000000000E+00  0.000000000E+00  7.000264072E+01  7.000264072E+01  0.000000000E+00  0.00000E+00  9.000E+00
      21    -1     0     0   501   502  0.000000000E+00  0.000000000E+00 -1.458697479E+03  1.458697479E+03  0.000000000E+00  0.00000E+00  9.000E+00
      25     1     1     2     0     0  2.355501677E+02 -5.995276972E+01 -5.920529900E+02  6.520965872E+02  1.250000000E+02  0.00000E+00  9.000E+00
      25     1     1     2     0     0 -2.516602751E+02  7.650692937E+01 -8.017007473E+02  8.529567940E+02  1.250000000E+02  0.00000E+00  9.000E+00
      21     1     1     2   501   511  1.611010744E+01 -1.655415966E+01  5.058899294E+00  2.364673816E+01  2.731427965E-07  0.00000E+00  9.000E+00
#rwgt            1           1   2.5915650911993219E-002           8       43284           0
</event>
<event>
      5   9999  3.19816E-02  6.77930E+01 -1.00000E+00  1.31929E-01
      21    -1     0     0   502   501  0.000000000E+00  0.000000000E+00  9.328195586E+02  9.328195586E+02  0.000000000E+00  0.00000E+00  9.000E+00
       3    -1     0     0   501     0  0.000000000E+00  0.000000000E+00 -1.362923987E+02  1.362923987E+02  0.000000000E+00  0.00000E+00  9.000E+00
      25     1     1     2     0     0 -1.106941376E+02  1.105726100E+02  7.723779768E+02  7.979174351E+02  1.250000000E+02  0.00000E+00  9.000E+00
      25     1     1     2     0     0  4.305583243E+01 -1.059952810E+02  7.612925642E+01  1.857672414E+02  1.250000000E+02  0.00000E+00  9.000E+00
       3     1     1     2   502     0  6.763830518E+01 -4.577329054E+00 -5.198007342E+01  8.542728078E+01  1.784161275E-06  0.00000E+00  9.000E+00
#rwgt            1           1   2.2660812007751906E-002           8       43433           0
</event>
<event>
      5   9999  3.19816E-02  1.11607E+02 -1.00000E+00  1.21720E-01
      21    -1     0     0   502   511  0.000000000E+00  0.000000000E+00  1.541239878E+02  1.541239878E+02  0.000000000E+00  0.00000E+00  9.000E+00
      21    -1     0     0   501   502  0.000000000E+00  0.000000000E+00 -8.683340469E+02  8.683340469E+02  0.000000000E+00  0.00000E+00  9.000E+00
      25     1     1     2     0     0 -8.305852584E+01  2.205622785E+01 -7.117629611E+02  7.277476958E+02  1.250000000E+02  0.00000E+00  9.000E+00
      25     1     1     2     0     0  2.555432328E+01 -1.177087790E+02  3.481641074E+01  1.770467807E+02  1.250000000E+02  0.00000E+00  9.000E+00
      21     1     1     2   501   511  5.750420256E+01  9.565255116E+01 -3.726350865E+01  1.176635582E+02  1.066240300E-06  0.00000E+00  9.000E+00
#rwgt            1           1   2.4615580623585234E-002           8       43499           0
</event>
<event>
      5   9999  3.19816E-02  4.71000E+01 -1.00000E+00  1.40572E-01
      21    -1     0     0   502   501  0.000000000E+00  0.000000000E+00  7.801377868E+02  7.801377868E+02  0.000000000E+00  0.00000E+00  9.000E+00
      21    -1     0     0   512   502  0.000000000E+00  0.000000000E+00 -4.572774721E+02  4.572774721E+02  0.000000000E+00  0.00000E+00  9.000E+00
      25     1     1     2     0     0 -2.485698314E+02  2.974613668E+02  2.236659072E+01  4.079160333E+02  1.250000000E+02  0.00000E+00  9.000E+00
      25     1     1     2     0     0  2.943172874E+02 -2.862550938E+02  4.800176522E+02  6.438995192E+02  1.250000000E+02  0.00000E+00  9.000E+00
      21     1     1     2   512   501 -4.574745602E+01 -1.120627303E+01 -1.795239281E+02  1.855997065E+02  1.907348633E-06  0.00000E+00  9.000E+00
#rwgt            1           1   2.7094105843041370E-002           8       43570           0
</event>
<event>
      5   9999  3.19816E-02  6.22434E+01 -1.00000E+00  1.33857E-01
      21    -1     0     0   502   511  0.000000000E+00  0.000000000E+00  1.018099357E+03  1.018099357E+03  0.000000000E+00  0.00000E+00  9.000E+00
      21    -1     0     0   501   502  0.000000000E+00  0.000000000E+00 -1.296122987E+02  1.296122987E+02  0.000000000E+00  0.00000E+00  9.000E+00
      25     1     1     2     0     0 -1.138646489E+02  2.124825329E+02  6.820529008E+02  7.341220229E+02  1.250000000E+02  0.00000E+00  9.000E+00
      25     1     1     2     0     0  5.228657453E+01 -2.034063897E+02  5.592855106E+01  2.507210563E+02  1.250000000E+02  0.00000E+00  9.000E+00
      21     1     1     2   501   511  6.157807433E+01 -9.076143183E+00  1.505056065E+02  1.628685765E+02  0.000000000E+00  0.00000E+00  9.000E+00
#rwgt            1           1   2.8122063151704863E-002           8       43706           0
</event>
<event>
      5   9999  3.19816E-02  1.42065E+01 -1.00000E+00  1.79637E-01
      21    -1     0     0   502   501  0.000000000E+00  0.000000000E+00  4.611698902E+02  4.611698902E+02  0.000000000E+00  0.00000E+00  9.000E+00
      21    -1     0     0   501   512  0.000000000E+00  0.000000000E+00 -9.463877530E+02  9.463877530E+02  0.000000000E+00  0.00000E+00  9.000E+00
      25     1     1     2     0     0 -1.313396662E+02  3.058335714E+02 -7.503635019E+02  8.303340691E+02  1.250000000E+02  0.00000E+00  9.000E+00
      25     1     1     2     0     0  1.368592075E+02 -2.927431508E+02  3.492280711E+02  4.919494290E+02  1.250000000E+02  0.00000E+00  9.000E+00
      21     1     1     2   502   512 -5.519541287E+00 -1.309042058E+01 -8.408243199E+01  8.527414506E+01  1.348699152E-06  0.00000E+00  9.000E+00
#rwgt            1           1   3.1448947900341175E-002           8       43772           0
</event>
<event>
      5   9999  3.19816E-02  3.12335E+02 -1.00000E+00  1.05026E-01
      21    -1     0     0   502   511  0.000000000E+00  0.000000000E+00  2.315991725E+02  2.315991725E+02  0.000000000E+00  0.00000E+00  9.000E+00
      21    -1     0     0   501   502  0.000000000E+00  0.000000000E+00 -2.048514842E+03  2.048514842E+03  0.000000000E+00  0.00000E+00  9.000E+00
      25     1     1     2     0     0 -1.361579822E+02 -3.528735300E+02 -1.221963162E+03  1.285253941E+03  1.250000000E+02  0.00000E+00  9.000E+00
      25     1     1     2     0     0 -1.761524741E+02  3.568263262E+02 -5.323780771E+02  6.763180747E+02  1.250000000E+02  0.00000E+00  9.000E+00
      21     1     1     2   501   511  3.123104563E+02 -3.952796194E+00 -6.257443090E+01  3.185419990E+02  4.156969970E-06  0.00000E+00  9.000E+00
#rwgt            2          11   4.4279355021767273E-003           8       44035           0
</event>
<event>
      5   9999  3.19816E-02  3.28523E+01 -1.00000E+00  1.50350E-01
      21    -1     0     0   502   501  0.000000000E+00  0.000000000E+00  5.877608252E+02  5.877608252E+02  0.000000000E+00  0.00000E+00  9.000E+00
       2    -1     0     0   501     0  0.000000000E+00  0.000000000E+00 -3.030024528E+03  3.030024528E+03  0.000000000E+00  0.00000E+00  9.000E+00
      25     1     1     2     0     0 -1.371019543E+02  4.682809652E+02 -1.481988841E+01  5.039133233E+02  1.250000000E+02  0.00000E+00  9.000E+00
      25     1     1     2     0     0  1.139795013E+02 -4.449437269E+02  1.780097966E+02  5.082113089E+02  1.250000000E+02  0.00000E+00  9.000E+00
       2     1     1     2   502     0  2.312245299E+01 -2.333723831E+01 -2.605453611E+03  2.605660721E+03  3.051757812E-05  0.00000E+00  9.000E+00
#rwgt            1           1   2.8390512673885527E-002           8       44085           0
</event>
<event>
      5   9999  3.19816E-02  3.17049E+01 -1.00000E+00  1.51391E-01
      21    -1     0     0   502   501  0.000000000E+00  0.000000000E+00  8.989798844E+02  8.989798844E+02  0.000000000E+00  0.00000E+00  9.000E+00
      21    -1     0     0   511   502  0.000000000E+00  0.000000000E+00 -3.302477356E+02  3.302477356E+02  0.000000000E+00  0.00000E+00  9.000E+00
      25     1     1     2     0     0 -1.117977683E+02 -2.579286134E+02 -1.451230467E+02  3.401640917E+02  1.250000000E+02  0.00000E+00  9.000E+00
      25     1     1     2     0     0  1.137107977E+02  2.895757925E+02  7.613817159E+02  8.319323304E+02  1.250000000E+02  0.00000E+00  9.000E+00
      21     1     1     2   511   501 -1.913029397E+00 -3.164717913E+01 -4.752652041E+01  5.713119787E+01  1.168007728E-06  0.00000E+00  9.000E+00
#rwgt            1           1   2.8656877111829255E-002           8       44172           0
</event>
<event>
      5   9999  3.19816E-02  7.14587E+01 -1.00000E+00  1.30769E-01
       2    -1     0     0   502     0  0.000000000E+00  0.000000000E+00  2.339480539E+03  2.339480539E+03  0.000000000E+00  0.00000E+00  9.000E+00
      21    -1     0     0   501   502  0.000000000E+00  0.000000000E+00 -4.374334436E+02  4.374334436E+02  0.000000000E+00  0.00000E+00  9.000E+00
      25     1     1     2     0     0  3.815849829E+02 -2.977864113E+02  3.118932462E+02  5.892251208E+02  1.250000000E+02  0.00000E+00  9.000E+00
      25     1     1     2     0     0 -3.107779299E+02  3.074151046E+02 -1.246208809E+02  4.714258502E+02  1.250000000E+02  0.00000E+00  9.000E+00
       2     1     1     2   501     0 -7.080705300E+01 -9.628693310E+00  1.714774730E+03  1.716263012E+03  2.157918644E-05  0.00000E+00  9.000E+00
#rwgt            1           1   2.5954341802284724E-002           8       44283           0
</event>
<event>
      5   9999  3.19816E-02  2.01023E+01 -1.00000E+00  1.66186E-01
      21    -1     0     0   502   501  0.000000000E+00  0.000000000E+00  9.627856152E+02  9.627856152E+02  0.000000000E+00  0.00000E+00  9.000E+00
      21    -1     0     0   501   511  0.000000000E+00  0.000000000E+00 -5.538876069E+02  5.538876069E+02  0.000000000E+00  0.00000E+00  9.000E+00
      25     1     1     2     0     0 -2.489118888E+02 -8.548349118E+01  8.604701223E+02  9.084593480E+02  1.250000000E+02  0.00000E+00  9.000E+00
      25     1     1     2     0     0  2.656105977E+02  9.667524572E+01 -2.288036511E+02  3.845402495E+02  1.250000000E+02  0.00000E+00  9.000E+00
      21     1     1     2   502   511 -1.669870894E+01 -1.119175454E+01 -2.227684629E+02  2.236736245E+02  0.000000000E+00  0.00000E+00  9.000E+00
#rwgt            1           1   2.7169928482682418E-002           8       44405           0
</event>
<event>
      5   9999  3.19816E-02  1.02407E+02 -1.00000E+00  1.23365E-01
       2    -1     0     0   502     0  0.000000000E+00  0.000000000E+00  2.887771084E+03  2.887771084E+03  0.000000000E+00  0.00000E+00  9.000E+00
      21    -1     0     0   501   502  0.000000000E+00  0.000000000E+00 -1.379255939E+02  1.379255939E+02  0.000000000E+00  0.00000E+00  9.000E+00
      25     1     1     2     0     0  1.838862580E+02 -2.265835783E+02  1.936640651E+02  3.718669708E+02  1.250000000E+02  0.00000E+00  9.000E+00
      25     1     1     2     0     0 -2.375099393E+02  1.393385726E+02  4.328205817E+02  5.280008191E+02  1.250000000E+02  0.00000E+00  9.000E+00
       2     1     1     2   501     0  5.362368127E+01  8.724500578E+01  2.123360843E+03  2.125828888E+03  4.315837288E-05  0.00000E+00  9.000E+00
#rwgt            1           1   3.0771577756526731E-002           8       44549           0
</event>
<event>
      5   9999  3.19816E-02  6.77308E+01 -1.00000E+00  1.31950E-01
      21    -1     0     0   502   501  0.000000000E+00  0.000000000E+00  2.535858438E+02  2.535858438E+02  0.000000000E+00  0.00000E+00  9.000E+00
      21    -1     0     0   501   511  0.000000000E+00  0.000000000E+00 -2.103855028E+02  2.103855028E+02  0.000000000E+00  0.00000E+00  9.000E+00
      25     1     1     2     0     0  2.000838844E+01  1.601447169E+02  5.966736031E+01  2.126778311E+02  1.250000000E+02  0.00000E+00  9.000E+00
      25     1     1     2     0     0  3.913864632E+01 -1.271433628E+02 -1.889523324E+01  1.835192039E+02  1.250000000E+02  0.00000E+00  9.000E+00
      21     1     1     2   502   511 -5.914703476E+01 -3.300135410E+01  2.428213947E+00  6.777431162E+01  1.210209161E-06  0.00000E+00  9.000E+00
#rwgt            1           1   3.0242421014737460E-002           8       44639           0
</event>
<event>
      5   9999  3.19816E-02  8.84951E+01 -1.00000E+00  1.26263E-01
      21    -1     0     0   502   501  0.000000000E+00  0.000000000E+00  3.530030090E+02  3.530030090E+02  0.000000000E+00  0.00000E+00  9.000E+00
      -1    -1     0     0     0   502  0.000000000E+00  0.000000000E+00 -7.516596754E+02  7.516596754E+02  0.000000000E+00  0.00000E+00  9.000E+00
      25     1     1     2     0     0 -1.810746485E+02  2.832775557E+02 -3.391344058E+02  4.936307802E+02  1.250000000E+02  0.00000E+00  9.000E+00
      25     1     1     2     0     0  1.349649206E+02 -2.077442946E+02  1.965862222E+02  3.400652356E+02  1.250000000E+02  0.00000E+00  9.000E+00
      -1     1     1     2     0   501  4.610972793E+01 -7.553326116E+01 -2.561084828E+02  2.709666686E+02  3.814697266E-06  0.00000E+00  9.000E+00
#rwgt            1           1   2.7650231311923207E-002           8       44715           0
</event>
<event>
      5   9999  3.19816E-02  7.00713E+01 -1.00000E+00  1.31198E-01
      21    -1     0     0   511   501  0.000000000E+00  0.000000000E+00  1.165081979E+03  1.165081979E+03  0.000000000E+00  0.00000E+00  9.000E+00
      21    -1     0     0   501   502  0.000000000E+00  0.000000000E+00 -1.329867878E+02  1.329867878E+02  0.000000000E+00  0.00000E+00  9.000E+00
      25     1     1     2     0     0 -1.803376731E+01 -7.492855245E+01  2.600085582E+02  2.986117129E+02  1.250000000E+02  0.00000E+00  9.000E+00
      25     1     1     2     0     0  8.721926679E+01  8.603480143E+01 -4.391577905E+01  1.804516090E+02  1.250000000E+02  0.00000E+00  9.000E+00
      21     1     1     2   511   502 -6.918549948E+01 -1.110624898E+01  8.160024123E+02  8.190054450E+02  1.078959322E-05  0.00000E+00  9.000E+00
#rwgt            1           1   2.5668950173878192E-002           8       44787           0
</event>
<event>
      5   9999  3.19816E-02  2.61962E+01 -1.00000E+00  1.57245E-01
      21    -1     0     0   512   501  0.000000000E+00  0.000000000E+00  6.520831458E+02  6.520831458E+02  0.000000000E+00  0.00000E+00  9.000E+00
      21    -1     0     0   501   502  0.000000000E+00  0.000000000E+00 -5.865541399E+02  5.865541399E+02  0.000000000E+00  0.00000E+00  9.000E+00
      25     1     1     2     0     0  3.021678487E+01 -1.672948424E+02 -9.690534741E+01  2.321987613E+02  1.250000000E+02  0.00000E+00  9.000E+00
      25     1     1     2     0     0 -5.168269075E+01  1.522797282E+02 -3.971013547E+02  4.462899305E+02  1.250000000E+02  0.00000E+00  9.000E+00
      21     1     1     2   512   502  2.146590588E+01  1.501511416E+01  5.595357080E+02  5.601485939E+02  7.629394531E-06  0.00000E+00  9.000E+00
#rwgt            1           1   2.8790963828087535E-002           8       44828           0
</event>
<event>
      5   9999  3.19816E-02  1.71507E+01 -1.00000E+00  1.72072E-01
      21    -1     0     0   502   501  0.000000000E+00  0.000000000E+00  3.651743120E+02  3.651743120E+02  0.000000000E+00  0.00000E+00  9.000E+00
      21    -1     0     0   501   511  0.000000000E+00  0.000000000E+00 -3.124721018E+02  3.124721018E+02  0.000000000E+00  0.00000E+00  9.000E+00
      25     1     1     2     0     0 -4.398656731E+01 -2.106933909E+02  2.522998048E+02  3.544103759E+02  1.250000000E+02  0.00000E+00  9.000E+00
      25     1     1     2     0     0  4.576504859E+01  1.936351804E+02 -1.953322261E+02  3.055629252E+02  1.250000000E+02  0.00000E+00  9.000E+00
      21     1     1     2   502   511 -1.778481284E+00  1.705821055E+01 -4.265368535E+00  1.767311268E+01  3.816559456E-07  0.00000E+00  9.000E+00
#rwgt            1           1   3.0131750395136908E-002           8       44968           0
</event>
<event>
      5   9999  3.19816E-02  7.17409E+01 -1.00000E+00  1.30683E-01
      21    -1     0     0   502   501  0.000000000E+00  0.000000000E+00  1.200942246E+02  1.200942246E+02  0.000000000E+00  0.00000E+00  9.000E+00
      21    -1     0     0   512   502  0.000000000E+00  0.000000000E+00 -2.572465459E+02  2.572465459E+02  0.000000000E+00  0.00000E+00  9.000E+00
      25     1     1     2     0     0 -4.585773505E+01  2.501912722E+01 -1.012113824E+02  1.691083455E+02  1.250000000E+02  0.00000E+00  9.000E+00
      25     1     1     2     0     0 -2.565607160E+01 -1.931500456E+01 -2.507957724E+00  1.290836677E+02  1.250000000E+02  0.00000E+00  9.000E+00
      21     1     1     2   512   501  7.151380665E+01 -5.704122652E+00 -3.343298108E+01  7.914875729E+01  9.536743164E-07  0.00000E+00  9.000E+00
#rwgt            1           1   6.9752817216654642E-003           8       45150           0
</event>
<event>
      5   9999  3.19816E-02  3.37553E+01 -1.00000E+00  1.49565E-01
      21    -1     0     0   511   501  0.000000000E+00  0.000000000E+00  9.766592210E+02  9.766592210E+02  0.000000000E+00  0.00000E+00  9.000E+00
      21    -1     0     0   501   502  0.000000000E+00  0.000000000E+00 -4.293248154E+01  4.293248154E+01  0.000000000E+00  0.00000E+00  9.000E+00
      25     1     1     2     0     0 -9.674236663E+01  1.824658218E+01  4.246088694E+02  4.534420749E+02  1.250000000E+02  0.00000E+00  9.000E+00
      25     1     1     2     0     0  6.327208492E+01 -2.262384006E+01  1.539524451E+02  2.093837392E+02  1.250000000E+02  0.00000E+00  9.000E+00
      21     1     1     2   511   502  3.347028170E+01  4.377257879E+00  3.551654249E+02  3.567658885E+02  5.394796609E-06  0.00000E+00  9.000E+00
#rwgt            1           1   2.8037652058798629E-002           8       45217           0
</event>
<event>
      5   9999  3.19816E-02  3.51976E+02 -1.00000E+00  1.03385E-01
      21    -1     0     0   502   501  0.000000000E+00  0.000000000E+00  1.567825962E+03  1.567825962E+03  0.000000000E+00  0.00000E+00  9.000E+00
       5    -1     0     0   501     0  0.000000000E+00  0.000000000E+00 -2.732920455E+02  2.732920455E+02  0.000000000E+00  0.00000E+00  9.000E+00
      25     1     1     2     0     0 -4.841969968E+02 -2.384676589E+02  6.904838482E+02  8.852719925E+02  1.250000000E+02  0.00000E+00  9.000E+00
      25     1     1     2     0     0  1.975718480E+02  3.418058843E+01  5.514807651E+02  5.999658174E+02  1.250000000E+02  0.00000E+00  9.000E+00
       5     1     1     2   502     0  2.866251488E+02  2.042870705E+02  5.256930273E+01  3.558801971E+02  8.996945507E-06  0.00000E+00  9.000E+00
#rwgt            2          16   3.6473540782027836E-005           8       45406           0
</event>
<event>
      5   9999  3.19816E-02  4.99937E+01 -1.00000E+00  1.39079E-01
      21    -1     0     0   502   511  0.000000000E+00  0.000000000E+00  5.311733511E+02  5.311733511E+02  0.000000000E+00  0.00000E+00  9.000E+00
      21    -1     0     0   501   502  0.000000000E+00  0.000000000E+00 -2.711725493E+02  2.711725493E+02  0.000000000E+00  0.00000E+00  9.000E+00
      25     1     1     2     0     0  2.231770764E+02  9.966092609E+01 -1.225439340E+02  3.006365304E+02  1.250000000E+02  0.00000E+00  9.000E+00
      25     1     1     2     0     0 -1.823385402E+02 -1.284980582E+02  2.401505521E+02  3.507939307E+02  1.250000000E+02  0.00000E+00  9.000E+00
      21     1     1     2   501   511 -4.083853629E+01  2.883713208E+01  1.423941837E+02  1.509154392E+02  1.907348633E-06  0.00000E+00  9.000E+00
#rwgt            2          11   1.6151706312073459E-003           8       45440           0
</event>
<event>
      5   9999  3.19816E-02  4.75972E+01 -1.00000E+00  1.40307E-01
      21    -1     0     0   502   512  0.000000000E+00  0.000000000E+00  8.016763149E+02  8.016763149E+02  0.000000000E+00  0.00000E+00  9.000E+00
      21    -1     0     0   501   502  0.000000000E+00  0.000000000E+00 -9.264272069E+02  9.264272069E+02  0.000000000E+00  0.00000E+00  9.000E+00
      25     1     1     2     0     0 -1.613420873E+02  1.453186186E+02 -1.559488248E+02  2.951165973E+02  1.250000000E+02  0.00000E+00  9.000E+00
      25     1     1     2     0     0  1.784271435E+02 -1.008934230E+02 -6.795153991E+02  7.206815565E+02  1.250000000E+02  0.00000E+00  9.000E+00
      21     1     1     2   501   512 -1.708505620E+01 -4.442519561E+01  7.107133319E+02  7.123053680E+02  1.525878906E-05  0.00000E+00  9.000E+00
#rwgt            1           1   2.9194955157050159E-002           8       45475           0
</event>
<event>
      5   9999  3.19816E-02  1.02790E+02 -1.00000E+00  1.23293E-01
      21    -1     0     0   502   511  0.000000000E+00  0.000000000E+00  1.151336148E+03  1.151336148E+03  0.000000000E+00  0.00000E+00  9.000E+00
      21    -1     0     0   501   502  0.000000000E+00  0.000000000E+00 -2.154062750E+03  2.154062750E+03  0.000000000E+00  0.00000E+00  9.000E+00
      25     1     1     2     0     0  4.924577941E+02  7.923700536E+02 -1.714082577E+03  1.955522708E+03  1.250000000E+02  0.00000E+00  9.000E+00
      25     1     1     2     0     0 -5.527034072E+02 -8.756538598E+02  6.275225995E+02  1.217234715E+03  1.250000000E+02  0.00000E+00  9.000E+00
      21     1     1     2   501   511  6.024561311E+01  8.328380616E+01  8.383337471E+01  1.326414753E+02  0.000000000E+00  0.00000E+00  9.000E+00
#rwgt            1           1   3.6579970878567798E-002           8       45570           0
</event>
<event>
      5   9999  3.19816E-02  5.04827E+00 -1.00000E+00  2.37790E-01
      21    -1     0     0   512   501  0.000000000E+00  0.000000000E+00  1.107898816E+02  1.107898816E+02  0.000000000E+00  0.00000E+00  9.000E+00
      21    -1     0     0   501   502  0.000000000E+00  0.000000000E+00 -1.426389460E+03  1.426389460E+03  0.000000000E+00  0.00000E+00  9.000E+00
      25     1     1     2     0     0  1.538338120E+02  3.148518071E+02 -7.552584844E+02  8.419245099E+02  1.250000000E+02  0.00000E+00  9.000E+00
      25     1     1     2     0     0 -1.581781600E+02 -3.122804861E+02 -5.722192728E+02  6.823483923E+02  1.250000000E+02  0.00000E+00  9.000E+00
      21     1     1     2   512   502  4.344348036E+00 -2.571321017E+00  1.187817865E+01  1.290643946E+01  1.685873940E-07  0.00000E+00  9.000E+00
#rwgt            1           1   3.1102736731204755E-002           8       45715           0
</event>
<event>
      5   9999  3.19816E-02  3.26673E+01 -1.00000E+00  1.50514E-01
      21    -1     0     0   511   501  0.000000000E+00  0.000000000E+00  4.847417066E+02  4.847417066E+02  0.000000000E+00  0.00000E+00  9.000E+00
      21    -1     0     0   501   502  0.000000000E+00  0.000000000E+00 -4.920511032E+02  4.920511032E+02  0.000000000E+00  0.00000E+00  9.000E+00
      25     1     1     2     0     0  9.584111521E+01  1.963423150E+01  4.235694750E+02  4.523351883E+02  1.250000000E+02  0.00000E+00  9.000E+00
      25     1     1     2     0     0 -6.397009462E+01 -1.246559821E+01 -4.597399550E+02  4.808673314E+02  1.250000000E+02  0.00000E+00  9.000E+00
      21     1     1     2   511   502 -3.187102059E+01 -7.168633291E+00  2.886108333E+01  4.359029006E+01  7.539457465E-07  0.00000E+00  9.000E+00
#rwgt            1           1   2.7498530384741409E-002           8       46073           0
</event>
<event>
      5   9999  3.19816E-02  8.71654E+01 -1.00000E+00  1.26572E-01
      21    -1     0     0   502   501  0.000000000E+00  0.000000000E+00  1.577734678E+03  1.577734678E+03  0.000000000E+00  0.00000E+00  9.000E+00
      21    -1     0     0   512   502  0.000000000E+00  0.000000000E+00 -4.457907901E+02  4.457907901E+02  0.000000000E+00  0.00000E+00  9.000E+00
      25     1     1     2     0     0 -5.957529353E+01  6.557788764E+02  1.551453876E+02  6.879609303E+02  1.250000000E+02  0.00000E+00  9.000E+00
      25     1     1     2     0     0  1.202879525E+02 -5.932346721E+02  1.052203921E+03  1.220309248E+03  1.250000000E+02  0.00000E+00  9.000E+00
      21     1     1     2   512   501 -6.071265896E+01 -6.254420433E+01 -7.540542080E+01  1.152552903E+02  0.000000000E+00  0.00000E+00  9.000E+00
#rwgt            1           1   2.3005082765765239E-002           8       46243           0
</event>
<event>
      5   9999  3.19816E-02  9.73321E+01 -1.00000E+00  1.24358E-01
      21    -1     0     0   502   511  0.000000000E+00  0.000000000E+00  4.024629281E+02  4.024629281E+02  0.000000000E+00  0.00000E+00  9.000E+00
      21    -1     0     0   501   502  0.000000000E+00  0.000000000E+00 -1.049264497E+03  1.049264497E+03  0.000000000E+00  0.00000E+00  9.000E+00
      25     1     1     2     0     0 -7.993468428E+01 -1.603403398E+02 -4.604438065E+02  5.096391638E+02  1.250000000E+02  0.00000E+00  9.000E+00
      25     1     1     2     0     0  1.480006902E+02  2.299144332E+02 -5.166463537E+02  5.977568951E+02  1.250000000E+02  0.00000E+00  9.000E+00
      21     1     1     2   501   511 -6.806600594E+01 -6.957409338E+01  3.302885917E+02  3.443313657E+02  6.607249480E-06  0.00000E+00  9.000E+00
#rwgt            2          11   9.5695274986663231E-003           8       46492           0
</event>
<event>
      5   9999  3.19816E-02  5.23659E+01 -1.00000E+00  1.37940E-01
      21    -1     0     0   502   501  0.000000000E+00  0.000000000E+00  2.744704284E+02  2.744704284E+02  0.000000000E+00  0.00000E+00  9.000E+00
       2    -1     0     0   501     0  0.000000000E+00  0.000000000E+00 -1.720496747E+03  1.720496747E+03  0.000000000E+00  0.00000E+00  9.000E+00
      25     1     1     2     0     0 -4.206200616E+02  4.185576461E+02 -3.222667832E+02  6.867260144E+02  1.250000000E+02  0.00000E+00  9.000E+00
      25     1     1     2     0     0  3.854825133E+02 -4.573847483E+02 -1.075747229E+03  1.237196297E+03  1.250000000E+02  0.00000E+00  9.000E+00
       2     1     1     2   502     0  3.513754827E+01  3.882710221E+01 -4.801230644E+01  7.104486423E+01  6.743495762E-07  0.00000E+00  9.000E+00
#rwgt            1           1   2.8589897923302979E-002           8       46512           0
</event>
<event>
      5   9999  3.19816E-02  8.90646E+01 -1.00000E+00  1.26133E-01
      21    -1     0     0   502   501  0.000000000E+00  0.000000000E+00  2.842493430E+02  2.842493430E+02  0.000000000E+00  0.00000E+00  9.000E+00
       2    -1     0     0   501     0  0.000000000E+00  0.000000000E+00 -1.421627757E+03  1.421627757E+03  0.000000000E+00  0.00000E+00  9.000E+00
      25     1     1     2     0     0  2.538595135E+02 -1.465767690E+02 -8.561216515E+01  3.299755212E+02  1.250000000E+02  0.00000E+00  9.000E+00
      25     1     1     2     0     0 -2.787158823E+02  2.321025826E+02 -6.984028786E+01  3.899446341E+02  1.250000000E+02  0.00000E+00  9.000E+00
       2     1     1     2   502     0  2.485636882E+01 -8.552581364E+01 -9.819259614E+02  9.859569450E+02  0.000000000E+00  0.00000E+00  9.000E+00
#rwgt            2          13   1.4368795042107676E-003           8       46768           0
</event>
<event>
      5   9999  3.19816E-02  8.89164E+01 -1.00000E+00  1.26167E-01
      21    -1     0     0   502   501  0.000000000E+00  0.000000000E+00  6.492072544E+02  6.492072544E+02  0.000000000E+00  0.00000E+00  9.000E+00
       4    -1     0     0   501     0  0.000000000E+00  0.000000000E+00 -5.507526588E+02  5.507526588E+02  0.000000000E+00  0.00000E+00  9.000E+00
      25     1     1     2     0     0  1.281290370E+02 -2.566304722E+02 -2.499360377E+02  4.004613243E+02  1.250000000E+02  0.00000E+00  9.000E+00
      25     1     1     2     0     0 -3.953793441E+01  2.490315645E+02  5.284289578E+02  5.987003690E+02  1.250000000E+02  0.00000E+00  9.000E+00
       4     1     1     2   502     0 -8.859110258E+01  7.598907643E+00 -1.800383245E+02  2.007982199E+02  1.907348633E-06  0.00000E+00  9.000E+00
#rwgt            1           1   2.7724859519323544E-002           8       46787           0
</event>
<event>
      5   9999  3.19816E-02  4.56673E+01 -1.00000E+00  1.41359E-01
      21    -1     0     0   511   501  0.000000000E+00  0.000000000E+00  3.341258466E+01  3.341258466E+01  0.000000000E+00  0.00000E+00  9.000E+00
      21    -1     0     0   501   502  0.000000000E+00  0.000000000E+00 -2.022193646E+03  2.022193646E+03  0.000000000E+00  0.00000E+00  9.000E+00
      25     1     1     2     0     0 -1.521210389E+02  5.417539679E+01 -9.084341217E+02  9.311032905E+02  1.250000000E+02  0.00000E+00  9.000E+00
      25     1     1     2     0     0  1.328467466E+02 -9.557596083E+01 -1.049215335E+03  1.069233764E+03  1.250000000E+02  0.00000E+00  9.000E+00
      21     1     1     2   511   502  1.927429231E+01  4.140056404E+01 -3.113160450E+01  5.526917627E+01  1.784161275E-06  0.00000E+00  9.000E+00
#rwgt            1           1   7.5478551667998411E-002           8       46963           0
</event>
<event>
      5   9999  3.19816E-02  1.27393E+01 -1.00000E+00  1.84339E-01
      21    -1     0     0   502   501  0.000000000E+00  0.000000000E+00  7.799606867E+01  7.799606867E+01  0.000000000E+00  0.00000E+00  9.000E+00
      21    -1     0     0   512   502  0.000000000E+00  0.000000000E+00 -3.756348030E+02  3.756348030E+02  0.000000000E+00  0.00000E+00  9.000E+00
      25     1     1     2     0     0  8.708291695E+01  4.957572219E+01 -8.954371638E+01  1.835327322E+02  1.250000000E+02  0.00000E+00  9.000E+00
      25     1     1     2     0     0 -7.902462500E+01 -5.944247683E+01 -1.906529353E+02  2.484991774E+02  1.250000000E+02  0.00000E+00  9.000E+00
      21     1     1     2   512   501 -8.058291954E+00  9.866754637E+00 -1.744208266E+01  2.159896210E+01  3.371747881E-07  0.00000E+00  9.000E+00
#rwgt            1           1   2.4703944383572998E-002           8       47036           0
</event>
<event>
      5   9999  3.19816E-02  1.94732E+01 -1.00000E+00  1.67331E-01
      21    -1     0     0   502   501  0.000000000E+00  0.000000000E+00  8.798235730E+02  8.798235730E+02  0.000000000E+00  0.00000E+00  9.000E+00
      21    -1     0     0   501   511  0.000000000E+00  0.000000000E+00 -1.675324232E+02  1.675324232E+02  0.000000000E+00  0.00000E+00  9.000E+00
      25     1     1     2     0     0 -1.437471713E+02  1.603719783E+02  4.039224767E+02  4.745111041E+02  1.250000000E+02  0.00000E+00  9.000E+00
      25     1     1     2     0     0  1.600212896E+02 -1.496781333E+02  4.034320637E+02  4.758075102E+02  1.250000000E+02  0.00000E+00  9.000E+00
      21     1     1     2   502   511 -1.627411832E+01 -1.069384505E+01 -9.506339065E+01  9.703738193E+01  1.907348633E-06  0.00000E+00  9.000E+00
#rwgt            1           1   2.8797107551872255E-002           8       47211           0
</event>
<event>
      5   9999  3.19816E-02  4.85408E+01 -1.00000E+00  1.39813E-01
      21    -1     0     0   502   501  0.000000000E+00  0.000000000E+00  7.803737065E+02  7.803737065E+02  0.000000000E+00  0.00000E+00  9.000E+00
      21    -1     0     0   501   512  0.000000000E+00  0.000000000E+00 -1.084259834E+02  1.084259834E+02  0.000000000E+00  0.00000E+00  9.000E+00
      25     1     1     2     0     0  3.875333005E+00  2.121966333E+02  1.426687637E+02  2.846432953E+02  1.250000000E+02  0.00000E+00  9.000E+00
      25     1     1     2     0     0 -7.099848466E+00 -1.637630238E+02  5.131486110E+02  5.530056354E+02  1.250000000E+02  0.00000E+00  9.000E+00
      21     1     1     2   502   512  3.224515461E+00 -4.843360949E+01  1.613034844E+01  5.115075923E+01  4.768371582E-07  0.00000E+00  9.000E+00
#rwgt            2          11   2.5402008132178601E-003           8       47457           0
</event>
<event>
      5   9999  3.19816E-02  3.95376E+01 -1.00000E+00  1.45154E-01
      21    -1     0     0   502   501  0.000000000E+00  0.000000000E+00  1.710764182E+02  1.710764182E+02  0.000000000E+00  0.00000E+00  9.000E+00
      21    -1     0     0   501   511  0.000000000E+00  0.000000000E+00 -3.635303501E+02  3.635303501E+02  0.000000000E+00  0.00000E+00  9.000E+00
      25     1     1     2     0     0  1.234474098E+02 -1.042846302E+02  7.234370530E+00  2.044306317E+02  1.250000000E+02  0.00000E+00  9.000E+00
      25     1     1     2     0     0 -8.637194906E+01  9.055038412E+01 -6.279959048E+01  1.876919663E+02  1.250000000E+02  0.00000E+00  9.000E+00
      21     1     1     2   502   511 -3.707546073E+01  1.373424606E+01 -1.368887119E+02  1.424841702E+02  1.907348633E-06  0.00000E+00  9.000E+00
#rwgt            1           1   2.8137385787883499E-002           8       47477           0
</event>
<event>
      5   9999  3.19816E-02  1.26776E+02 -1.00000E+00  1.19364E-01
      21    -1     0     0   502   512  0.000000000E+00  0.000000000E+00  1.207704610E+02  1.207704610E+02  0.000000000E+00  0.00000E+00  9.000E+00
      21    -1     0     0   501   502  0.000000000E+00  0.000000000E+00 -9.196169718E+02  9.196169718E+02  0.000000000E+00  0.00000E+00  9.000E+00
      25     1     1     2     0     0 -2.160255678E+02  9.108036017E+01 -2.339405893E+02  3.539998267E+02  1.250000000E+02  0.00000E+00  9.000E+00
      25     1     1     2     0     0  1.273445295E+02 -4.828595883E-01 -5.234118031E+02  5.529934701E+02  1.250000000E+02  0.00000E+00  9.000E+00
      21     1     1     2   501   512  8.868103830E+01 -9.059750058E+01 -4.149411845E+01  1.333941360E+02  1.066240300E-06  0.00000E+00  9.000E+00
#rwgt            1           1   3.2246315902562189E-002           8       47588           0
</event>
<event>
      5   9999  3.19816E-02  2.71918E+01 -1.00000E+00  1.56065E-01
      21    -1     0     0   511   501  0.000000000E+00  0.000000000E+00  5.071054957E+02  5.071054957E+02  0.000000000E+00  0.00000E+00  9.000E+00
      21    -1     0     0   501   502  0.000000000E+00  0.000000000E+00 -2.521679732E+02  2.521679732E+02  0.000000000E+00  0.00000E+00  9.000E+00
      25     1     1     2     0     0  1.224961267E+02 -1.629824367E+02 -5.694383668E+01  2.458377031E+02  1.250000000E+02  0.00000E+00  9.000E+00
      25     1     1     2     0     0 -1.354690123E+02  1.868800797E+02  7.222981471E+01  2.722465126E+02  1.250000000E+02  0.00000E+00  9.000E+00
      21     1     1     2   511   502  1.297288556E+01 -2.389764306E+01  2.396515445E+02  2.411892532E+02  0.000000000E+00  0.00000E+00  9.000E+00
#rwgt            1           1   2.5537385120937756E-002           8       47663           0
</event>
<event>
      5   9999  3.19816E-02  2.13349E+02 -1.00000E+00  1.10636E-01
      21    -1     0     0   502   501  0.000000000E+00  0.000000000E+00  1.350376046E+03  1.350376046E+03  0.000000000E+00  0.00000E+00  9.000E+00
      21    -1     0     0   512   502  0.000000000E+00  0.000000000E+00 -1.030255718E+02  1.030255718E+02  0.000000000E+00  0.00000E+00  9.000E+00
      25     1     1     2     0     0 -5.998483238E+01 -6.720529806E+01  1.468771502E+02  2.128676337E+02  1.250000000E+02  0.00000E+00  9.000E+00
      25     1     1     2     0     0  2.631357591E+02  1.323770251E+02  8.674960001E+02  9.246287983E+02  1.250000000E+02  0.00000E+00  9.000E+00
      21     1     1     2   512   501 -2.031509267E+02 -6.517172703E+01  2.329773241E+02  3.159051861E+02  6.607249480E-06  0.00000E+00  9.000E+00
#rwgt            1           1   3.7714998378743113E-002           8       47753           0
</event>
<event>
      5   9999  3.19816E-02  1.98662E+01 -1.00000E+00  1.66610E-01
      21    -1     0     0   502   501  0.000000000E+00  0.000000000E+00  5.713550842E+02  5.713550842E+02  0.000000000E+00  0.00000E+00  9.000E+00
      21    -1     0     0   501   511  0.000000000E+00  0.000000000E+00 -1.165155204E+03  1.165155204E+03  0.000000000E+00  0.00000E+00  9.000E+00
      25     1     1     2     0     0  3.146665818E+01 -3.303336716E+02 -1.037723432E+03  1.096633670E+03  1.250000000E+02  0.00000E+00  9.000E+00
      25     1     1     2     0     0 -4.713017927E+01  3.425532693E+02  4.764121574E+02  6.017952640E+02  1.250000000E+02  0.00000E+00  9.000E+00
      21     1     1     2   502   511  1.566352109E+01 -1.221959771E+01 -3.248884517E+01  3.808135399E+01  4.768371582E-07  0.00000E+00  9.000E+00
#rwgt            1           1   3.0937622435803985E-002           8       47796           0
</event>
<event>
      5   9999  3.19816E-02  2.56444E+01 -1.00000E+00  1.57927E-01
      21    -1     0     0   512   501  0.000000000E+00  0.000000000E+00  3.977886715E+02  3.977886715E+02  0.000000000E+00  0.00000E+00  9.000E+00
      21    -1     0     0   501   502  0.000000000E+00  0.000000000E+00 -3.488665685E+02  3.488665685E+02  0.000000000E+00  0.00000E+00  9.000E+00
      25     1     1     2     0     0  2.276696339E+02  5.916523851E+01 -2.052011507E+02  3.362536244E+02  1.250000000E+02  0.00000E+00  9.000E+00
      25     1     1     2     0     0 -2.072812033E+02 -7.471988025E+01  1.320735049E+02  2.856868363E+02  1.250000000E+02  0.00000E+00  9.000E+00
      21     1     1     2   512   502 -2.038843058E+01  1.555464175E+01  1.220497488E+02  1.247147793E+02  1.348699152E-06  0.00000E+00  9.000E+00
#rwgt            1           1   2.7190351772449065E-002           8       48031           0
</event>
<event>
      5   9999  3.19816E-02  7.90669E+00 -1.00000E+00  2.08339E-01
      21    -1     0     0   511   501  0.000000000E+00  0.000000000E+00  7.881482090E+02  7.881482090E+02  0.000000000E+00  0.00000E+00  9.000E+00
      21    -1     0     0   501   502  0.000000000E+00  0.000000000E+00 -1.107590090E+02  1.107590090E+02  0.000000000E+00  0.00000E+00  9.000E+00
      25     1     1     2     0     0  2.416123831E+02 -7.230603277E+01  2.103186917E+02  3.513739577E+02  1.250000000E+02  0.00000E+00  9.000E+00
      25     1     1     2     0     0 -2.360530044E+02  6.668383510E+01  4.374083686E+02  5.168354048E+02  1.250000000E+02  0.00000E+00  9.000E+00
      21     1     1     2   511   502 -5.559378756E+00  5.622197668E+00  2.966213970E+01  3.069785546E+01  3.371747881E-07  0.00000E+00  9.000E+00
#rwgt            1           1   2.7498315477264286E-002           8       48149           0
</event>
<event>
      5   9999  3.19816E-02  6.33542E+01 -1.00000E+00  1.33453E-01
      21    -1     0     0   512   501  0.000000000E+00  0.000000000E+00  1.902113639E+02  1.902113639E+02  0.000000000E+00  0.00000E+00  9.000E+00
      21    -1     0     0   501   502  0.000000000E+00  0.000000000E+00 -7.591045267E+02  7.591045267E+02  0.000000000E+00  0.00000E+00  9.000E+00
      25     1     1     2     0     0 -1.928978292E+02  2.479111527E+01 -6.409971357E+02  6.814150716E+02  1.250000000E+02  0.00000E+00  9.000E+00
      25     1     1     2     0     0  1.335714699E+02 -2.561827655E+00  1.666207814E+01  1.837131606E+02  1.250000000E+02  0.00000E+00  9.000E+00
      21     1     1     2   512   502  5.932635925E+01 -2.222928762E+01  5.544189473E+01  8.418765836E+01  1.651812370E-06  0.00000E+00  9.000E+00
#rwgt            1           1   2.9603843643193278E-002           8       48352           0
</event>
<event>
      5   9999  3.19816E-02  1.62621E+02 -1.00000E+00  1.15020E-01
       2    -1     0     0   502     0  0.000000000E+00  0.000000000E+00  3.507692444E+03  3.507692444E+03  0.000000000E+00  0.00000E+00  9.000E+00
      21    -1     0     0   501   502  0.000000000E+00  0.000000000E+00 -1.254993891E+03  1.254993891E+03  0.000000000E+00  0.00000E+00  9.000E+00
      25     1     1     2     0     0  1.129201051E+03 -4.516114900E+02 -7.366105140E+02  1.427328974E+03  1.250000000E+02  0.00000E+00  9.000E+00
      25     1     1     2     0     0 -1.158160384E+03  2.915895254E+02  2.000267231E+03  2.333035345E+03  1.250000000E+02  0.00000E+00  9.000E+00
       2     1     1     2   501     0  2.895933348E+01  1.600219646E+02  9.890418357E+02  1.002322017E+03  1.868812365E-05  0.00000E+00  9.000E+00
#rwgt            1           1   2.3065556048938059E-002           8       48493           0
</event>
<event>
      5   9999  3.19816E-02  2.47434E+02 -1.00000E+00  1.08384E-01
      21    -1     0     0   511   501  0.000000000E+00  0.000000000E+00  2.117866092E+03  2.117866092E+03  0.000000000E+00  0.00000E+00  9.000E+00
      21    -1     0     0   501   502  0.000000000E+00  0.000000000E+00 -1.750988429E+02  1.750988429E+02  0.000000000E+00  0.00000E+00  9.000E+00
      25     1     1     2     0     0 -3.329628506E+02 -2.414112226E+02  6.691229952E+02  7.952950528E+02  1.250000000E+02  0.00000E+00  9.000E+00
      25     1     1     2     0     0  5.197911710E+02  7.917988486E+01  8.649557011E+02  1.019914546E+03  1.250000000E+02  0.00000E+00  9.000E+00
      21     1     1     2   511   502 -1.868283204E+02  1.622313377E+02  4.086885526E+02  4.777553362E+02  7.629394531E-06  0.00000E+00  9.000E+00
#rwgt            2          11   3.4687958894776380E-003           8       48700           0
</event>
<event>
      5   9999  3.19816E-02  3.11468E+01 -1.00000E+00  1.51917E-01
       2    -1     0     0   502     0  0.000000000E+00  0.000000000E+00  2.413936270E+02  2.413936270E+02  0.000000000E+00  0.00000E+00  9.000E+00
      21    -1     0     0   501   502  0.000000000E+00  0.000000000E+00 -2.030810360E+03  2.030810360E+03  0.000000000E+00  0.00000E+00  9.000E+00
      25     1     1     2     0     0 -3.497492567E+01  1.758040328E+02 -6.730947976E+01  2.286610361E+02  1.250000000E+02  0.00000E+00  9.000E+00
      25     1     1     2     0     0  5.228364850E+01 -1.499093551E+02 -1.875837262E+03  1.886689383E+03  1.250000000E+02  0.00000E+00  9.000E+00
       2     1     1     2   501     0 -1.730872282E+01 -2.589467770E+01  1.537300086E+02  1.568535679E+02  2.697398305E-06  0.00000E+00  9.000E+00
#rwgt            1           1   3.5479195105331249E-002           8       48720           0
</event>
<event>
      5   9999  3.19816E-02  4.61480E+01 -1.00000E+00  1.41092E-01
      21    -1     0     0   511   501  0.000000000E+00  0.000000000E+00  1.875424501E+03  1.875424501E+03  0.000000000E+00  0.00000E+00  9.000E+00
      21    -1     0     0   501   502  0.000000000E+00  0.000000000E+00 -2.267281730E+02  2.267281730E+02  0.000000000E+00  0.00000E+00  9.000E+00
      25     1     1     2     0     0 -5.292049999E+02  9.297137369E+01  1.062373963E+03  1.197065180E+03  1.250000000E+02  0.00000E+00  9.000E+00
      25     1     1     2     0     0  4.838836549E+02 -1.016668960E+02  2.543279621E+02  5.699010980E+02  1.250000000E+02  0.00000E+00  9.000E+00
      21     1     1     2   511   502  4.532134500E+01  8.695522308E+00  3.319944028E+02  3.351863958E+02  3.814697266E-06  0.00000E+00  9.000E+00
#rwgt            1           1   3.3835815454652529E-002           8       48852           0
</event>
<event>
      5   9999  3.19816E-02  1.48015E+02 -1.00000E+00  1.16623E-01
      -3    -1     0     0     0   501  0.000000000E+00  0.000000000E+00  9.105814417E+01  9.105814417E+01  0.000000000E+00  0.00000E+00  9.000E+00
      21    -1     0     0   501   502  0.000000000E+00  0.000000000E+00 -2.372233137E+03  2.372233137E+03  0.000000000E+00  0.00000E+00  9.000E+00
      25     1     1     2     0     0  2.016881366E+02 -1.041737652E+02 -1.793625313E+03  1.812249166E+03  1.250000000E+02  0.00000E+00  9.000E+00
      25     1     1     2     0     0 -9.098145627E+01  2.024200865E+02 -4.132146013E+02  4.854099541E+02  1.250000000E+02  0.00000E+00  9.000E+00
      -3     1     1     2     0   502 -1.107066803E+02 -9.824632126E+01 -7.433507828E+01  1.656321604E+02  2.132480600E-06  0.00000E+00  9.000E+00
#rwgt            1           1   8.4136974496774361E-002           8       48962           0
</event>
<event>
      5   9999  3.19816E-02  4.61540E+01 -1.00000E+00  1.41088E-01
      21    -1     0     0   502   501  0.000000000E+00  0.000000000E+00  5.954818306E+02  5.954818306E+02  0.000000000E+00  0.00000E+00  9.000E+00
      21    -1     0     0   511   502  0.000000000E+00  0.000000000E+00 -2.609750319E+02  2.609750319E+02  0.000000000E+00  0.00000E+00  9.000E+00
      25     1     1     2     0     0 -1.975707737E+02  9.561432744E+01  4.643990517E+02  5.286471314E+02  1.250000000E+02  0.00000E+00  9.000E+00
      25     1     1     2     0     0  2.117487529E+02 -5.169190897E+01 -1.270700463E+02  2.815695020E+02  1.250000000E+02  0.00000E+00  9.000E+00
      21     1     1     2   511   501 -1.417797918E+01 -4.392241847E+01 -2.822206772E+00  4.624022911E+01  3.039252468E-07  0.00000E+00  9.000E+00
#rwgt            1           1   2.7117404782696145E-002           8       49029           0
</event>
<event>
      5   9999  3.19816E-02  3.11478E+01 -1.00000E+00  1.51916E-01
      21    -1     0     0   512   501  0.000000000E+00  0.000000000E+00  4.396347856E+02  4.396347856E+02  0.000000000E+00  0.00000E+00  9.000E+00
      21    -1     0     0   501   502  0.000000000E+00  0.000000000E+00 -1.349335366E+02  1.349335366E+02  0.000000000E+00  0.00000E+00  9.000E+00
      25     1     1     2     0     0  1.461038026E+02 -8.441843797E+01  2.598862561E+02  3.341237195E+02  1.250000000E+02  0.00000E+00  9.000E+00
      25     1     1     2     0     0 -1.165922791E+02  9.438120540E+01  1.264953935E+01  1.956695744E+02  1.250000000E+02  0.00000E+00  9.000E+00
      21     1     1     2   512   502 -2.951152349E+01 -9.962767431E+00  3.216545354E+01  4.477502825E+01  4.768371582E-07  0.00000E+00  9.000E+00
#rwgt            1           1   2.9785508446688723E-002           8       49145           0
</event>
<event>
      5   9999  3.19816E-02  3.60823E+01 -1.00000E+00  1.47672E-01
      21    -1     0     0   511   501  0.000000000E+00  0.000000000E+00  9.311272150E+02  9.311272150E+02  0.000000000E+00  0.00000E+00  9.000E+00
      21    -1     0     0   501   502  0.000000000E+00  0.000000000E+00 -1.486014033E+02  1.486014033E+02  0.000000000E+00  0.00000E+00  9.000E+00
      25     1     1     2     0     0 -9.233074111E+01  3.688044647E+01  2.199160239E+01  1.612258157E+02  1.250000000E+02  0.00000E+00  9.000E+00
      25     1     1     2     0     0  1.257284012E+02 -5.053795756E+01  2.964462291E+01  1.867231097E+02  1.250000000E+02  0.00000E+00  9.000E+00
      21     1     1     2   511   502 -3.339766010E+01  1.365751109E+01  7.308895864E+02  7.317796929E+02  1.078959322E-05  0.00000E+00  9.000E+00
#rwgt            1           1   2.8377338689231642E-002           8       49289           0
</event>
<event>
      5   9999  3.19816E-02  1.33243E+01 -1.00000E+00  1.82371E-01
      21    -1     0     0   512   501  0.000000000E+00  0.000000000E+00  1.798496816E+03  1.798496816E+03  0.000000000E+00  0.00000E+00  9.000E+00
      21    -1     0     0   501   502  0.000000000E+00  0.000000000E+00 -7.687096983E+01  7.687096983E+01  0.000000000E+00  0.00000E+00  9.000E+00
      25     1     1     2     0     0 -1.477088805E+02 -3.322135324E+01  1.077183129E+02  2.239415250E+02  1.250000000E+02  0.00000E+00  9.000E+00
      25     1     1     2     0     0  1.383441432E+02  2.374301192E+01  4.530429968E+02  4.904852592E+02  1.250000000E+02  0.00000E+00  9.000E+00
      21     1     1     2   512   502  9.364737308E+00  9.478341326E+00  1.160864536E+03  1.160941002E+03  1.525878906E-05  0.00000E+00  9.000E+00
#rwgt            1           1   2.5529554095962002E-002           8       49365           0
</event>
<event>
      5   9999  3.19816E-02  4.57267E+00 -1.00000E+00  2.50489E-01
      21    -1     0     0   502   501  0.000000000E+00  0.000000000E+00  4.752401296E+02  4.752401296E+02  0.000000000E+00  0.00000E+00  9.000E+00
      21    -1     0     0   511   502  0.000000000E+00  0.000000000E+00 -1.050984351E+02  1.050984351E+02  0.000000000E+00  0.00000E+00  9.000E+00
      25     1     1     2     0     0  1.555114993E+02  4.510190193E+01  1.621367279E+02  2.610197818E+02  1.250000000E+02  0.00000E+00  9.000E+00
      25     1     1     2     0     0 -1.511763666E+02 -4.364728843E+01  2.250243814E+02  3.016957935E+02  1.250000000E+02  0.00000E+00  9.000E+00
      21     1     1     2   511   501 -4.335132730E+00 -1.454613501E+00 -1.701941475E+01  1.762298938E+01  4.129530925E-07  0.00000E+00  9.000E+00
#rwgt            1           1   2.3604358693681535E-002           8       49516           0
</event>
<event>
      5   9999  3.19816E-02  5.81707E+01 -1.00000E+00  1.35426E-01
      21    -1     0     0   502   501  0.000000000E+00  0.000000000E+00  1.300649423E+03  1.300649423E+03  0.000000000E+00  0.00000E+00  9.000E+00
      21    -1     0     0   501   512  0.000000000E+00  0.000000000E+00 -6.514942646E+02  6.514942646E+02  0.000000000E+00  0.00000E+00  9.000E+00
      25     1     1     2     0     0  1.736869442E+02  1.151629283E+01  1.037999034E+03  1.059889982E+03  1.250000000E+02  0.00000E+00  9.000E+00
      25     1     1     2     0     0 -1.799165646E+02  4.631985859E+01  2.001862499E+02  3.003581764E+02  1.250000000E+02  0.00000E+00  9.000E+00
      21     1     1     2   502   512  6.229620436E+00 -5.783615141E+01 -5.890301255E+02  5.918955291E+02  0.000000000E+00  0.00000E+00  9.000E+00
#rwgt            1           1   3.1127553388473384E-002           8       49801           0
</event>
<event>
      5   9999  3.19816E-02  2.57795E+01 -1.00000E+00  1.57759E-01
       2    -1     0     0   502     0  0.000000000E+00  0.000000000E+00  1.997261957E+03  1.997261957E+03  0.000000000E+00  0.00000E+00  9.000E+00
      21    -1     0     0   501   502  0.000000000E+00  0.000000000E+00 -3.069606904E+02  3.069606904E+02  0.000000000E+00  0.00000E+00  9.000E+00
      25     1     1     2     0     0 -3.865768403E+02  5.988456126E+02  1.167793421E+03  1.373835578E+03  1.250000000E+02  0.00000E+00  9.000E+00
      25     1     1     2     0     0  3.687510919E+02 -6.174689000E+02  4.601406188E+02  8.629018480E+02  1.250000000E+02  0.00000E+00  9.000E+00
       2     1     1     2   501     0  1.782574840E+01  1.862328736E+01  6.236722673E+01  6.748522141E+01  6.743495762E-07  0.00000E+00  9.000E+00
#rwgt            1           1   2.7360539437770785E-002           8       49865           0
</event>
<event>
      5   9999  3.19816E-02  8.50430E+01 -1.00000E+00  1.27078E-01
      21    -1     0     0   502   501  0.000000000E+00  0.000000000E+00  9.719057188E+02  9.719057188E+02  0.000000000E+00  0.00000E+00  9.000E+00
      21    -1     0     0   511   502  0.000000000E+00  0.000000000E+00 -3.283806398E+02  3.283806398E+02  0.000000000E+00  0.00000E+00  9.000E+00
      25     1     1     2     0     0  4.831065885E+02 -2.860412815E+01  2.523563463E+02  5.599275824E+02  1.250000000E+02  0.00000E+00  9.000E+00
      25     1     1     2     0     0 -4.328894974E+02  9.723760189E+01  4.441916081E+02  6.401403385E+02  1.250000000E+02  0.00000E+00  9.000E+00
      21     1     1     2   511   501 -5.021709104E+01 -6.863347374E+01 -5.302287543E+01  1.002184378E+02  1.348699152E-06  0.00000E+00  9.000E+00
#rwgt            1           1   2.6287811984221834E-002           8       50075           0
</event>
<event>
      5   9999  3.19816E-02  3.24913E+01 -1.00000E+00  1.50672E-01
      21    -1     0     0   502   501  0.000000000E+00  0.000000000E+00  1.633052840E+03  1.633052840E+03  0.000000000E+00  0.00000E+00  9.000E+00
      21    -1     0     0   512   502  0.000000000E+00  0.000000000E+00 -1.587303172E+02  1.587303172E+02  0.000000000E+00  0.00000E+00  9.000E+00
      25     1     1     2     0     0  6.951738787E+01 -4.741084107E+02  7.029929022E+02  8.599043393E+02  1.250000000E+02  0.00000E+00  9.000E+00
      25     1     1     2     0     0 -8.155995370E+01  4.439312911E+02  7.675642360E+02  8.991701027E+02  1.250000000E+02  0.00000E+00  9.000E+00
      21     1     1     2   512   501  1.204256583E+01  3.017711960E+01  3.765384797E+00  3.270871538E+01  3.526258339E-07  0.00000E+00  9.000E+00
#rwgt            1           1   2.8778509547397513E-002           8       50171           0
</event>
<event>
      5   9999  3.19816E-02  2.34397E+01 -1.00000E+00  1.60876E-01
      21    -1     0     0   511   501  0.000000000E+00  0.000000000E+00  6.883096526E+02  6.883096526E+02  0.000000000E+00  0.00000E+00  9.000E+00
      21    -1     0     0   501   502  0.000000000E+00  0.000000000E+00 -1.229272836E+02  1.229272836E+02  0.000000000E+00  0.00000E+00  9.000E+00
      25     1     1     2     0     0  1.106256391E+02  1.886358238E+02  8.418617041E+01  2.655820350E+02  1.250000000E+02  0.00000E+00  9.000E+00
      25     1     1     2     0     0 -9.312442621E+01 -1.730432649E+02  4.222641916E+02  4.822324935E+02  1.250000000E+02  0.00000E+00  9.000E+00
      21     1     1     2   511   502 -1.750121287E+01 -1.559255894E+01  5.893200701E+01  6.342240769E+01  6.743495762E-07  0.00000E+00  9.000E+00
#rwgt            1           1   2.7821909305009957E-002           8       50285           0
</event>
<event>
      5   9999  3.19816E-02  4.00415E+01 -1.00000E+00  1.44812E-01
      21    -1     0     0   502   501  0.000000000E+00  0.000000000E+00  3.222462474E+02  3.222462474E+02  0.000000000E+00  0.00000E+00  9.000E+00
       2    -1     0     0   501     0  0.000000000E+00  0.000000000E+00 -3.088204719E+02  3.088204719E+02  0.000000000E+00  0.00000E+00  9.000E+00
      25     1     1     2     0     0 -7.821873705E+01  2.380569452E+02 -2.149902730E+01  2.808495828E+02  1.250000000E+02  0.00000E+00  9.000E+00
      25     1     1     2     0     0  6.091728889E+01 -2.741676360E+02  2.225613345E+01  3.082193118E+02  1.250000000E+02  0.00000E+00  9.000E+00
       2     1     1     2   502     0  1.730144816E+01  3.611069081E+01  1.266866936E+01  4.199782474E+01  6.307962682E-07  0.00000E+00  9.000E+00
#rwgt            1           1   2.5504028091200032E-002           8       50389           0
</event>
<event>
      5   9999  3.19816E-02  3.77070E+01 -1.00000E+00  1.46448E-01
      21    -1     0     0   502   501  0.000000000E+00  0.000000000E+00  2.246092241E+02  2.246092241E+02  0.000000000E+00  0.00000E+00  9.000E+00
      21    -1     0     0   501   511  0.000000000E+00  0.000000000E+00 -3.133783551E+02  3.133783551E+02  0.000000000E+00  0.00000E+00  9.000E+00
      25     1     1     2     0     0 -1.337441227E+02 -4.093172951E+01 -1.742461700E+02  2.560266092E+02  1.250000000E+02  0.00000E+00  9.000E+00
      25     1     1     2     0     0  1.696308892E+02  5.250583045E+01  1.030431444E+02  2.403630388E+02  1.250000000E+02  0.00000E+00  9.000E+00
      21     1     1     2   502   511 -3.588676652E+01 -1.157410094E+01 -1.756610539E+01  4.159793122E+01  4.768371582E-07  0.00000E+00  9.000E+00
#rwgt            1           1   2.6899321289622333E-002           8       50494           0
</event>
<event>
      5   9999  3.19816E-02  7.95363E+01 -1.00000E+00  1.28472E-01
      21    -1     0     0   502   501  0.000000000E+00  0.000000000E+00  1.646073555E+03  1.646073555E+03  0.000000000E+00  0.00000E+00  9.000E+00
      21    -1     0     0   512   502  0.000000000E+00  0.000000000E+00 -1.636042035E+02  1.636042035E+02  0.000000000E+00  0.00000E+00  9.000E+00
      25     1     1     2     0     0  3.897115776E+02  2.229382835E+02  4.630358040E+02  6.569655605E+02  1.250000000E+02  0.00000E+00  9.000E+00
      25     1     1     2     0     0 -3.170085036E+02 -1.906849396E+02  9.959759869E+02  1.069788906E+03  1.250000000E+02  0.00000E+00  9.000E+00
      21     1     1     2   512   501 -7.270307400E+01 -3.225334388E+01  2.345756061E+01  8.292329173E+01  1.469710828E-06  0.00000E+00  9.000E+00
#rwgt            1           1   2.4698444953833144E-002           8       50623           0
</event>
<event>
      5   9999  3.19816E-02  6.84179E+01 -1.00000E+00  1.31725E-01
      21    -1     0     0   502   501  0.000000000E+00  0.000000000E+00  5.521854205E+02  5.521854205E+02  0.000000000E+00  0.00000E+00  9.000E+00
      21    -1     0     0   501   511  0.000000000E+00  0.000000000E+00 -1.091834469E+03  1.091834469E+03  0.000000000E+00  0.00000E+00  9.000E+00
      25     1     1     2     0     0 -3.373388236E+02 -4.845069575E+02  4.427231072E+00  6.034807985E+02  1.250000000E+02  0.00000E+00  9.000E+00
      25     1     1     2     0     0  3.731552039E+02  5.428010402E+02 -2.144862206E+02  7.039226622E+02  1.250000000E+02  0.00000E+00  9.000E+00
      21     1     1     2   502   511 -3.581638026E+01 -5.829408277E+01 -3.295900591E+02  3.366164290E+02  3.814697266E-06  0.00000E+00  9.000E+00
#rwgt            1           1   3.0874963878227177E-002           8       50740           0
</event>
<event>
      5   9999  3.19816E-02  1.39740E+02 -1.00000E+00  1.17626E-01
      21    -1     0     0   502   501  0.000000000E+00  0.000000000E+00  2.209642312E+03  2.209642312E+03  0.000000000E+00  0.00000E+00  9.000E+00
      21    -1     0     0   501   512  0.000000000E+00  0.000000000E+00 -7.807783716E+01  7.807783716E+01  0.000000000E+00  0.00000E+00  9.000E+00
      25     1     1     2     0     0 -2.505664997E+02 -6.668610644E+01  7.653477318E+02  8.176874452E+02  1.250000000E+02  0.00000E+00  9.000E+00
      25     1     1     2     0     0  3.822705925E+02  1.998073700E+01  1.031691747E+03  1.107493971E+03  1.250000000E+02  0.00000E+00  9.000E+00
      21     1     1     2   502   512 -1.317040928E+02  4.670536944E+01  3.345249958E+02  3.625387323E+02  3.814697266E-06  0.00000E+00  9.000E+00
#rwgt            2          11   3.3773424661891122E-003           8       50911           0
</event>
<event>
      5   9999  3.19816E-02  1.44080E+02 -1.00000E+00  1.17091E-01
      21    -1     0     0   511   501  0.000000000E+00  0.000000000E+00  8.426396465E+02  8.426396465E+02  0.000000000E+00  0.00000E+00  9.000E+00
      21    -1     0     0   501   502  0.000000000E+00  0.000000000E+00 -6.064407181E+02  6.064407181E+02  0.000000000E+00  0.00000E+00  9.000E+00
      25     1     1     2     0     0 -2.696674342E+02 -4.023549513E+01 -8.879648263E+01  3.128086243E+02  1.250000000E+02  0.00000E+00  9.000E+00
      25     1     1     2     0     0  3.585295852E+02  1.536493434E+02 -2.917718503E+02  5.028989926E+02  1.250000000E+02  0.00000E+00  9.000E+00
      21     1     1     2   511   502 -8.886215102E+01 -1.134138482E+02  6.167672613E+02  6.333727477E+02  7.629394531E-06  0.00000E+00  9.000E+00
#rwgt            1           1   3.0439727976938662E-002           8       50931           0
</event>
<event>
      5   9999  3.19816E-02  1.35272E+02 -1.00000E+00  1.18201E-01
      21    -1     0     0   502   501  0.000000000E+00  0.000000000E+00  1.707193089E+02  1.707193089E+02  0.000000000E+00  0.00000E+00  9.000E+00
       1    -1     0     0   501     0  0.000000000E+00  0.000000000E+00 -1.647375940E+03  1.647375940E+03  0.000000000E+00  0.00000E+00  9.000E+00
      25     1     1     2     0     0  1.372524562E+02  1.341598948E+01  7.891127102E+01  2.021638301E+02  1.250000000E+02  0.00000E+00  9.000E+00
      25     1     1     2     0     0 -2.270750218E+02 -1.145617265E+02 -8.088402429E+02  8.570501696E+02  1.250000000E+02  0.00000E+00  9.000E+00
       1     1     1     2   502     0  8.982256563E+01  1.011457370E+02 -7.467276590E+02  7.588812490E+02  1.078959322E-05  0.00000E+00  9.000E+00
#rwgt            1           1   2.6893980296579651E-002           8       50995           0
</event>
<event>
      5   9999  3.19816E-02  1.37709E+02 -1.00000E+00  1.17884E-01
      21    -1     0     0   502   501  0.000000000E+00  0.000000000E+00  9.795393949E+02  9.795393949E+02  0.000000000E+00  0.00000E+00  9.000E+00
      21    -1     0     0   501   511  0.000000000E+00  0.000000000E+00 -2.348673370E+02  2.348673370E+02  0.000000000E+00  0.00000E+00  9.000E+00
      25     1     1     2     0     0 -1.930109233E+02  3.436876041E+02  6.292546656E+02  7.529680072E+02  1.250000000E+02  0.00000E+00  9.000E+00
      25     1     1     2     0     0  1.806521635E+02 -2.065339481E+02  1.177758845E+02  3.237091825E+02  1.250000000E+02  0.00000E+00  9.000E+00
      21     1     1     2   502   511  1.235875980E+01 -1.371536559E+02 -2.358492199E+00  1.377295421E+02  2.255742487E-06  0.00000E+00  9.000E+00
#rwgt            1           1   2.3466324376288872E-002           8       51046           0
</event>
<event>
      5   9999  3.19816E-02  7.73550E+01 -1.00000E+00  1.29060E-01
       1    -1     0     0   502     0  0.000000000E+00  0.000000000E+00  1.509837977E+03  1.509837977E+03  0.000000000E+00  0.00000E+00  9.000E+00
      21    -1     0     0   501   502  0.000000000E+00  0.000000000E+00 -2.957814388E+02  2.957814388E+02  0.000000000E+00  0.00000E+00  9.000E+00
      25     1     1     2     0     0 -5.107441719E+02  9.726202580E+01  4.529763971E+02  7.008081957E+02  1.250000000E+02  0.00000E+00  9.000E+00
      25     1     1     2     0     0  5.010174392E+02 -1.740030239E+02  2.708334379E+02  6.084992011E+02  1.250000000E+02  0.00000E+00  9.000E+00
       1     1     1     2   501     0  9.726732694E+00  7.674099806E+01  4.902467037E+02  4.963120194E+02  0.000000000E+00  0.00000E+00  9.000E+00
#rwgt            1           1   2.8831000395489515E-002           8       51112           0
</event>
<event>
      5   9999  3.19816E-02  7.89275E+01 -1.00000E+00  1.28634E-01
      21    -1     0     0   502   501  0.000000000E+00  0.000000000E+00  1.731961467E+03  1.731961467E+03  0.000000000E+00  0.00000E+00  9.000E+00
      21    -1     0     0   501   511  0.000000000E+00  0.000000000E+00 -7.836597342E+01  7.836597342E+01  0.000000000E+00  0.00000E+00  9.000E+00
      25     1     1     2     0     0  2.378079315E+01  3.029868592E+02  1.115229443E+03  1.162638496E+03  1.250000000E+02  0.00000E+00  9.000E+00
      25     1     1     2     0     0  3.367817285E+01 -2.488757330E+02  4.037930204E+02  4.916778957E+02  1.250000000E+02  0.00000E+00  9.000E+00
      21     1     1     2   502   511 -5.745896601E+01 -5.411112623E+01  1.345730311E+02  1.560110491E+02  3.303624740E-06  0.00000E+00  9.000E+00
#rwgt            1           1   2.6352362390519482E-002           8       51261           0
</event>
<event>
      5   9999  3.19816E-02  8.31409E+00 -1.00000E+00  2.05508E-01
      21    -1     0     0   502   501  0.000000000E+00  0.000000000E+00  5.349960582E+01  5.349960582E+01  0.000000000E+00  0.00000E+00  9.000E+00
      21    -1     0     0   512   502  0.000000000E+00  0.000000000E+00 -5.474156663E+02  5.474156663E+02  0.000000000E+00  0.00000E+00  9.000E+00
      25     1     1     2     0     0  1.003069504E+02  2.553633181E+01 -1.771596909E+02  2.402584954E+02  1.250000000E+02  0.00000E+00  9.000E+00
      25     1     1     2     0     0 -9.948300125E+01 -1.726317110E+01 -2.787122967E+02  3.217148255E+02  1.250000000E+02  0.00000E+00  9.000E+00
      21     1     1     2   512   501 -8.239491907E-01 -8.273160710E+00 -3.804407292E+01  3.894195122E+01  0.000000000E+00  0.00000E+00  9.000E+00
#rwgt            1           1   2.5164448709990198E-002           8       51359           0
</event>
<event>
      5   9999  3.19816E-02  1.43673E+02 -1.00000E+00  1.17140E-01
      21    -1     0     0   502   511  0.000000000E+00  0.000000000E+00  6.600064719E+02  6.600064719E+02  0.000000000E+00  0.00000E+00  9.000E+00
      21    -1     0     0   501   502  0.000000000E+00  0.000000000E+00 -1.728340439E+02  1.728340439E+02  0.000000000E+00  0.00000E+00  9.000E+00
      25     1     1     2     0     0 -5.132012741E+01 -5.285101370E+01  2.455787020E+02  2.852382934E+02  1.250000000E+02  0.00000E+00  9.000E+00
      25     1     1     2     0     0 -2.868211288E+01 -6.648722107E+01 -1.008912087E+02  1.762022989E+02  1.250000000E+02  0.00000E+00  9.000E+00
      21     1     1     2   501   511  8.000224029E+01  1.193382348E+02  3.424849347E+02  3.713999235E+02  5.394796609E-06  0.00000E+00  9.000E+00
#rwgt            2          11   2.1757167323745801E-003           8       51681           0
</event>
<event>
      5   9999  3.19816E-02  4.55471E+01 -1.00000E+00  1.41427E-01
      21    -1     0     0   502   501  0.000000000E+00  0.000000000E+00  1.534921643E+02  1.534921643E+02  0.000000000E+00  0.00000E+00  9.000E+00
      21    -1     0     0   512   502  0.000000000E+00  0.000000000E+00 -7.568883009E+02  7.568883009E+02  0.000000000E+00  0.00000E+00  9.000E+00
      25     1     1     2     0     0  2.168058495E+02  2.106308490E+02 -3.660301629E+02  4.908902230E+02  1.250000000E+02  0.00000E+00  9.000E+00
      25     1     1     2     0     0 -1.754271157E+02 -1.915955743E+02 -1.599926520E+02  3.297062112E+02  1.250000000E+02  0.00000E+00  9.000E+00
      21     1     1     2   512   501 -4.137873381E+01 -1.903527471E+01 -7.737332176E+01  8.978403096E+01  1.348699152E-06  0.00000E+00  9.000E+00
#rwgt            1           1   2.6414972098539675E-002           8       51701           0
</event>
<event>
      5   9999  3.19816E-02  6.05220E+01 -1.00000E+00  1.34503E-01
      21    -1     0     0   511   501  0.000000000E+00  0.000000000E+00  1.845742908E+02  1.845742908E+02  0.000000000E+00  0.00000E+00  9.000E+00
      21    -1     0     0   501   502  0.000000000E+00  0.000000000E+00 -5.509644565E+02  5.509644565E+02  0.000000000E+00  0.00000E+00  9.000E+00
      25     1     1     2     0     0  2.718509696E+01  1.810687153E+02 -8.679095879E+00  2.218676088E+02  1.250000000E+02  0.00000E+00  9.000E+00
      25     1     1     2     0     0 -4.683394963E+01 -2.383123957E+02 -3.614271844E+02  4.530351271E+02  1.250000000E+02  0.00000E+00  9.000E+00
      21     1     1     2   511   502  1.964885268E+01  5.724368047E+01  3.716114561E+00  6.063601135E+01  7.644745909E-07  0.00000E+00  9.000E+00
#rwgt            1           1   2.6457963795732627E-002           8       51783           0
</event>
<event>
      5   9999  3.19816E-02  8.92425E+01 -1.00000E+00  1.26093E-01
      21    -1     0     0   502   512  0.000000000E+00  0.000000000E+00  3.058521864E+02  3.058521864E+02  0.000000000E+00  0.00000E+00  9.000E+00
      21    -1     0     0   501   502  0.000000000E+00  0.000000000E+00 -5.265126626E+02  5.265126626E+02  0.000000000E+00  0.00000E+00  9.000E+00
      25     1     1     2     0     0  1.842636522E+02 -6.007519578E+01 -4.117688130E+02  4.719541059E+02  1.250000000E+02  0.00000E+00  9.000E+00
      25     1     1     2     0     0 -1.740777790E+02 -2.858412274E+01  1.306081794E+02  2.525937880E+02  1.250000000E+02  0.00000E+00  9.000E+00
      21     1     1     2   501   512 -1.018587325E+01  8.865931852E+01  6.050015744E+01  1.078169552E+02  9.536743164E-07  0.00000E+00  9.000E+00
#rwgt            1           1   2.9527479725311875E-002           8       51897           0
</event>
<event>
      5   9999  3.19816E-02  1.01859E+02 -1.00000E+00  1.23469E-01
      21    -1     0     0   511   501  0.000000000E+00  0.000000000E+00  2.008272902E+03  2.008272902E+03  0.000000000E+00  0.00000E+00  9.000E+00
      21    -1     0     0   501   502  0.000000000E+00  0.000000000E+00 -7.363779460E+02  7.363779460E+02  0.000000000E+00  0.00000E+00  9.000E+00
      25     1     1     2     0     0 -4.737538019E+01 -2.499547159E+02 -5.858779717E+02  6.508454381E+02  1.250000000E+02  0.00000E+00  9.000E+00
      25     1     1     2     0     0  4.091455061E+01  1.483006430E+02 -3.243202896E+01  2.008579540E+02  1.250000000E+02  0.00000E+00  9.000E+00
      21     1     1     2   511   502  6.460829582E+00  1.016540729E+02  1.890204957E+03  1.892947456E+03  2.157918644E-05  0.00000E+00  9.000E+00
#rwgt            1           1   2.7218650497887277E-002           8       51972           0
</event>
<event>
      5   9999  3.19816E-02  9.58742E+01 -1.00000E+00  1.24657E-01
      21    -1     0     0   502   501  0.000000000E+00  0.000000000E+00  8.460671075E+02  8.460671075E+02  0.000000000E+00  0.00000E+00  9.000E+00
       2    -1     0     0   501     0  0.000000000E+00  0.000000000E+00 -2.601532594E+03  2.601532594E+03  0.000000000E+00  0.00000E+00  9.000E+00
      25     1     1     2     0     0  5.457007401E+02  2.043180256E+02 -1.209672177E+03  1.348505443E+03  1.250000000E+02  0.00000E+00  9.000E+00
      25     1     1     2     0     0 -5.774300855E+02 -1.138464323E+02  6.579280137E+02  8.915608700E+02  1.250000000E+02  0.00000E+00  9.000E+00
       2     1     1     2   502     0  3.172934533E+01 -9.047159333E+01 -1.203721323E+03  1.207533389E+03  2.157918644E-05  0.00000E+00  9.000E+00
#rwgt            1           1   1.7009889278871246E-002           8       52057           0
</event>
<event>
      5   9999  3.19816E-02  6.90413E+01 -1.00000E+00  1.31525E-01
      21    -1     0     0   502   501  0.000000000E+00  0.000000000E+00  2.674563523E+02  2.674563523E+02  0.000000000E+00  0.00000E+00  9.000E+00
      21    -1     0     0   501   511  0.000000000E+00  0.000000000E+00 -2.222064615E+02  2.222064615E+02  0.000000000E+00  0.00000E+00  9.000E+00
      25     1     1     2     0     0  1.145876621E+02 -3.310822514E+01  1.175873032E+02  2.089934467E+02  1.250000000E+02  0.00000E+00  9.000E+00
      25     1     1     2     0     0 -1.502156639E+02 -2.603012928E+01 -7.657737607E+01  2.114980091E+02  1.250000000E+02  0.00000E+00  9.000E+00
      21     1     1     2   502   511  3.562800182E+01  5.913835443E+01  4.239963705E+00  6.917135802E+01  9.424321831E-07  0.00000E+00  9.000E+00
#rwgt            1           1   2.6599031212970966E-002           8       52132           0
</event>
<event>
      5   9999  3.19816E-02  2.04068E+02 -1.00000E+00  1.11331E-01
      21    -1     0     0   502   501  0.000000000E+00  0.000000000E+00  9.120508927E+01  9.120508927E+01  0.000000000E+00  0.00000E+00  9.000E+00
       2    -1     0     0   501     0  0.000000000E+00  0.000000000E+00 -1.719798792E+03  1.719798792E+03  0.000000000E+00  0.00000E+00  9.000E+00
      25     1     1     2     0     0 -1.313050122E+02  1.642962650E+02 -4.793118777E+02  5.381441675E+02  1.250000000E+02  0.00000E+00  9.000E+00
      25     1     1     2     0     0 -1.854032758E+01 -3.028248506E+02 -5.577132100E+02  6.470824202E+02  1.250000000E+02  0.00000E+00  9.000E+00
       2     1     1     2   502     0  1.498453398E+02  1.385285856E+02 -5.915686149E+02  6.257772935E+02  0.000000000E+00  0.00000E+00  9.000E+00
#rwgt            1           1   2.9051708450591678E-002           8       52249           0
</event>
<event>
      5   9999  3.19816E-02  7.81623E+01 -1.00000E+00  1.28840E-01
      21    -1     0     0   502   501  0.000000000E+00  0.000000000E+00  8.543196574E+01  8.543196574E+01  0.000000000E+00  0.00000E+00  9.000E+00
      21    -1     0     0   511   502  0.000000000E+00  0.000000000E+00 -8.851718123E+02  8.851718123E+02  0.000000000E+00  0.00000E+00  9.000E+00
      25     1     1     2     0     0  9.310322085E+00  2.035356055E+02 -4.537464861E+02  5.128589460E+02  1.250000000E+02  0.00000E+00  9.000E+00
      25     1     1     2     0     0  6.112667834E+01 -1.696539464E+02 -2.299990176E+02  3.178733717E+02  1.250000000E+02  0.00000E+00  9.000E+00
      21     1     1     2   511   501 -7.043700042E+01 -3.388165911E+01 -1.159943428E+02  1.398714603E+02  1.348699152E-06  0.00000E+00  9.000E+00
#rwgt            1           1   2.7315558646329747E-002           8       52300           0
</event>
<event>
      5   9999  3.19816E-02  2.66600E+02 -1.00000E+00  1.07285E-01
      21    -1     0     0   502   501  0.000000000E+00  0.000000000E+00  7.017613963E+01  7.017613963E+01  0.000000000E+00  0.00000E+00  9.000E+00
       1    -1     0     0   501     0  0.000000000E+00  0.000000000E+00 -1.976073338E+03  1.976073338E+03  0.000000000E+00  0.00000E+00  9.000E+00
      25     1     1     2     0     0  2.375692240E+02  1.421073343E+02 -8.576756819E+02  9.098715327E+02  1.250000000E+02  0.00000E+00  9.000E+00
      25     1     1     2     0     0 -7.714845167E+01  7.082595725E+01 -2.907533503E+02  3.333627312E+02  1.250000000E+02  0.00000E+00  9.000E+00
       1     1     1     2   502     0 -1.604207723E+02 -2.129332915E+02 -7.574681659E+02  8.030152135E+02  0.000000000E+00  0.00000E+00  9.000E+00
#rwgt            1           1   2.6803365505617311E-002           8       52341           0
</event>
<event>
      5   9999  3.19816E-02  4.32777E+01 -1.00000E+00  1.42750E-01
      21    -1     0     0   502   501  0.000000000E+00  0.000000000E+00  5.088319807E+02  5.088319807E+02  0.000000000E+00  0.00000E+00  9.000E+00
      21    -1     0     0   501   511  0.000000000E+00  0.000000000E+00 -4.656706071E+02  4.656706071E+02  0.000000000E+00  0.00000E+00  9.000E+00
      25     1     1     2     0     0  7.740382052E+01 -3.258023487E+02 -2.458396143E+02  4.338209744E+02  1.250000000E+02  0.00000E+00  9.000E+00
      25     1     1     2     0     0 -1.098925452E+02  3.543932510E+02  3.031252619E+02  4.951574216E+02  1.250000000E+02  0.00000E+00  9.000E+00
      21     1     1     2   502   511  3.248872464E+01 -2.859090227E+01 -1.412427404E+01  4.552419179E+01  7.348554138E-07  0.00000E+00  9.000E+00
#rwgt            1           1   2.4151659347392301E-002           8       52400           0
</event>
<event>
      5   9999  3.19816E-02  3.37011E+01 -1.00000E+00  1.49612E-01
      21    -1     0     0   512   501  0.000000000E+00  0.000000000E+00  4.373631950E+02  4.373631950E+02  0.000000000E+00  0.00000E+00  9.000E+00
      21    -1     0     0   501   502  0.000000000E+00  0.000000000E+00 -5.375625031E+02  5.375625031E+02  0.000000000E+00  0.00000E+00  9.000E+00
      25     1     1     2     0     0 -2.619708443E+02 -5.516018504E+00 -2.769415005E+02  4.012240576E+02  1.250000000E+02  0.00000E+00  9.000E+00
      25     1     1     2     0     0  2.299961112E+02 -5.132031502E+00 -1.107217255E+02  2.842689737E+02  1.250000000E+02  0.00000E+00  9.000E+00
      21     1     1     2   512   502  3.197473311E+01  1.064805001E+01  2.874639179E+02  2.894326668E+02  3.814697266E-06  0.00000E+00  9.000E+00
#rwgt            1           1   2.9035272767131914E-002           8       52560           0
</event>
<event>
      5   9999  3.19816E-02  7.00905E+01 -1.00000E+00  1.31192E-01
      21    -1     0     0   502   501  0.000000000E+00  0.000000000E+00  2.025838308E+02  2.025838308E+02  0.000000000E+00  0.00000E+00  9.000E+00
       2    -1     0     0   501     0  0.000000000E+00  0.000000000E+00 -1.008815747E+03  1.008815747E+03  0.000000000E+00  0.00000E+00  9.000E+00
      25     1     1     2     0     0 -1.050763698E+02 -3.395910216E+02 -1.216949823E+02  3.959769869E+02  1.250000000E+02  0.00000E+00  9.000E+00
      25     1     1     2     0     0  5.024926917E+01  2.959256985E+02 -3.673300286E+02  4.905643261E+02  1.250000000E+02  0.00000E+00  9.000E+00
       2     1     1     2   502     0  5.482710068E+01  4.366532303E+01 -3.172069056E+02  3.248582650E+02  3.814697266E-06  0.00000E+00  9.000E+00
#rwgt            1           1   2.6633281166212268E-002           8       52697           0
</event>
<event>
      5   9999  3.19816E-02  1.23763E+02 -1.00000E+00  1.19802E-01
      21    -1     0     0   502   501  0.000000000E+00  0.000000000E+00  7.891678938E+01  7.891678938E+01  0.000000000E+00  0.00000E+00  9.000E+00
      21    -1     0     0   501   511  0.000000000E+00  0.000000000E+00 -1.430828107E+03  1.430828107E+03  0.000000000E+00  0.00000E+00  9.000E+00
      25     1     1     2     0     0 -1.371628078E+02 -1.162459121E+02 -1.465924077E+02  2.635167583E+02  1.250000000E+02  0.00000E+00  9.000E+00
      25     1     1     2     0     0  1.379082507E+01  1.260806156E+02 -5.154149003E+02  5.453109461E+02  1.250000000E+02  0.00000E+00  9.000E+00
      21     1     1     2   502   511  1.233719827E+02 -9.834703522E+00 -6.899040097E+02  7.009171920E+02  1.078959322E-05  0.00000E+00  9.000E+00
#rwgt            1           1   2.8341878271125148E-002           8       52845           0
</event>
<event>
      5   9999  3.19816E-02  1.44398E+02 -1.00000E+00  1.17052E-01
      21    -1     0     0   502   501  0.000000000E+00  0.000000000E+00  4.942792032E+02  4.942792032E+02  0.000000000E+00  0.00000E+00  9.000E+00
      21    -1     0     0   512   502  0.000000000E+00  0.000000000E+00 -2.415248577E+03  2.415248577E+03  0.000000000E+00  0.00000E+00  9.000E+00
      25     1     1     2     0     0 -3.353809332E+02  1.280064551E+02 -2.089264458E+03  2.123562336E+03  1.250000000E+02  0.00000E+00  9.000E+00
      25     1     1     2     0     0  4.392754692E+02 -2.772274654E+01  3.337624505E+02  5.663513590E+02  1.250000000E+02  0.00000E+00  9.000E+00
      21     1     1     2   512   501 -1.038945360E+02 -1.002837086E+02 -1.654673672E+02  2.196140852E+02  0.000000000E+00  0.00000E+00  9.000E+00
#rwgt            1           1   2.4372273523902171E-002           8       52885           0
</event>
<event>
      5   9999  3.19816E-02  5.38181E+01 -1.00000E+00  1.37276E-01
      21    -1     0     0   502   511  0.000000000E+00  0.000000000E+00  2.269514417E+02  2.269514417E+02  0.000000000E+00  0.00000E+00  9.000E+00
      21    -1     0     0   501   502  0.000000000E+00  0.000000000E+00 -9.392651465E+02  9.392651465E+02  0.000000000E+00  0.00000E+00  9.000E+00
      25     1     1     2     0     0 -8.074446038E+01  3.095246128E+02 -2.731498467E+02  4.388177213E+02  1.250000000E+02  0.00000E+00  9.000E+00
      25     1     1     2     0     0  1.300168855E+02 -3.311721320E+02 -5.125915583E+02  6.363603359E+02  1.250000000E+02  0.00000E+00  9.000E+00
      21     1     1     2   501   511 -4.927242510E+01  2.164751920E+01  7.342770017E+01  9.103853094E+01  2.336015456E-06  0.00000E+00  9.000E+00
#rwgt            1           1   2.6163966259352453E-002           8       52969           0
</event>
<event>
      5   9999  3.19816E-02  9.65897E+01 -1.00000E+00  1.24510E-01
      21    -1     0     0   502   501  0.000000000E+00  0.000000000E+00  1.472586626E+03  1.472586626E+03  0.000000000E+00  0.00000E+00  9.000E+00
      21    -1     0     0   512   502  0.000000000E+00  0.000000000E+00 -1.809402575E+03  1.809402575E+03  0.000000000E+00  0.00000E+00  9.000E+00
      25     1     1     2     0     0 -8.749041787E+02  8.851586952E+02 -8.035246797E+02  1.486687643E+03  1.250000000E+02  0.00000E+00  9.000E+00
      25     1     1     2     0     0  7.839655518E+02 -9.177122002E+02  7.966077818E+02  1.451553177E+03  1.250000000E+02  0.00000E+00  9.000E+00
      21     1     1     2   512   501  9.093862693E+01  3.255350504E+01 -3.298990513E+02  3.437483797E+02  0.000000000E+00  0.00000E+00  9.000E+00
#rwgt            1           1   4.3772264548890875E-002           8       53075           0
</event>
<event>
      5   9999  3.19816E-02  5.40060E+01 -1.00000E+00  1.37192E-01
      21    -1     0     0   502   501  0.000000000E+00  0.000000000E+00  4.084619338E+02  4.084619338E+02  0.000000000E+00  0.00000E+00  9.000E+00
      21    -1     0     0   501   511  0.000000000E+00  0.000000000E+00 -7.018453436E+02  7.018453436E+02  0.000000000E+00  0.00000E+00  9.000E+00
      25     1     1     2     0     0 -5.164421286E+01 -4.064874144E+02 -2.703812335E+02  5.065867687E+02  1.250000000E+02  0.00000E+00  9.000E+00
      25     1     1     2     0     0  7.603009737E+01  4.546742866E+02  8.296391910E+01  4.847858233E+02  1.250000000E+02  0.00000E+00  9.000E+00
      21     1     1     2   502   511 -2.438588451E+01 -4.818687221E+01 -1.059660954E+02  1.189346854E+02  0.000000000E+00  0.00000E+00  9.000E+00
#rwgt            1           1   2.8706086516587147E-002           8       53168           0
</event>
<event>
      5   9999  3.19816E-02  1.16596E+01 -1.00000E+00  1.88352E-01
      21    -1     0     0   502   501  0.000000000E+00  0.000000000E+00  1.552324122E+02  1.552324122E+02  0.000000000E+00  0.00000E+00  9.000E+00
      21    -1     0     0   501   512  0.000000000E+00  0.000000000E+00 -3.183615198E+03  3.183615198E+03  0.000000000E+00  0.00000E+00  9.000E+00
      25     1     1     2     0     0  4.643288876E+02  4.929839639E+02 -1.540258684E+03  1.687203698E+03  1.250000000E+02  0.00000E+00  9.000E+00
      25     1     1     2     0     0 -4.529356178E+02 -4.905060656E+02 -1.332996230E+03  1.496078482E+03  1.250000000E+02  0.00000E+00  9.000E+00
      21     1     1     2   502   512 -1.139326973E+01 -2.477898261E+00 -1.551278725E+02  1.555654312E+02  1.907348633E-06  0.00000E+00  9.000E+00
#rwgt            1           1   6.8475427985469170E-002           8       53274           0
</event>
<event>
      5   9999  3.19816E-02  3.79482E+01 -1.00000E+00  1.46273E-01
      21    -1     0     0   502   501  0.000000000E+00  0.000000000E+00  4.755604657E+01  4.755604657E+01  0.000000000E+00  0.00000E+00  9.000E+00
       2    -1     0     0   501     0  0.000000000E+00  0.000000000E+00 -3.085497632E+03  3.085497632E+03  0.000000000E+00  0.00000E+00  9.000E+00
      25     1     1     2     0     0  8.430694564E+01  2.306886699E+02 -1.220823637E+03  1.251543158E+03  1.250000000E+02  0.00000E+00  9.000E+00
      25     1     1     2     0     0 -1.074478148E+02 -2.607646136E+02 -7.146688119E+02  7.784084579E+02  1.250000000E+02  0.00000E+00  9.000E+00
       2     1     1     2   502     0  2.314086919E+01  3.007594366E+01 -1.102449137E+03  1.103102063E+03  2.157918644E-05  0.00000E+00  9.000E+00
#rwgt            1           1   2.2338629509320029E-002           8       53650           0
</event>
<event>
      5   9999  3.19816E-02  1.16954E+02 -1.00000E+00  1.20844E-01
      21    -1     0     0   502   501  0.000000000E+00  0.000000000E+00  5.338526579E+02  5.338526579E+02  0.000000000E+00  0.00000E+00  9.000E+00
      21    -1     0     0   511   502  0.000000000E+00  0.000000000E+00 -2.024189538E+02  2.024189538E+02  0.000000000E+00  0.00000E+00  9.000E+00
      25     1     1     2     0     0 -1.021944554E+02 -2.315953438E+02  1.896812630E+02  3.401236416E+02  1.250000000E+02  0.00000E+00  9.000E+00
      25     1     1     2     0     0  6.771361469E+01  1.198397750E+02  1.934138510E+02  2.682920481E+02  1.250000000E+02  0.00000E+00  9.000E+00
      21     1     1     2   511   501  3.448084072E+01  1.117555688E+02 -5.166140989E+01  1.278559221E+02  1.348699152E-06  0.00000E+00  9.000E+00
#rwgt            1           1   2.7171567031187387E-002           8       53744           0
</event>
<event>
      5   9999  3.19816E-02  1.10293E+02 -1.00000E+00  1.21944E-01
      21    -1     0     0   502   512  0.000000000E+00  0.000000000E+00  5.393634398E+02  5.393634398E+02  0.000000000E+00  0.00000E+00  9.000E+00
      21    -1     0     0   501   502  0.000000000E+00  0.000000000E+00 -2.130059947E+02  2.130059947E+02  0.000000000E+00  0.00000E+00  9.000E+00
      25     1     1     2     0     0 -2.197751152E+02  1.698327123E+02  6.141914155E+01  3.107113812E+02  1.250000000E+02  0.00000E+00  9.000E+00
      25     1     1     2     0     0  1.777405621E+02 -6.786428360E+01  1.136587894E+02  2.544417199E+02  1.250000000E+02  0.00000E+00  9.000E+00
      21     1     1     2   501   512  4.203455309E+01 -1.019684287E+02  1.512795142E+02  1.872163334E+02  2.697398305E-06  0.00000E+00  9.000E+00
#rwgt            1           1   2.7449822999874456E-002           8       53804           0
</event>
<event>
      5   9999  3.19816E-02  5.34540E+01 -1.00000E+00  1.37440E-01
      21    -1     0     0   502   501  0.000000000E+00  0.000000000E+00  7.564207788E+01  7.564207788E+01  0.000000000E+00  0.00000E+00  9.000E+00
      21    -1     0     0   511   502  0.000000000E+00  0.000000000E+00 -5.488185116E+02  5.488185116E+02  0.000000000E+00  0.00000E+00  9.000E+00
      25     1     1     2     0     0 -5.661404519E+01 -9.425624832E+01 -2.248627423E+02  2.797814206E+02  1.250000000E+02  0.00000E+00  9.000E+00
      25     1     1     2     0     0  2.043090341E+01  1.336023339E+02 -1.754627076E+02  2.543209924E+02  1.250000000E+02  0.00000E+00  9.000E+00
      21     1     1     2   511   501  3.618314178E+01 -3.934608557E+01 -7.285098381E+01  9.035817639E+01  9.536743164E-07  0.00000E+00  9.000E+00
#rwgt            1           1   2.6922626657090883E-002           8       53873           0
</event>
<event>
      5   9999  3.19816E-02  3.10914E+01 -1.00000E+00  1.51970E-01
      21    -1     0     0   502   501  0.000000000E+00  0.000000000E+00  2.663179960E+02  2.663179960E+02  0.000000000E+00  0.00000E+00  9.000E+00
      21    -1     0     0   501   512  0.000000000E+00  0.000000000E+00 -6.180936925E+02  6.180936925E+02  0.000000000E+00  0.00000E+00  9.000E+00
      25     1     1     2     0     0 -1.722910001E+02 -3.253058341E+02 -2.526553413E+02  4.636461969E+02  1.250000000E+02  0.00000E+00  9.000E+00
      25     1     1     2     0     0  1.467207556E+02  3.076185524E+02 -5.555462848E+01  3.672430675E+02  1.250000000E+02  0.00000E+00  9.000E+00
      21     1     1     2   502   512  2.557024456E+01  1.768728166E+01 -4.356572665E+01  5.352242406E+01  8.259061849E-07  0.00000E+00  9.000E+00
#rwgt            1           1   2.8807689234504177E-002           8       53933           0
</event>
<event>
      5   9999  3.19816E-02  2.05589E+01 -1.00000E+00  1.65388E-01
      21    -1     0     0   502   501  0.000000000E+00  0.000000000E+00  2.373721082E+02  2.373721082E+02  0.000000000E+00  0.00000E+00  9.000E+00
      21    -1     0     0   501   511  0.000000000E+00  0.000000000E+00 -8.908399590E+02  8.908399590E+02  0.000000000E+00  0.00000E+00  9.000E+00
      25     1     1     2     0     0  4.186075760E+02  9.377864214E+00 -3.023842504E+02  5.313957865E+02  1.250000000E+02  0.00000E+00  9.000E+00
      25     1     1     2     0     0 -4.325797168E+02 -2.445921028E+01 -2.996413126E+02  5.414179352E+02  1.250000000E+02  0.00000E+00  9.000E+00
      21     1     1     2   502   511  1.397214078E+01  1.508134607E+01 -5.144228776E+01  5.539834553E+01  6.743495762E-07  0.00000E+00  9.000E+00
#rwgt            1           1   2.8640515107982725E-002           8       54081           0
</event>
<event>
      5   9999  3.19816E-02  1.35022E+02 -1.00000E+00  1.18233E-01
      21    -1     0     0   502   501  0.000000000E+00  0.000000000E+00  2.732421412E+02  2.732421412E+02  0.000000000E+00  0.00000E+00  9.000E+00
       3    -1     0     0   501     0  0.000000000E+00  0.000000000E+00 -1.025788393E+03  1.025788393E+03  0.000000000E+00  0.00000E+00  9.000E+00
      25     1     1     2     0     0  3.520585388E+02  1.517970624E+02 -2.420565844E+02  4.703232431E+02  1.250000000E+02  0.00000E+00  9.000E+00
      25     1     1     2     0     0 -2.677389067E+02 -2.572540875E+02 -1.112680950E+02  4.072706430E+02  1.250000000E+02  0.00000E+00  9.000E+00
       3     1     1     2   502     0 -8.431963211E+01  1.054570251E+02 -3.992215726E+02  4.214366483E+02  0.000000000E+00  0.00000E+00  9.000E+00
#rwgt            1           1   2.8234713227158811E-002           8       54303           0
</event>
<event>
      5   9999  3.19816E-02  1.52353E+02 -1.00000E+00  1.16126E-01
      21    -1     0     0   502   511  0.000000000E+00  0.000000000E+00  3.789498142E+02  3.789498142E+02  0.000000000E+00  0.00000E+00  9.000E+00
      21    -1     0     0   501   502  0.000000000E+00  0.000000000E+00 -2.072415574E+03  2.072415574E+03  0.000000000E+00  0.00000E+00  9.000E+00
      25     1     1     2     0     0  1.825027672E+02 -1.331232609E+02 -3.724620206E+02  4.531909304E+02  1.250000000E+02  0.00000E+00  9.000E+00
      25     1     1     2     0     0 -2.143572133E+02  2.821086208E+02 -1.619787184E+03  1.662789767E+03  1.250000000E+02  0.00000E+00  9.000E+00
      21     1     1     2   501   511  3.185444614E+01 -1.489853598E+02  2.987834452E+02  3.353846901E+02  3.814697266E-06  0.00000E+00  9.000E+00
#rwgt            1           1   2.7408227239751178E-002           8       54407           0
</event>
<event>
      5   9999  3.19816E-02  4.06762E+01 -1.00000E+00  1.44390E-01
      21    -1     0     0   502   512  0.000000000E+00  0.000000000E+00  3.576472210E+03  3.576472210E+03  0.000000000E+00  0.00000E+00  9.000E+00
      21    -1     0     0   501   502  0.000000000E+00  0.000000000E+00 -2.361493414E+02  2.361493414E+02  0.000000000E+00  0.00000E+00  9.000E+00
      25     1     1     2     0     0 -1.041558648E+02 -7.229954096E+02  1.549309956E+03  1.717427479E+03  1.250000000E+02  0.00000E+00  9.000E+00
      25     1     1     2     0     0  1.352709684E+02  6.967961270E+02  7.042779391E+02  1.007698116E+03  1.250000000E+02  0.00000E+00  9.000E+00
      21     1     1     2   501   512 -3.111510368E+01  2.619928257E+01  1.086734973E+03  1.087495956E+03  1.525878906E-05  0.00000E+00  9.000E+00
#rwgt            2          11   7.4844350342623755E-004           8       54610           0
</event>
<event>
      5   9999  3.19816E-02  9.17172E+01 -1.00000E+00  1.25541E-01
      21    -1     0     0   511   501  0.000000000E+00  0.000000000E+00  7.625644104E+02  7.625644104E+02  0.000000000E+00  0.00000E+00  9.000E+00
      21    -1     0     0   501   502  0.000000000E+00  0.000000000E+00 -1.360396779E+02  1.360396779E+02  0.000000000E+00  0.00000E+00  9.000E+00
      25     1     1     2     0     0  1.250823095E+02 -1.469327626E+02  3.130289504E+02  3.883901964E+02  1.250000000E+02  0.00000E+00  9.000E+00
      25     1     1     2     0     0 -2.118757223E+02  1.172857682E+02  1.234335292E+02  2.991790588E+02  1.250000000E+02  0.00000E+00  9.000E+00
      21     1     1     2   511   502  8.679341274E+01  2.964699444E+01  1.900622529E+02  2.110348330E+02  2.697398305E-06  0.00000E+00  9.000E+00
#rwgt            1           1   3.0618522611213814E-002           8       54630           0
</event>
<event>
      5   9999  3.19816E-02  5.47247E+01 -1.00000E+00  1.36874E-01
      21    -1     0     0   502   512  0.000000000E+00  0.000000000E+00  1.515063026E+02  1.515063026E+02  0.000000000E+00  0.00000E+00  9.000E+00
      21    -1     0     0   501   502  0.000000000E+00  0.000000000E+00 -1.011265527E+03  1.011265527E+03  0.000000000E+00  0.00000E+00  9.000E+00
      25     1     1     2     0     0  7.143879189E+00 -2.825765504E+02 -1.810681510E+02  3.582055515E+02  1.250000000E+02  0.00000E+00  9.000E+00
      25     1     1     2     0     0  2.123043392E+01  2.357823824E+02 -6.971720900E+02  7.468051862E+02  1.250000000E+02  0.00000E+00  9.000E+00
      21     1     1     2   501   512 -2.837431311E+01  4.679416801E+01  1.848101625E+01  5.776109214E+01  8.259061849E-07  0.00000E+00  9.000E+00
#rwgt            1           1   3.3965270863486850E-002           8       54746           0
</event>
<event>
      5   9999  3.19816E-02  1.43815E+02 -1.00000E+00  1.17123E-01
       2    -1     0     0   502     0  0.000000000E+00  0.000000000E+00  1.095510546E+03  1.095510546E+03  0.000000000E+00  0.00000E+00  9.000E+00
      21    -1     0     0   501   502  0.000000000E+00  0.000000000E+00 -5.383344834E+02  5.383344834E+02  0.000000000E+00  0.00000E+00  9.000E+00
      25     1     1     2     0     0 -1.038881050E+02 -6.388322085E+01 -4.642456006E+02  4.960068366E+02  1.250000000E+02  0.00000E+00  9.000E+00
      25     1     1     2     0     0  6.988986709E+01  2.036222588E+02  2.488376959E+02  3.519826938E+02  1.250000000E+02  0.00000E+00  9.000E+00
       2     1     1     2   501     0  3.399823794E+01 -1.397390380E+02  7.725839670E+02  7.858554988E+02  1.078959322E-05  0.00000E+00  9.000E+00
#rwgt            1           1   2.7426797638321402E-002           8       54842           0
</event>
<event>
      5   9999  3.19816E-02  2.24521E+02 -1.00000E+00  1.09850E-01
      21    -1     0     0   502   501  0.000000000E+00  0.000000000E+00  6.043534149E+02  6.043534149E+02  0.000000000E+00  0.00000E+00  9.000E+00
       1    -1     0     0   501     0  0.000000000E+00  0.000000000E+00 -4.609071048E+03  4.609071048E+03  0.000000000E+00  0.00000E+00  9.000E+00
      25     1     1     2     0     0 -6.919302470E+02 -4.828759134E+02 -3.889658753E+02  9.374732351E+02  1.250000000E+02  0.00000E+00  9.000E+00
      25     1     1     2     0     0  5.216228424E+02  3.365705333E+02  1.972415932E+01  6.335488585E+02  1.250000000E+02  0.00000E+00  9.000E+00
       1     1     1     2   502     0  1.703074046E+02  1.463053801E+02 -3.635475917E+03  3.642402369E+03  4.315837288E-05  0.00000E+00  9.000E+00
#rwgt            1           1   2.7965213225518228E-002           8       54919           0
</event>
<event>
      5   9999  3.19816E-02  1.20107E+02 -1.00000E+00  1.20352E-01
      21    -1     0     0   502   501  0.000000000E+00  0.000000000E+00  6.585856693E+02  6.585856693E+02  0.000000000E+00  0.00000E+00  9.000E+00
      21    -1     0     0   501   511  0.000000000E+00  0.000000000E+00 -4.192778965E+02  4.192778965E+02  0.000000000E+00  0.00000E+00  9.000E+00
      25     1     1     2     0     0 -1.346426616E+02 -2.544965366E+02  4.590490266E+02  5.561008382E+02  1.250000000E+02  0.00000E+00  9.000E+00
      25     1     1     2     0     0  1.501545536E+01  2.652259054E+02 -2.722165009E+01  2.948495600E+02  1.250000000E+02  0.00000E+00  9.000E+00
      21     1     1     2   502   511  1.196272062E+02 -1.072936877E+01 -1.925196037E+02  2.269131676E+02  0.000000000E+00  0.00000E+00  9.000E+00
#rwgt            1           1   2.9181488722557956E-002           8       54974           0
</event>
<event>
      5   9999  3.19816E-02  2.53603E+01 -1.00000E+00  1.58287E-01
      21    -1     0     0   502   501  0.000000000E+00  0.000000000E+00  7.089764019E+02  7.089764019E+02  0.000000000E+00  0.00000E+00  9.000E+00
      21    -1     0     0   512   502  0.000000000E+00  0.000000000E+00 -7.087187140E+02  7.087187140E+02  0.000000000E+00  0.00000E+00  9.000E+00
      25     1     1     2     0     0  1.702924701E+02 -4.699034386E+00  1.760371274E+02  2.750194112E+02  1.250000000E+02  0.00000E+00  9.000E+00
      25     1     1     2     0     0 -1.948309979E+02  1.110251947E+01  4.554057781E+02  5.109812192E+02  1.250000000E+02  0.00000E+00  9.000E+00
      21     1     1     2   512   501  2.453852775E+01 -6.403485083E+00 -6.311852177E+02  6.316944855E+02  7.629394531E-06  0.00000E+00  9.000E+00
#rwgt            1           1   2.8052023210641732E-002           8       55056           0
</event>
<event>
      5   9999  3.19816E-02  4.64174E+01 -1.00000E+00  1.40943E-01
      21    -1     0     0   502   501  0.000000000E+00  0.000000000E+00  1.201750962E+03  1.201750962E+03  0.000000000E+00  0.00000E+00  9.000E+00
      21    -1     0     0   511   502  0.000000000E+00  0.000000000E+00 -9.167920201E+01  9.167920201E+01  0.000000000E+00  0.00000E+00  9.000E+00
      25     1     1     2     0     0 -1.952473346E+02  1.485834096E+02  5.359759795E+02  6.025726528E+02  1.250000000E+02  0.00000E+00  9.000E+00
      25     1     1     2     0     0  1.710696677E+02 -1.089600448E+02  5.942673037E+02  6.402466328E+02  1.250000000E+02  0.00000E+00  9.000E+00
      21     1     1     2   511   501  2.417766687E+01 -3.962336487E+01 -2.017152356E+01  5.061087810E+01  0.000000000E+00  0.00000E+00  9.000E+00
#rwgt            1           1   2.7358654339103547E-002           8       55165           0
</event>
<event>
      5   9999  3.19816E-02  1.17543E+02 -1.00000E+00  1.20751E-01
      21    -1     0     0   502   501  0.000000000E+00  0.000000000E+00  3.137705476E+03  3.137705476E+03  0.000000000E+00  0.00000E+00  9.000E+00
      21    -1     0     0   501   512  0.000000000E+00  0.000000000E+00 -1.119486598E+02  1.119486598E+02  0.000000000E+00  0.00000E+00  9.000E+00
      25     1     1     2     0     0 -1.635902764E+02 -2.641361348E+02  4.791323959E+02  5.845703799E+02  1.250000000E+02  0.00000E+00  9.000E+00
      25     1     1     2     0     0  6.938248020E+01  1.938420834E+02  2.535611891E+03  2.547025981E+03  1.250000000E+02  0.00000E+00  9.000E+00
      21     1     1     2   502   512  9.420779625E+01  7.029405142E+01  1.101252909E+01  1.180577754E+02  3.361194653E-06  0.00000E+00  9.000E+00
#rwgt            1           1   3.6480583048538427E-002           8       55298           0
</event>
<event>
      5   9999  3.19816E-02  1.13112E+02 -1.00000E+00  1.21468E-01
      21    -1     0     0   502   501  0.000000000E+00  0.000000000E+00  1.702993942E+02  1.702993942E+02  0.000000000E+00  0.00000E+00  9.000E+00
      21    -1     0     0   511   502  0.000000000E+00  0.000000000E+00 -7.482538428E+02  7.482538428E+02  0.000000000E+00  0.00000E+00  9.000E+00
      25     1     1     2     0     0  1.436771643E+02  1.696850273E+02 -2.889491025E+02  3.854253752E+02  1.250000000E+02  0.00000E+00  9.000E+00
      25     1     1     2     0     0 -1.069118615E+02 -2.766550856E+02 -1.534149644E+02  3.565520071E+02  1.250000000E+02  0.00000E+00  9.000E+00
      21     1     1     2   511   501 -3.676530278E+01  1.069700582E+02 -1.355903817E+02  1.765758547E+02  3.303624740E-06  0.00000E+00  9.000E+00
#rwgt            1           1   3.1755739351471489E-002           8       55475           0
</event>
<event>
      5   9999  3.19816E-02  2.71334E+02 -1.00000E+00  1.07029E-01
      21    -1     0     0   512   501  0.000000000E+00  0.000000000E+00  4.985328425E+02  4.985328425E+02  0.000000000E+00  0.00000E+00  9.000E+00
      21    -1     0     0   501   502  0.000000000E+00  0.000000000E+00 -3.291891371E+02  3.291891371E+02  0.000000000E+00  0.00000E+00  9.000E+00
      25     1     1     2     0     0 -5.806012430E+01 -1.914208883E+02 -1.382694745E+02  2.734161336E+02  1.250000000E+02  0.00000E+00  9.000E+00
      25     1     1     2     0     0 -8.915049608E+01 -3.650698839E+01  2.029015647E+01  1.591139893E+02  1.250000000E+02  0.00000E+00  9.000E+00
      21     1     1     2   512   502  1.472106204E+02  2.279278767E+02  2.873230236E+02  3.951918567E+02  3.814697266E-06  0.00000E+00  9.000E+00
#rwgt            2          11   9.5338080860621482E-003           8       55636           0
</event>
<event>
      5   9999  3.19816E-02  5.42453E+01 -1.00000E+00  1.37086E-01
      21    -1     0     0   502   501  0.000000000E+00  0.000000000E+00  6.849412289E+02  6.849412289E+02  0.000000000E+00  0.00000E+00  9.000E+00
      21    -1     0     0   501   511  0.000000000E+00  0.000000000E+00 -5.645583075E+02  5.645583075E+02  0.000000000E+00  0.00000E+00  9.000E+00
      25     1     1     2     0     0 -2.098580957E+02 -4.741199769E+02  3.581308577E+02  6.424273375E+02  1.250000000E+02  0.00000E+00  9.000E+00
      25     1     1     2     0     0  1.888069216E+02  4.241259874E+02 -1.495156161E+02  5.034985862E+02  1.250000000E+02  0.00000E+00  9.000E+00
      21     1     1     2   502   511  2.105117410E+01  4.999398947E+01 -8.823232016E+01  1.035736126E+02  2.132480600E-06  0.00000E+00  9.000E+00
#rwgt            1           1   3.4194354638168112E-002           8       55671           0
</event>
<event>
      5   9999  3.19816E-02  5.63246E+01 -1.00000E+00  1.36187E-01
      21    -1     0     0   502   501  0.000000000E+00  0.000000000E+00  8.671793376E+02  8.671793376E+02  0.000000000E+00  0.00000E+00  9.000E+00
       1    -1     0     0   501     0  0.000000000E+00  0.000000000E+00 -1.476826961E+03  1.476826961E+03  0.000000000E+00  0.00000E+00  9.000E+00
      25     1     1     2     0     0  6.775230615E+02 -4.166586199E+02 -7.692760930E+02  1.113576496E+03  1.250000000E+02  0.00000E+00  9.000E+00
      25     1     1     2     0     0 -6.484572863E+02  4.649042382E+02  4.568730138E+02  9.278958743E+02  1.250000000E+02  0.00000E+00  9.000E+00
       1     1     1     2   502     0 -2.906577514E+01 -4.824561829E+01 -2.972445440E+02  3.025339285E+02  3.814697266E-06  0.00000E+00  9.000E+00
#rwgt            1           1   3.4177411759390021E-002           8       55747           0
</event>
<event>
      5   9999  3.19816E-02  2.47696E+01 -1.00000E+00  1.59053E-01
      21    -1     0     0   502   501  0.000000000E+00  0.000000000E+00  5.873646732E+02  5.873646732E+02  0.000000000E+00  0.00000E+00  9.000E+00
      21    -1     0     0   511   502  0.000000000E+00  0.000000000E+00 -8.701716187E+02  8.701716187E+02  0.000000000E+00  0.00000E+00  9.000E+00
      25     1     1     2     0     0 -3.963913917E+02  1.994282163E+02 -3.155041685E+02  5.586283462E+02  1.250000000E+02  0.00000E+00  9.000E+00
      25     1     1     2     0     0  4.136245270E+02 -2.172200709E+02  3.396358500E+02  5.909715045E+02  1.250000000E+02  0.00000E+00  9.000E+00
      21     1     1     2   511   501 -1.723313537E+01  1.779185462E+01 -3.069386269E+02  3.079364411E+02  0.000000000E+00  0.00000E+00  9.000E+00
#rwgt            1           1   2.8565201640223505E-002           8       55873           0
</event>
<event>
      5   9999  3.19816E-02  7.82784E+00 -1.00000E+00  2.08914E-01
      21    -1     0     0   502   512  0.000000000E+00  0.000000000E+00  1.304332001E+02  1.304332001E+02  0.000000000E+00  0.00000E+00  9.000E+00
      21    -1     0     0   501   502  0.000000000E+00  0.000000000E+00 -3.902442183E+02  3.902442183E+02  0.000000000E+00  0.00000E+00  9.000E+00
      25     1     1     2     0     0  5.984419841E+01  2.243914321E+01 -2.598682130E+02  2.953664357E+02  1.250000000E+02  0.00000E+00  9.000E+00
      25     1     1     2     0     0 -5.608125555E+01 -1.557508002E+01 -7.012478134E+01  1.546938114E+02  1.250000000E+02  0.00000E+00  9.000E+00
      21     1     1     2   501   512 -3.762942863E+00 -6.864063192E+00  7.018197611E+01  7.061717124E+01  0.000000000E+00  0.00000E+00  9.000E+00
#rwgt            1           1   5.9568301342737037E-002           8       56057           0
</event>
<event>
      5   9999  3.19816E-02  9.84124E+01 -1.00000E+00  1.24141E-01
      21    -1     0     0   502   511  0.000000000E+00  0.000000000E+00  7.195997832E+01  7.195997832E+01  0.000000000E+00  0.00000E+00  9.000E+00
      21    -1     0     0   501   502  0.000000000E+00  0.000000000E+00 -9.802460906E+02  9.802460906E+02  0.000000000E+00  0.00000E+00  9.000E+00
      25     1     1     2     0     0  4.074577594E+01 -9.645853992E-01 -3.736450075E+02  3.961019317E+02  1.250000000E+02  0.00000E+00  9.000E+00
      25     1     1     2     0     0 -1.390849733E+02  4.760882798E+00 -5.248697101E+02  5.572077785E+02  1.250000000E+02  0.00000E+00  9.000E+00
      21     1     1     2   501   511  9.833919737E+01 -3.796297399E+00 -9.771394663E+00  9.889635872E+01  1.603796965E-06  0.00000E+00  9.000E+00
#rwgt            1           1   6.9028126700748649E-002           8       56339           0
</event>
<event>
      5   9999  3.19816E-02  1.52192E+01 -1.00000E+00  1.76792E-01
      21    -1     0     0   502   501  0.000000000E+00  0.000000000E+00  1.894512973E+03  1.894512973E+03  0.000000000E+00  0.00000E+00  9.000E+00
      21    -1     0     0   501   512  0.000000000E+00  0.000000000E+00 -4.071209471E+02  4.071209471E+02  0.000000000E+00  0.00000E+00  9.000E+00
      25     1     1     2     0     0 -7.583206666E+01  1.039940996E+02  1.570926078E+02  2.384708840E+02  1.250000000E+02  0.00000E+00  9.000E+00
      25     1     1     2     0     0  6.064753567E+01 -1.050211906E+02  1.692101561E+03  1.701040936E+03  1.250000000E+02  0.00000E+00  9.000E+00
      21     1     1     2   502   512  1.518453100E+01  1.027091028E+00 -3.618021427E+02  3.621221001E+02  0.000000000E+00  0.00000E+00  9.000E+00
#rwgt            1           1   3.6430248350903659E-002           8       56387           0
</event>
<event>
      5   9999  3.19816E-02  5.62163E+01 -1.00000E+00  1.36233E-01
      21    -1     0     0   502   501  0.000000000E+00  0.000000000E+00  3.732790597E+02  3.732790597E+02  0.000000000E+00  0.00000E+00  9.000E+00
      21    -1     0     0   511   502  0.000000000E+00  0.000000000E+00 -3.021282458E+02  3.021282458E+02  0.000000000E+00  0.00000E+00  9.000E+00
      25     1     1     2     0     0  9.597557745E+01  2.372444171E+02  7.962579784E+00  2.849291624E+02  1.250000000E+02  0.00000E+00  9.000E+00
      25     1     1     2     0     0 -7.068719173E+01 -2.874517142E+02  8.123666283E+01  3.314356083E+02  1.250000000E+02  0.00000E+00  9.000E+00
      21     1     1     2   511   501 -2.528838572E+01  5.020729710E+01 -1.804842864E+01  5.904253476E+01  4.129530925E-07  0.00000E+00  9.000E+00
#rwgt            1           1   2.7112153458414390E-002           8       56542           0
</event>
<event>
      5   9999  3.19816E-02  3.19542E+01 -1.00000E+00  1.51160E-01
      21    -1     0     0   502   501  0.000000000E+00  0.000000000E+00  9.154826494E+02  9.154826494E+02  0.000000000E+00  0.00000E+00  9.000E+00
      21    -1     0     0   501   512  0.000000000E+00  0.000000000E+00 -8.810850345E+01  8.810850345E+01  0.000000000E+00  0.00000E+00  9.000E+00
      25     1     1     2     0     0  1.334731188E+00 -2.304008582E+02  5.431545812E+02  6.030988609E+02  1.250000000E+02  0.00000E+00  9.000E+00
      25     1     1     2     0     0 -2.860836353E+01  2.137509199E+02  2.616080982E+02  3.613470510E+02  1.250000000E+02  0.00000E+00  9.000E+00
      21     1     1     2   502   512  2.727363235E+01  1.664993823E+01  2.261146647E+01  3.914524084E+01  9.830249847E-07  0.00000E+00  9.000E+00
#rwgt            1           1   2.3723191247521303E-002           8       56618           0
</event>
<event>
      5   9999  3.19816E-02  1.20532E+02 -1.00000E+00  1.20287E-01
      -2    -1     0     0     0   501  0.000000000E+00  0.000000000E+00  8.835457232E+02  8.835457232E+02  0.000000000E+00  0.00000E+00  9.000E+00
      21    -1     0     0   501   502  0.000000000E+00  0.000000000E+00 -7.562941230E+02  7.562941230E+02  0.000000000E+00  0.00000E+00  9.000E+00
      25     1     1     2     0     0 -3.708905828E+02  5.287272725E+02 -2.225417081E+02  6.944509810E+02  1.250000000E+02  0.00000E+00  9.000E+00
      25     1     1     2     0     0  3.343078549E+02 -4.138813001E+02 -2.958826569E+01  5.473206902E+02  1.250000000E+02  0.00000E+00  9.000E+00
      -2     1     1     2     0   502  3.658272796E+01 -1.148459724E+02  3.793815739E+02  3.980681750E+02  5.394796609E-06  0.00000E+00  9.000E+00
#rwgt            1           1   2.9169851854789798E-002           8       56734           0
</event>
<event>
      5   9999  3.19816E-02  8.97870E+01 -1.00000E+00  1.25969E-01
      21    -1     0     0   502   511  0.000000000E+00  0.000000000E+00  1.603408657E+02  1.603408657E+02  0.000000000E+00  0.00000E+00  9.000E+00
      21    -1     0     0   501   502  0.000000000E+00  0.000000000E+00 -5.808198693E+02  5.808198693E+02  0.000000000E+00  0.00000E+00  9.000E+00
      25     1     1     2     0     0 -1.889255206E+02  1.094869813E+02 -2.712505183E+02  3.699758034E+02  1.250000000E+02  0.00000E+00  9.000E+00
      25     1     1     2     0     0  1.257131378E+02 -1.732513894E+02 -9.044038351E+01  2.638641694E+02  1.250000000E+02  0.00000E+00  9.000E+00
      21     1     1     2   501   511  6.321238286E+01  6.376440811E+01 -5.878810166E+01  1.073207621E+02  1.168007728E-06  0.00000E+00  9.000E+00
#rwgt            1           1   2.7120571683374103E-002           8       56839           0
</event>
<event>
      5   9999  3.19816E-02  1.20281E+01 -1.00000E+00  1.86921E-01
      21    -1     0     0   502   512  0.000000000E+00  0.000000000E+00  3.003741636E+02  3.003741636E+02  0.000000000E+00  0.00000E+00  9.000E+00
      21    -1     0     0   501   502  0.000000000E+00  0.000000000E+00 -3.894196130E+02  3.894196130E+02  0.000000000E+00  0.00000E+00  9.000E+00
      25     1     1     2     0     0 -2.543139420E+02  1.520776682E+02  5.121596611E+01  3.256551450E+02  1.250000000E+02  0.00000E+00  9.000E+00
      25     1     1     2     0     0  2.423252501E+02 -1.511044810E+02 -1.524486714E+02  3.470154009E+02  1.250000000E+02  0.00000E+00  9.000E+00
      21     1     1     2   501   512  1.198869191E+01 -9.731871962E-01  1.218725590E+01  1.712323081E+01  1.685873940E-07  0.00000E+00  9.000E+00
#rwgt            1           1   2.9613603558123074E-002           8       56898           0
</event>
<event>
      5   9999  3.19816E-02  1.37544E+01 -1.00000E+00  1.81005E-01
      21    -1     0     0   502   501  0.000000000E+00  0.000000000E+00  1.357673845E+03  1.357673845E+03  0.000000000E+00  0.00000E+00  9.000E+00
      21    -1     0     0   511   502  0.000000000E+00  0.000000000E+00 -4.972450820E+01  4.972450820E+01  0.000000000E+00  0.00000E+00  9.000E+00
      25     1     1     2     0     0 -1.060169813E+01  2.037920238E+02  8.022143024E+02  8.371477600E+02  1.250000000E+02  0.00000E+00  9.000E+00
      25     1     1     2     0     0  4.389434860E+00 -2.160636000E+02  4.819944280E+02  5.428133888E+02  1.250000000E+02  0.00000E+00  9.000E+00
      21     1     1     2   511   501  6.212263274E+00  1.227157615E+01  2.374060603E+01  2.743720414E+01  4.768371582E-07  0.00000E+00  9.000E+00
#rwgt            1           1   2.7155793068408936E-002           8       57116           0
</event>
<event>
      5   9999  3.19816E-02  4.18770E+01 -1.00000E+00  1.43616E-01
      21    -1     0     0   502   501  0.000000000E+00  0.000000000E+00  3.236843362E+02  3.236843362E+02  0.000000000E+00  0.00000E+00  9.000E+00
      21    -1     0     0   512   502  0.000000000E+00  0.000000000E+00 -2.859739852E+02  2.859739852E+02  0.000000000E+00  0.00000E+00  9.000E+00
      25     1     1     2     0     0  1.688142277E+02  1.626833352E+02 -5.589016937E+01  2.715010535E+02  1.250000000E+02  0.00000E+00  9.000E+00
      25     1     1     2     0     0 -1.514114156E+02 -2.007729882E+02  9.442960553E+01  2.962721046E+02  1.250000000E+02  0.00000E+00  9.000E+00
      21     1     1     2   512   501 -1.740281206E+01  3.808965294E+01 -8.290851727E-01  4.188516338E+01  9.070144769E-07  0.00000E+00  9.000E+00
#rwgt            1           1   2.7073123348532586E-002           8       57278           0
</event>
<event>
      5   9999  3.19816E-02  7.16422E+01 -1.00000E+00  1.30713E-01
      21    -1     0     0   502   501  0.000000000E+00  0.000000000E+00  3.635496624E+02  3.635496624E+02  0.000000000E+00  0.00000E+00  9.000E+00
       2    -1     0     0   501     0  0.000000000E+00  0.000000000E+00 -2.811315127E+03  2.811315127E+03  0.000000000E+00  0.00000E+00  9.000E+00
      25     1     1     2     0     0  3.075839744E+02  4.442314436E+01  1.721940478E+02  3.766392267E+02  1.250000000E+02  0.00000E+00  9.000E+00
      25     1     1     2     0     0 -2.488459814E+02 -3.405404336E+00 -1.301897243E+02  3.074252487E+02  1.250000000E+02  0.00000E+00  9.000E+00
       2     1     1     2   502     0 -5.873799302E+01 -4.101774002E+01 -2.489769788E+03  2.490800314E+03  4.315837288E-05  0.00000E+00  9.000E+00
#rwgt            1           1   2.6978185789150948E-002           8       57360           0
</event>
<event>
      5   9999  3.19816E-02  2.14225E+02 -1.00000E+00  1.10572E-01
      21    -1     0     0   502   501  0.000000000E+00  0.000000000E+00  9.364485138E+01  9.364485138E+01  0.000000000E+00  0.00000E+00  9.000E+00
       2    -1     0     0   501     0  0.000000000E+00  0.000000000E+00 -1.832899329E+03  1.832899329E+03  0.000000000E+00  0.00000E+00  9.000E+00
      25     1     1     2     0     0  3.097891320E+01  1.233409292E+02 -3.975500596E+02  4.357106009E+02  1.250000000E+02  0.00000E+00  9.000E+00
      25     1     1     2     0     0 -2.311365620E+02 -4.699040265E+01 -2.116845282E+02  3.406868763E+02  1.250000000E+02  0.00000E+00  9.000E+00
       2     1     1     2   502     0  2.001576488E+02 -7.635052657E+01 -1.130019889E+03  1.150146703E+03  0.000000000E+00  0.00000E+00  9.000E+00
#rwgt            1           1   2.8062995302122168E-002           8       57445           0
</event>
<event>
      5   9999  3.19816E-02  3.01113E+02 -1.00000E+00  1.05540E-01
      21    -1     0     0   502   511  0.000000000E+00  0.000000000E+00  1.511687494E+03  1.511687494E+03  0.000000000E+00  0.00000E+00  9.000E+00
      21    -1     0     0   501   502  0.000000000E+00  0.000000000E+00 -1.285636508E+03  1.285636508E+03  0.000000000E+00  0.00000E+00  9.000E+00
      25     1     1     2     0     0 -4.808193336E+02 -1.128382375E+03 -4.477887452E+02  1.311706437E+03  1.250000000E+02  0.00000E+00  9.000E+00
      25     1     1     2     0     0  2.826452196E+02  9.016754781E+02  2.870815293E+02  9.954636068E+02  1.250000000E+02  0.00000E+00  9.000E+00
      21     1     1     2   501   511  1.981741140E+02  2.267068971E+02  3.867582012E+02  4.901539584E+02  0.000000000E+00  0.00000E+00  9.000E+00
#rwgt            1           1   2.6694386816898633E-002           8       57482           0
</event>
<event>
      5   9999  3.19816E-02  2.11755E+01 -1.00000E+00  1.64348E-01
      21    -1     0     0   512   501  0.000000000E+00  0.000000000E+00  5.902866392E+01  5.902866392E+01  0.000000000E+00  0.00000E+00  9.000E+00
      21    -1     0     0   501   502  0.000000000E+00  0.000000000E+00 -6.316196909E+02  6.316196909E+02  0.000000000E+00  0.00000E+00  9.000E+00
      25     1     1     2     0     0  1.001926533E+02 -2.046728300E+01 -1.292348899E+02  2.068432601E+02  1.250000000E+02  0.00000E+00  9.000E+00
      25     1     1     2     0     0 -9.954768394E+01  4.163291734E+01 -4.243649867E+02  4.553610470E+02  1.250000000E+02  0.00000E+00  9.000E+00
      21     1     1     2   512   502 -6.449693836E-01 -2.116563434E+01 -1.899115033E+01  2.844404776E+01  3.371747881E-07  0.00000E+00  9.000E+00
#rwgt            1           1   2.9401031000105392E-002           8       57558           0
</event>
<event>
      5   9999  3.19816E-02  6.01444E+02 -1.00000E+00  9.66251E-02
       2    -1     0     0   502     0  0.000000000E+00  0.000000000E+00  2.530492979E+03  2.530492979E+03  0.000000000E+00  0.00000E+00  9.000E+00
      21    -1     0     0   501   502  0.000000000E+00  0.000000000E+00 -2.096681894E+02  2.096681894E+02  0.000000000E+00  0.00000E+00  9.000E+00
      25     1     1     2     0     0 -1.460080854E+02 -1.612521867E+02  5.010159209E+02  5.603236402E+02  1.250000000E+02  0.00000E+00  9.000E+00
      25     1     1     2     0     0  3.844114752E+02 -3.909245447E+02  6.155355568E+02  8.337284951E+02  1.250000000E+02  0.00000E+00  9.000E+00
       2     1     1     2   501     0 -2.384033897E+02  5.521767314E+02  1.204273312E+03  1.346109033E+03  0.000000000E+00  0.00000E+00  9.000E+00
#rwgt            2          18   1.5832811202080509E-003           8       57740           0
</event>
<event>
      5   9999  3.19816E-02  3.55887E+02 -1.00000E+00  1.03236E-01
      -4    -1     0     0     0   501  0.000000000E+00  0.000000000E+00  7.243126361E+02  7.243126361E+02  0.000000000E+00  0.00000E+00  9.000E+00
      21    -1     0     0   501   502  0.000000000E+00  0.000000000E+00 -1.001450015E+03  1.001450015E+03  0.000000000E+00  0.00000E+00  9.000E+00
      25     1     1     2     0     0  4.594910924E+02 -2.163306165E+02 -7.468138275E+02  9.117493584E+02  1.250000000E+02  0.00000E+00  9.000E+00
      25     1     1     2     0     0 -2.626029040E+02 -8.013236904E+01  2.757962419E+02  4.087420321E+02  1.250000000E+02  0.00000E+00  9.000E+00
      -4     1     1     2     0   502 -1.968881884E+02  2.964629855E+02  1.938802063E+02  4.052712609E+02  8.946258087E-06  0.00000E+00  9.000E+00
#rwgt            2           2   2.9597392579106699E-005           8       57849           0
</event>
<event>
      5   9999  3.19816E-02  1.05668E+02 -1.00000E+00  1.22761E-01
       2    -1     0     0   502     0  0.000000000E+00  0.000000000E+00  1.905623112E+03  1.905623112E+03  0.000000000E+00  0.00000E+00  9.000E+00
      21    -1     0     0   501   502  0.000000000E+00  0.000000000E+00 -3.678435611E+01  3.678435611E+01  0.000000000E+00  0.00000E+00  9.000E+00
      25     1     1     2     0     0  4.424656742E+01  1.155153557E+02  6.696135141E+02  6.923213231E+02  1.250000000E+02  0.00000E+00  9.000E+00
      25     1     1     2     0     0  5.109657568E+01 -6.995924153E+01  2.339149042E+02  2.790095661E+02  1.250000000E+02  0.00000E+00  9.000E+00
       2     1     1     2   501     0 -9.534314310E+01 -4.555611414E+01  9.653103373E+02  9.710765787E+02  1.525878906E-05  0.00000E+00  9.000E+00
#rwgt            2          18   7.7624476902198416E-004           8       57868           0
</event>
<event>
      5   9999  3.19816E-02  1.18241E+03 -1.00000E+00  8.92778E-02
       2    -1     0     0   502     0  0.000000000E+00  0.000000000E+00  1.666544893E+03  1.666544893E+03  0.000000000E+00  0.00000E+00  9.000E+00
      21    -1     0     0   501   502  0.000000000E+00  0.000000000E+00 -2.911740606E+03  2.911740606E+03  0.000000000E+00  0.00000E+00  9.000E+00
      25     1     1     2     0     0  1.616970896E+03 -6.492349803E+02 -4.292144126E+02  1.798874913E+03  1.250000000E+02  0.00000E+00  9.000E+00
      25     1     1     2     0     0 -5.472772092E+02  1.153076086E+03 -9.406347862E+02  1.590445097E+03  1.250000000E+02  0.00000E+00  9.000E+00
       2     1     1     2   501     0 -1.069693687E+03 -5.038411060E+02  1.246534851E+02  1.188965490E+03  1.651812370E-05  0.00000E+00  9.000E+00
#rwgt            2          18   8.5868155107282238E-004           8       57917           0
</event>
<event>
      5   9999  3.19816E-02  5.31564E+01 -1.00000E+00  1.37575E-01
      21    -1     0     0   511   501  0.000000000E+00  0.000000000E+00  4.334259939E+02  4.334259939E+02  0.000000000E+00  0.00000E+00  9.000E+00
      21    -1     0     0   501   502  0.000000000E+00  0.000000000E+00 -1.652259912E+02  1.652259912E+02  0.000000000E+00  0.00000E+00  9.000E+00
      25     1     1     2     0     0 -2.992864744E+01  1.481670336E+02 -4.317248284E+01  2.008433645E+02  1.250000000E+02  0.00000E+00  9.000E+00
      25     1     1     2     0     0  7.846919366E+01 -1.265010023E+02  2.413170145E+02  3.098690359E+02  1.250000000E+02  0.00000E+00  9.000E+00
      21     1     1     2   511   502 -4.854054622E+01 -2.166603135E+01  7.005547108E+01  8.793958477E+01  1.348699152E-06  0.00000E+00  9.000E+00
#rwgt            1           1   2.8596610924315750E-002           8       57936           0
</event>
<event>
      5   9999  3.19816E-02  1.44901E+01 -1.00000E+00  1.78810E-01
      21    -1     0     0   512   501  0.000000000E+00  0.000000000E+00  1.907628655E+02  1.907628655E+02  0.000000000E+00  0.00000E+00  9.000E+00
      21    -1     0     0   501   502  0.000000000E+00  0.000000000E+00 -2.402019746E+02  2.402019746E+02  0.000000000E+00  0.00000E+00  9.000E+00
      25     1     1     2     0     0 -1.545543052E+01  9.731485040E+01 -8.847646207E+01  1.821047357E+02  1.250000000E+02  0.00000E+00  9.000E+00
      25     1     1     2     0     0  2.022972870E+00 -9.188061635E+01 -4.660748751E+01  1.619981419E+02  1.250000000E+02  0.00000E+00  9.000E+00
      21     1     1     2   512   502  1.343245765E+01 -5.434234051E+00  8.564484051E+01  8.686196247E+01  9.536743164E-07  0.00000E+00  9.000E+00
#rwgt            1           1   7.3285185134955161E-002           8       58005           0
</event>
<event>
      5   9999  3.19816E-02  1.07020E+02 -1.00000E+00  1.22517E-01
      21    -1     0     0   502   501  0.000000000E+00  0.000000000E+00  1.343158252E+02  1.343158252E+02  0.000000000E+00  0.00000E+00  9.000E+00
       2    -1     0     0   501     0  0.000000000E+00  0.000000000E+00 -1.145984970E+03  1.145984970E+03  0.000000000E+00  0.00000E+00  9.000E+00
      25     1     1     2     0     0 -1.537228003E+02 -7.518883512E+01  9.558181043E+00  2.121330221E+02  1.250000000E+02  0.00000E+00  9.000E+00
      25     1     1     2     0     0  1.502485806E+02 -3.177469892E+01 -5.393637361E+02  5.745628836E+02  1.250000000E+02  0.00000E+00  9.000E+00
       2     1     1     2   502     0  3.474219702E+00  1.069635340E+02 -4.818635896E+02  4.936048894E+02  5.394796609E-06  0.00000E+00  9.000E+00
#rwgt            1           1   2.8493427949756622E-002           8       58146           0
</event>
<event>
      5   9999  3.19816E-02  1.11260E+01 -1.00000E+00  1.90549E-01
      21    -1     0     0   502   511  0.000000000E+00  0.000000000E+00  4.503910942E+02  4.503910942E+02  0.000000000E+00  0.00000E+00  9.000E+00
      21    -1     0     0   501   502  0.000000000E+00  0.000000000E+00 -8.496225719E+01  8.496225719E+01  0.000000000E+00  0.00000E+00  9.000E+00
      25     1     1     2     0     0 -4.799928504E+01 -4.794152748E+01  3.281406226E+02  3.576361134E+02  1.250000000E+02  0.00000E+00  9.000E+00
      25     1     1     2     0     0  5.018747313E+01  3.703287844E+01  9.354545218E-01  1.397000058E+02  1.250000000E+02  0.00000E+00  9.000E+00
      21     1     1     2   501   511 -2.188188090E+00  1.090864904E+01  3.635275994E+01  3.801723223E+01  4.768371582E-07  0.00000E+00  9.000E+00
#rwgt            1           1   2.8610177585529563E-002           8       58203           0
</event>
<event>
      5   9999  3.19816E-02  9.00450E+00 -1.00000E+00  2.01173E-01
      21    -1     0     0   502   512  0.000000000E+00  0.000000000E+00  3.975992162E+02  3.975992162E+02  0.000000000E+00  0.00000E+00  9.000E+00
      21    -1     0     0   501   502  0.000000000E+00  0.000000000E+00 -1.911176030E+02  1.911176030E+02  0.000000000E+00  0.00000E+00  9.000E+00
      25     1     1     2     0     0  1.145321735E+02  1.759688473E+02  1.899962652E+01  2.450890447E+02  1.250000000E+02  0.00000E+00  9.000E+00
      25     1     1     2     0     0 -1.184203771E+02 -1.840906032E+02  1.265809549E+02  2.820646629E+02  1.250000000E+02  0.00000E+00  9.000E+00
      21     1     1     2   501   512  3.888203615E+00  8.121755918E+00  6.090103177E+01  6.156311166E+01  6.743495762E-07  0.00000E+00  9.000E+00
#rwgt            1           1   2.7937684299717287E-002           8       58434           0
</event>
<event>
      5   9999  3.19816E-02  1.38920E+02 -1.00000E+00  1.17730E-01
      21    -1     0     0   511   501  0.000000000E+00  0.000000000E+00  8.252164496E+01  8.252164496E+01  0.000000000E+00  0.00000E+00  9.000E+00
      21    -1     0     0   501   502  0.000000000E+00  0.000000000E+00 -1.452154662E+03  1.452154662E+03  0.000000000E+00  0.00000E+00  9.000E+00
      25     1     1     2     0     0  1.849960929E+02  2.096579416E+02 -6.530736328E+02  7.213252919E+02  1.250000000E+02  0.00000E+00  9.000E+00
      25     1     1     2     0     0 -4.820201478E+01 -1.854491257E+02 -5.548437279E+02  6.001594578E+02  1.250000000E+02  0.00000E+00  9.000E+00
      21     1     1     2   511   502 -1.367940781E+02 -2.420881592E+01 -1.617156564E+02  2.131915573E+02  3.303624740E-06  0.00000E+00  9.000E+00
#rwgt            1           1   2.8211954385436059E-002           8       58668           0
</event>
<event>
      5   9999  3.19816E-02  8.32002E+01 -1.00000E+00  1.27530E-01
      21    -1     0     0   502   501  0.000000000E+00  0.000000000E+00  3.167997926E+02  3.167997926E+02  0.000000000E+00  0.00000E+00  9.000E+00
      21    -1     0     0   512   502  0.000000000E+00  0.000000000E+00 -9.697195173E+02  9.697195173E+02  0.000000000E+00  0.00000E+00  9.000E+00
      25     1     1     2     0     0  3.871062037E+01  2.342651274E+02 -1.100527674E+02  2.900263327E+02  1.250000000E+02  0.00000E+00  9.000E+00
      25     1     1     2     0     0 -7.399623079E+01 -1.589179082E+02  1.727598768E+02  2.760458635E+02  1.250000000E+02  0.00000E+00  9.000E+00
      21     1     1     2   512   501  3.528561042E+01 -7.534721919E+01 -7.156268342E+02  7.204471137E+02  1.321449896E-05  0.00000E+00  9.000E+00
#rwgt            1           1   2.8606492398014129E-002           8       58724           0
</event>
<event>
      5   9999  3.19816E-02  1.75473E+01 -1.00000E+00  1.71198E-01
      21    -1     0     0   502   501  0.000000000E+00  0.000000000E+00  1.497712699E+02  1.497712699E+02  0.000000000E+00  0.00000E+00  9.000E+00
      21    -1     0     0   511   502  0.000000000E+00  0.000000000E+00 -8.009118144E+02  8.009118144E+02  0.000000000E+00  0.00000E+00  9.000E+00
      25     1     1     2     0     0  1.200771639E+02 -9.560568703E+01 -4.830457152E+02  5.220317382E+02  1.250000000E+02  0.00000E+00  9.000E+00
      25     1     1     2     0     0 -1.055388289E+02  8.577997536E+01  6.430243330E+01  1.955925650E+02  1.250000000E+02  0.00000E+00  9.000E+00
      21     1     1     2   511   501 -1.453833507E+01  9.825711664E+00 -2.323972626E+02  2.330587811E+02  2.697398305E-06  0.00000E+00  9.000E+00
#rwgt            1           1   3.3632052947046298E-002           8       58776           0
</event>
<event>
      5   9999  3.19816E-02  1.34653E+02 -1.00000E+00  1.18282E-01
      21    -1     0     0   512   501  0.000000000E+00  0.000000000E+00  1.241072244E+03  1.241072244E+03  0.000000000E+00  0.00000E+00  9.000E+00
      21    -1     0     0   501   502  0.000000000E+00  0.000000000E+00 -2.982167755E+02  2.982167755E+02  0.000000000E+00  0.00000E+00  9.000E+00
      25     1     1     2     0     0  1.944478997E+02 -9.859060757E+01 -9.031122217E+01  2.670415894E+02  1.250000000E+02  0.00000E+00  9.000E+00
      25     1     1     2     0     0 -3.272608614E+02  7.640595952E+01  1.667577083E+02  3.954373216E+02  1.250000000E+02  0.00000E+00  9.000E+00
      21     1     1     2   512   502  1.328129617E+02  2.218464805E+01  8.664089821E+02  8.768101081E+02  1.525878906E-05  0.00000E+00  9.000E+00
#rwgt            2          11   2.1261849722397888E-003           8       58917           0
</event>
<event>
      5   9999  3.19816E-02  6.12166E+01 -1.00000E+00  1.34239E-01
      21    -1     0     0   511   501  0.000000000E+00  0.000000000E+00  1.481944237E+03  1.481944237E+03  0.000000000E+00  0.00000E+00  9.000E+00
      21    -1     0     0   501   502  0.000000000E+00  0.000000000E+00 -3.467944880E+02  3.467944880E+02  0.000000000E+00  0.00000E+00  9.000E+00
      25     1     1     2     0     0  3.434843304E+02  5.059145838E+02  7.940850069E+02  1.010013391E+03  1.250000000E+02  0.00000E+00  9.000E+00
      25     1     1     2     0     0 -3.405016832E+02 -5.670584458E+02  2.708988118E+02  7.256086021E+02  1.250000000E+02  0.00000E+00  9.000E+00
      21     1     1     2   511   502 -2.982647157E+00  6.114386191E+01  7.016593055E+01  9.311673235E+01  0.000000000E+00  0.00000E+00  9.000E+00
#rwgt            1           1   3.0133175241735484E-002           8       58937           0
</event>
<event>
      5   9999  3.19816E-02  3.66463E+02 -1.00000E+00  1.02843E-01
      21    -1     0     0   502   512  0.000000000E+00  0.000000000E+00  6.805094392E+02  6.805094392E+02  0.000000000E+00  0.00000E+00  9.000E+00
      21    -1     0     0   501   502  0.000000000E+00  0.000000000E+00 -1.777433272E+03  1.777433272E+03  0.000000000E+00  0.00000E+00  9.000E+00
      25     1     1     2     0     0 -3.859271822E+02 -5.362625367E+02 -1.049428487E+03  1.246371713E+03  1.250000000E+02  0.00000E+00  9.000E+00
      25     1     1     2     0     0  7.279996557E+02  4.048026828E+02 -6.404778380E+01  8.447341767E+02  1.250000000E+02  0.00000E+00  9.000E+00
      21     1     1     2   501   512 -3.420724736E+02  1.314598540E+02  1.655243770E+01  3.668368215E+02  3.716577832E-06  0.00000E+00  9.000E+00
#rwgt            2          11   4.8573404279650340E-003           8       59057           0
</event>
<event>
      5   9999  3.19816E-02  1.97802E+02 -1.00000E+00  1.11823E-01
      21    -1     0     0   502   511  0.000000000E+00  0.000000000E+00  7.149365558E+02  7.149365558E+02  0.000000000E+00  0.00000E+00  9.000E+00
      21    -1     0     0   501   502  0.000000000E+00  0.000000000E+00 -1.020927358E+03  1.020927358E+03  0.000000000E+00  0.00000E+00  9.000E+00
      25     1     1     2     0     0  1.962636100E+01  6.130093181E+02 -3.014587473E+02  6.947431140E+02  1.250000000E+02  0.00000E+00  9.000E+00
      25     1     1     2     0     0  1.292276300E+01 -8.081152892E+02 -9.553442098E+01  8.233888171E+02  1.250000000E+02  0.00000E+00  9.000E+00
      21     1     1     2   501   511 -3.254912400E+01  1.951059711E+02  9.100236643E+01  2.177319823E+02  4.046097457E-06  0.00000E+00  9.000E+00
#rwgt            1           1   3.5405652086663762E-002           8       59077           0
</event>
<event>
      5   9999  3.19816E-02  1.05359E+01 -1.00000E+00  1.93172E-01
      21    -1     0     0   512   501  0.000000000E+00  0.000000000E+00  5.220783388E+02  5.220783388E+02  0.000000000E+00  0.00000E+00  9.000E+00
      21    -1     0     0   501   502  0.000000000E+00  0.000000000E+00 -1.759144682E+02  1.759144682E+02  0.000000000E+00  0.00000E+00  9.000E+00
      25     1     1     2     0     0 -1.695635003E+02  7.362061186E+01 -6.110497588E+01  2.313667937E+02  1.250000000E+02  0.00000E+00  9.000E+00
      25     1     1     2     0     0  1.596748761E+02 -7.725660206E+01  3.923545076E+02  4.483655966E+02  1.250000000E+02  0.00000E+00  9.000E+00
      21     1     1     2   512   502  9.888624269E+00  3.635990203E+00  1.491433891E+01  1.826041675E+01  1.685873940E-07  0.00000E+00  9.000E+00
#rwgt            1           1   2.8122541538989704E-002           8       59213           0
</event>
<event>
      5   9999  3.19816E-02  7.29684E+00 -1.00000E+00  2.13036E-01
      21    -1     0     0   502   511  0.000000000E+00  0.000000000E+00  4.366679702E+02  4.366679702E+02  0.000000000E+00  0.00000E+00  9.000E+00
      21    -1     0     0   501   502  0.000000000E+00  0.000000000E+00 -2.325958601E+02  2.325958601E+02  0.000000000E+00  0.00000E+00  9.000E+00
      25     1     1     2     0     0  1.572022747E+02  1.433181303E+01  2.070090773E+02  2.887831611E+02  1.250000000E+02  0.00000E+00  9.000E+00
      25     1     1     2     0     0 -1.635496842E+02 -1.073260571E+01 -1.361722764E+02  2.470456980E+02  1.250000000E+02  0.00000E+00  9.000E+00
      21     1     1     2   501   511  6.347409473E+00 -3.599207318E+00  1.332353093E+02  1.334349712E+02  0.000000000E+00  0.00000E+00  9.000E+00
#rwgt            1           1   2.8057987901711001E-002           8       59463           0
</event>
<event>
      5   9999  3.19816E-02  1.39470E+02 -1.00000E+00  1.17660E-01
      -3    -1     0     0     0   501  0.000000000E+00  0.000000000E+00  2.127067924E+03  2.127067924E+03  0.000000000E+00  0.00000E+00  9.000E+00
      21    -1     0     0   501   502  0.000000000E+00  0.000000000E+00 -2.453826268E+02  2.453826268E+02  0.000000000E+00  0.00000E+00  9.000E+00
      25     1     1     2     0     0  1.637384011E+02 -2.242110331E+02  4.267358335E+02  5.242225892E+02  1.250000000E+02  0.00000E+00  9.000E+00
      25     1     1     2     0     0 -1.160374158E+02  9.315188521E+01 -1.448372485E+02  2.423732331E+02  1.250000000E+02  0.00000E+00  9.000E+00
      -3     1     1     2     0   502 -4.770098533E+01  1.310591479E+02  1.599786712E+03  1.605854728E+03  3.051757812E-05  0.00000E+00  9.000E+00
#rwgt            1           1   2.8789883869904109E-002           8       59685           0
</event>
<event>
      5   9999  3.19816E-02  9.65359E+00 -1.00000E+00  1.97544E-01
      21    -1     0     0   502   501  0.000000000E+00  0.000000000E+00  9.589117309E+01  9.589117309E+01  0.000000000E+00  0.00000E+00  9.000E+00
      21    -1     0     0   501   511  0.000000000E+00  0.000000000E+00 -9.342158605E+02  9.342158605E+02  0.000000000E+00  0.00000E+00  9.000E+00
      25     1     1     2     0     0  2.140265965E+01  2.212617529E+02 -2.534270041E+02  3.595345373E+02  1.250000000E+02  0.00000E+00  9.000E+00
      25     1     1     2     0     0 -2.513970145E+01 -2.123608315E+02 -3.160387459E+02  4.015403047E+02  1.250000000E+02  0.00000E+00  9.000E+00
      21     1     1     2   502   511  3.737041803E+00 -8.900921403E+00 -2.688589374E+02  2.690321916E+02  3.814697266E-06  0.00000E+00  9.000E+00
#rwgt            1           1   2.5267419212798552E-002           8       59752           0
</event>
<event>
      5   9999  3.19816E-02  2.71772E+01 -1.00000E+00  1.56082E-01
      21    -1     0     0   502   512  0.000000000E+00  0.000000000E+00  1.865600173E+02  1.865600173E+02  0.000000000E+00  0.00000E+00  9.000E+00
      21    -1     0     0   501   502  0.000000000E+00  0.000000000E+00 -2.420272847E+03  2.420272847E+03  0.000000000E+00  0.00000E+00  9.000E+00
      25     1     1     2     0     0  3.874277086E+02  3.889465630E+02 -4.662925098E+02  7.310494942E+02  1.250000000E+02  0.00000E+00  9.000E+00
      25     1     1     2     0     0 -4.145988980E+02 -3.883735483E+02 -1.748373414E+03  1.842596226E+03  1.250000000E+02  0.00000E+00  9.000E+00
      21     1     1     2   501   512  2.717118941E+01 -5.730147663E-01 -1.904690629E+01  3.318714388E+01  2.384185791E-07  0.00000E+00  9.000E+00
#rwgt            1           1   2.9035440581469504E-002           8       59949           0
</event>
<event>
      5   9999  3.19816E-02  9.03005E+01 -1.00000E+00  1.25854E-01
      21    -1     0     0   502   511  0.000000000E+00  0.000000000E+00  1.400713184E+02  1.400713184E+02  0.000000000E+00  0.00000E+00  9.000E+00
      21    -1     0     0   501   502  0.000000000E+00  0.000000000E+00 -4.763630409E+02  4.763630409E+02  0.000000000E+00  0.00000E+00  9.000E+00
      25     1     1     2     0     0 -6.966622103E+01 -9.139518483E+01 -1.706443101E+02  2.407300204E+02  1.250000000E+02  0.00000E+00  9.000E+00
      25     1     1     2     0     0  8.954342492E+01  1.794807776E+02 -1.596405935E+02  2.852043015E+02  1.250000000E+02  0.00000E+00  9.000E+00
      21     1     1     2   501   511 -1.987720389E+01 -8.808559281E+01 -6.006818948E+00  9.050003740E+01  6.637292341E-07  0.00000E+00  9.000E+00
#rwgt            1           1   2.7498770860867803E-002           8       60126           0
</event>
<event>
      5   9999  3.19816E-02  6.93881E+02 -1.00000E+00  9.49704E-02
       1    -1     0     0   502     0  0.000000000E+00  0.000000000E+00  2.787156855E+03  2.787156855E+03  0.000000000E+00  0.00000E+00  9.000E+00
      21    -1     0     0   501   502  0.000000000E+00  0.000000000E+00 -3.353764209E+02  3.353764209E+02  0.000000000E+00  0.00000E+00  9.000E+00
      25     1     1     2     0     0 -1.129543708E+01 -8.668982192E+02  1.111174458E+03  1.414911229E+03  1.250000000E+02  0.00000E+00  9.000E+00
      25     1     1     2     0     0  1.063030599E+02  1.795526186E+02  5.909060228E+01  2.503121704E+02  1.250000000E+02  0.00000E+00  9.000E+00
       1     1     1     2   501     0 -9.500762280E+01  6.873456006E+02  1.281515374E+03  1.457309877E+03  1.525878906E-05  0.00000E+00  9.000E+00
#rwgt            2          17   3.7112130087687227E-004           8       60303           0
</event>
<event>
      5   9999  3.19816E-02  1.01986E+02 -1.00000E+00  1.23445E-01
      21    -1     0     0   502   501  0.000000000E+00  0.000000000E+00  1.082414242E+03  1.082414242E+03  0.000000000E+00  0.00000E+00  9.000E+00
      21    -1     0     0   511   502  0.000000000E+00  0.000000000E+00 -6.008615141E+02  6.008615141E+02  0.000000000E+00  0.00000E+00  9.000E+00
      25     1     1     2     0     0  2.483458470E+02 -1.295486332E+02  8.087939200E+02  8.650035336E+02  1.250000000E+02  0.00000E+00  9.000E+00
      25     1     1     2     0     0 -3.208926712E+02  2.012297531E+02  7.278664771E+01  4.054484135E+02  1.250000000E+02  0.00000E+00  9.000E+00
      21     1     1     2   511   501  7.254682421E+01 -7.168111997E+01 -4.000278397E+02  4.128238089E+02  7.629394531E-06  0.00000E+00  9.000E+00
#rwgt            1           1   2.2028813801768066E-002           8       60322           0
</event>
<event>
      5   9999  3.19816E-02  3.90428E+01 -1.00000E+00  1.45496E-01
      21    -1     0     0   502   501  0.000000000E+00  0.000000000E+00  1.685329190E+02  1.685329190E+02  0.000000000E+00  0.00000E+00  9.000E+00
      21    -1     0     0   501   512  0.000000000E+00  0.000000000E+00 -4.471704475E+02  4.471704475E+02  0.000000000E+00  0.00000E+00  9.000E+00
      25     1     1     2     0     0  1.929193516E+02  3.113201019E+01 -8.269672662E+01  2.462738859E+02  1.250000000E+02  0.00000E+00  9.000E+00
      25     1     1     2     0     0 -2.181361588E+02 -6.093896655E+01 -1.224459619E+02  2.862078877E+02  1.250000000E+02  0.00000E+00  9.000E+00
      21     1     1     2   502   512  2.521680722E+01  2.980695636E+01 -7.349484005E+01  8.322159292E+01  1.348699152E-06  0.00000E+00  9.000E+00
#rwgt            1           1   2.7029479086698255E-002           8       60374           0
</event>
<event>
      5   9999  3.19816E-02  3.00453E+01 -1.00000E+00  1.52994E-01
      21    -1     0     0   502   501  0.000000000E+00  0.000000000E+00  5.992302237E+01  5.992302237E+01  0.000000000E+00  0.00000E+00  9.000E+00
      21    -1     0     0   511   502  0.000000000E+00  0.000000000E+00 -9.750781618E+02  9.750781618E+02  0.000000000E+00  0.00000E+00  9.000E+00
      25     1     1     2     0     0  5.210398270E+01 -6.592529190E+01 -6.661994477E+01  1.646942202E+02  1.250000000E+02  0.00000E+00  9.000E+00
      25     1     1     2     0     0 -7.813128916E+01  5.091533600E+01 -7.805667039E+02  7.959938750E+02  1.250000000E+02  0.00000E+00  9.000E+00
      21     1     1     2   511   501  2.602730646E+01  1.500995589E+01 -6.796849067E+01  7.431308889E+01  1.348699152E-06  0.00000E+00  9.000E+00
#rwgt            1           1   2.8061357860945255E-002           8       60452           0
</event>
<event>
      5   9999  3.19816E-02  6.12158E+01 -1.00000E+00  1.34239E-01
      21    -1     0     0   502   501  0.000000000E+00  0.000000000E+00  3.458726580E+02  3.458726580E+02  0.000000000E+00  0.00000E+00  9.000E+00
      21    -1     0     0   501   512  0.000000000E+00  0.000000000E+00 -1.852511072E+02  1.852511072E+02  0.000000000E+00  0.00000E+00  9.000E+00
      25     1     1     2     0     0  1.540893170E+01 -1.951109473E+02  6.381313691E+01  2.408377739E+02  1.250000000E+02  0.00000E+00  9.000E+00
      25     1     1     2     0     0 -4.800618699E+01  1.432959419E+02  1.138126534E+02  2.267523782E+02  1.250000000E+02  0.00000E+00  9.000E+00
      21     1     1     2   502   512  3.259725529E+01  5.181500536E+01 -1.700423947E+01  6.353361309E+01  6.743495762E-07  0.00000E+00  9.000E+00
#rwgt            1           1   2.8196494821563219E-002           8       60527           0
</event>
<event>
      5   9999  3.19816E-02  8.48198E+01 -1.00000E+00  1.27132E-01
       1    -1     0     0   502     0  0.000000000E+00  0.000000000E+00  1.571884397E+03  1.571884397E+03  0.000000000E+00  0.00000E+00  9.000E+00
      21    -1     0     0   501   502  0.000000000E+00  0.000000000E+00 -1.750153033E+02  1.750153033E+02  0.000000000E+00  0.00000E+00  9.000E+00
      25     1     1     2     0     0 -1.691661109E+02 -1.755266433E+01  5.951955416E+01  2.193008126E+02  1.250000000E+02  0.00000E+00  9.000E+00
      25     1     1     2     0     0  2.192360056E+02 -5.091194169E+01  8.316729488E+01  2.705517527E+02  1.250000000E+02  0.00000E+00  9.000E+00
       1     1     1     2   501     0 -5.006989469E+01  6.846460602E+01  1.254182244E+03  1.257047135E+03  1.525878906E-05  0.00000E+00  9.000E+00
#rwgt            1           1   3.1198628114313801E-002           8       60603           0
</event>
<event>
      5   9999  3.19816E-02  1.40367E+02 -1.00000E+00  1.17548E-01
       2    -1     0     0   502     0  0.000000000E+00  0.000000000E+00  1.415282631E+03  1.415282631E+03  0.000000000E+00  0.00000E+00  9.000E+00
      21    -1     0     0   501   502  0.000000000E+00  0.000000000E+00 -7.742576887E+01  7.742576887E+01  0.000000000E+00  0.00000E+00  9.000E+00
      25     1     1     2     0     0  1.891359246E+02  7.595114237E+01  7.429895611E+02  7.805123073E+02  1.250000000E+02  0.00000E+00  9.000E+00
      25     1     1     2     0     0 -8.629779097E+01 -1.714872305E+02  4.760114947E+02  5.282680400E+02  1.250000000E+02  0.00000E+00  9.000E+00
       2     1     1     2   501     0 -1.028381336E+02  9.553608816E+01  1.188558066E+02  1.839280528E+02  3.303624740E-06  0.00000E+00  9.000E+00
#rwgt            1           1   2.9354869824192643E-002           8       60674           0
</event>
<event>
      5   9999  3.19816E-02  5.59371E+01 -1.00000E+00  1.36351E-01
      21    -1     0     0   502   511  0.000000000E+00  0.000000000E+00  2.029193817E+03  2.029193817E+03  0.000000000E+00  0.00000E+00  9.000E+00
      21    -1     0     0   501   502  0.000000000E+00  0.000000000E+00 -1.099143438E+02  1.099143438E+02  0.000000000E+00  0.00000E+00  9.000E+00
      25     1     1     2     0     0  3.831456990E+01  1.669021429E+02  5.857164122E+00  2.120934651E+02  1.250000000E+02  0.00000E+00  9.000E+00
      25     1     1     2     0     0 -4.156325074E+01 -1.110594722E+02  1.481392865E+03  1.491379070E+03  1.250000000E+02  0.00000E+00  9.000E+00
      21     1     1     2   501   511  3.248680839E+00 -5.584267068E+01  4.320294442E+02  4.356356258E+02  5.394796609E-06  0.00000E+00  9.000E+00
#rwgt            1           1   2.4414507629055452E-002           8       60719           0
</event>
<event>
      5   9999  3.19816E-02  4.72685E+02 -1.00000E+00  9.95501E-02
      21    -1     0     0   502   501  0.000000000E+00  0.000000000E+00  2.320449717E+03  2.320449717E+03  0.000000000E+00  0.00000E+00  9.000E+00
      21    -1     0     0   512   502  0.000000000E+00  0.000000000E+00 -7.231648495E+02  7.231648495E+02  0.000000000E+00  0.00000E+00  9.000E+00
      25     1     1     2     0     0 -6.195565222E+02  3.036181192E+02  1.718043510E+03  1.855621930E+03  1.250000000E+02  0.00000E+00  9.000E+00
      25     1     1     2     0     0  6.605791548E+02  1.672836768E+02 -1.682167083E+02  7.129309288E+02  1.250000000E+02  0.00000E+00  9.000E+00
      21     1     1     2   512   501 -4.102263264E+01 -4.709017961E+02  4.745806605E+01  4.750617075E+02  2.132480600E-06  0.00000E+00  9.000E+00
#rwgt            1           1   2.9537374550969570E-002           8       60862           0
</event>
<event>
      5   9999  3.19816E-02  2.13530E+01 -1.00000E+00  1.64057E-01
      21    -1     0     0   502   501  0.000000000E+00  0.000000000E+00  1.620830439E+02  1.620830439E+02  0.000000000E+00  0.00000E+00  9.000E+00
       2    -1     0     0   501     0  0.000000000E+00  0.000000000E+00 -1.013040697E+03  1.013040697E+03  0.000000000E+00  0.00000E+00  9.000E+00
      25     1     1     2     0     0 -4.509130990E+01  1.327098531E+02 -4.331097855E+02  4.720743772E+02  1.250000000E+02  0.00000E+00  9.000E+00
      25     1     1     2     0     0  2.675455788E+01 -1.436512817E+02  7.744075254E+01  2.073006688E+02  1.250000000E+02  0.00000E+00  9.000E+00
       2     1     1     2   502     0  1.833675202E+01  1.094142869E+01 -4.952886201E+02  4.957486950E+02  0.000000000E+00  0.00000E+00  9.000E+00
#rwgt            1           1   3.2943750909246221E-002           8       60916           0
</event>
<event>
      5   9999  3.19816E-02  5.14475E+00 -1.00000E+00  2.36371E-01
      21    -1     0     0   502   501  0.000000000E+00  0.000000000E+00  6.421892493E+02  6.421892493E+02  0.000000000E+00  0.00000E+00  9.000E+00
      21    -1     0     0   501   511  0.000000000E+00  0.000000000E+00 -1.197743530E+02  1.197743530E+02  0.000000000E+00  0.00000E+00  9.000E+00
      25     1     1     2     0     0 -5.737538824E+01  7.379741688E+01  5.507196507E+02  5.724116767E+02  1.250000000E+02  0.00000E+00  9.000E+00
      25     1     1     2     0     0  5.810637142E+01 -6.870486356E+01  6.706707580E+00  1.541644855E+02  1.250000000E+02  0.00000E+00  9.000E+00
      21     1     1     2   502   511 -7.309831749E-01 -5.092553314E+00 -3.501146203E+01  3.538743999E+01  1.261592536E-06  0.00000E+00  9.000E+00
#rwgt            1           1   2.8525675227463888E-002           8       61063           0
</event>
<event>
      5   9999  3.19816E-02  2.67532E+01 -1.00000E+00  1.56577E-01
      21    -1     0     0   502   512  0.000000000E+00  0.000000000E+00  8.222438849E+02  8.222438849E+02  0.000000000E+00  0.00000E+00  9.000E+00
      21    -1     0     0   501   502  0.000000000E+00  0.000000000E+00 -2.980911660E+02  2.980911660E+02  0.000000000E+00  0.00000E+00  9.000E+00
      25     1     1     2     0     0  7.514358346E+01 -1.052201689E+02 -1.723096712E+02  2.490651820E+02  1.250000000E+02  0.00000E+00  9.000E+00
      25     1     1     2     0     0 -7.304762769E+01  1.318911057E+02  2.290603872E+01  1.971824188E+02  1.250000000E+02  0.00000E+00  9.000E+00
      21     1     1     2   501   512 -2.095955773E+00 -2.667093675E+01  6.735563514E+02  6.740874501E+02  0.000000000E+00  0.00000E+00  9.000E+00
#rwgt            1           1   2.4963073925781041E-002           8       61361           0
</event>
<event>
      5   9999  3.19816E-02  5.61481E+01 -1.00000E+00  1.36262E-01
      21    -1     0     0   502   511  0.000000000E+00  0.000000000E+00  1.601909990E+03  1.601909990E+03  0.000000000E+00  0.00000E+00  9.000E+00
      21    -1     0     0   501   502  0.000000000E+00  0.000000000E+00 -3.892209153E+02  3.892209153E+02  0.000000000E+00  0.00000E+00  9.000E+00
      25     1     1     2     0     0 -2.109999294E+02 -2.917976858E+02  4.834736981E+02  6.156611702E+02  1.250000000E+02  0.00000E+00  9.000E+00
      25     1     1     2     0     0  1.792460449E+02  3.381042913E+02 -1.965549112E+02  4.479983142E+02  1.250000000E+02  0.00000E+00  9.000E+00
      21     1     1     2   501   511  3.175388455E+01 -4.630660551E+01  9.257702881E+02  9.274714213E+02  1.078959322E-05  0.00000E+00  9.000E+00
#rwgt            1           1   2.9231819868852458E-002           8       61448           0
</event>
<event>
      5   9999  4.07480E-02  1.19244E+01 -1.00000E+00  1.87317E-01
      21    -1     0     0   502   501  0.000000000E+00  0.000000000E+00  8.205387351E+02  8.205387351E+02  0.000000000E+00  0.00000E+00  9.000E+00
      21    -1     0     0   512   502  0.000000000E+00  0.000000000E+00 -1.353841595E+03  1.353841595E+03  0.000000000E+00  0.00000E+00  9.000E+00
      25     1     1     2     0     0 -1.368391757E+01  8.328630222E+02 -8.969888469E+02  1.230472289E+03  1.250000000E+02  0.00000E+00  9.000E+00
      25     1     1     2     0     0  2.523067464E+01 -8.358400311E+02  3.772436713E+02  9.258525433E+02  1.250000000E+02  0.00000E+00  9.000E+00
      21     1     1     2   512   501 -1.154675708E+01  2.977008908E+00 -1.355768388E+01  1.805549704E+01  2.920019320E-07  0.00000E+00  9.000E+00
#rwgt            1           1   4.5293833260684341E-002           8       61573           0
</event>
<event>
      5   9999  3.19816E-02  5.20950E+01 -1.00000E+00  1.38066E-01
      21    -1     0     0   502   511  0.000000000E+00  0.000000000E+00  2.025243951E+02  2.025243951E+02  0.000000000E+00  0.00000E+00  9.000E+00
      21    -1     0     0   501   502  0.000000000E+00  0.000000000E+00 -5.093606411E+02  5.093606411E+02  0.000000000E+00  0.00000E+00  9.000E+00
      25     1     1     2     0     0  4.700520714E+01  2.237377904E+02 -2.733999928E+02  3.776779639E+02  1.250000000E+02  0.00000E+00  9.000E+00
      25     1     1     2     0     0 -9.904364429E+01 -2.261650153E+02 -4.620228983E+01  2.805706849E+02  1.250000000E+02  0.00000E+00  9.000E+00
      21     1     1     2   501   511  5.203843716E+01  2.427224995E+00  1.276603671E+01  5.363638743E+01  1.710975181E-06  0.00000E+00  9.000E+00
#rwgt            1           1   2.8037142211977579E-002           8       61897           0
</event>
<event>
      5   9999  3.19816E-02  3.74414E+01 -1.00000E+00  1.46643E-01
      21    -1     0     0   502   501  0.000000000E+00  0.000000000E+00  3.024159967E+02  3.024159967E+02  0.000000000E+00  0.00000E+00  9.000E+00
      21    -1     0     0   501   512  0.000000000E+00  0.000000000E+00 -4.521898910E+02  4.521898910E+02  0.000000000E+00  0.00000E+00  9.000E+00
      25     1     1     2     0     0  2.453373284E+01 -3.219718085E+02 -6.452946720E+01  3.522169809E+02  1.250000000E+02  0.00000E+00  9.000E+00
      25     1     1     2     0     0  1.259153460E+01  3.268269209E+02 -5.537696804E+01  3.544939936E+02  1.250000000E+02  0.00000E+00  9.000E+00
      21     1     1     2   502   512 -3.712526745E+01 -4.855112385E+00 -2.986745903E+01  4.789491318E+01  6.743495762E-07  0.00000E+00  9.000E+00
#rwgt            1           1   2.8253127795686426E-002           8       61994           0
</event>
<event>
      5   9999  3.19816E-02  6.63702E+01 -1.00000E+00  1.32403E-01
      21    -1     0     0   502   501  0.000000000E+00  0.000000000E+00  1.458938422E+02  1.458938422E+02  0.000000000E+00  0.00000E+00  9.000E+00
       2    -1     0     0   501     0  0.000000000E+00  0.000000000E+00 -2.748547135E+03  2.748547135E+03  0.000000000E+00  0.00000E+00  9.000E+00
      25     1     1     2     0     0  2.008564992E+02  1.009774827E+02 -1.210326824E+02  2.842774973E+02  1.250000000E+02  0.00000E+00  9.000E+00
      25     1     1     2     0     0 -2.652291445E+02 -8.481665996E+01 -3.014938764E+02  4.290267153E+02  1.250000000E+02  0.00000E+00  9.000E+00
       2     1     1     2   502     0  6.437264536E+01 -1.616082273E+01 -2.180126734E+03  2.181136765E+03  0.000000000E+00  0.00000E+00  9.000E+00
#rwgt            1           1   3.0746002215928360E-002           8       62122           0
</event>
<event>
      5   9999  3.19816E-02  8.45924E+01 -1.00000E+00  1.27187E-01
      21    -1     0     0   502   501  0.000000000E+00  0.000000000E+00  1.039169928E+03  1.039169928E+03  0.000000000E+00  0.00000E+00  9.000E+00
       1    -1     0     0   501     0  0.000000000E+00  0.000000000E+00 -1.626663550E+03  1.626663550E+03  0.000000000E+00  0.00000E+00  9.000E+00
      25     1     1     2     0     0  6.418857121E+02  6.421711920E+02 -1.125098743E+02  9.234092154E+02  1.250000000E+02  0.00000E+00  9.000E+00
      25     1     1     2     0     0 -6.102373481E+02 -5.637221538E+02  3.521780030E+02  9.109482057E+02  1.250000000E+02  0.00000E+00  9.000E+00
       1     1     1     2   502     0 -3.164836399E+01 -7.844903817E+01 -8.271617508E+02  8.314760565E+02  1.078959322E-05  0.00000E+00  9.000E+00
#rwgt            1           1   3.2812257457239834E-002           8       62242           0
</event>
<event>
      5   9999  3.19816E-02  6.31867E+02 -1.00000E+00  9.60474E-02
      21    -1     0     0   502   501  0.000000000E+00  0.000000000E+00  1.541232281E+03  1.541232281E+03  0.000000000E+00  0.00000E+00  9.000E+00
      21    -1     0     0   511   502  0.000000000E+00  0.000000000E+00 -7.495625394E+02  7.495625394E+02  0.000000000E+00  0.00000E+00  9.000E+00
      25     1     1     2     0     0 -1.838457291E+02 -2.723098512E+02 -2.454342014E+01  3.523908152E+02  1.250000000E+02  0.00000E+00  9.000E+00
      25     1     1     2     0     0 -6.171081522E+01  8.545111907E+02  9.575321935E+02  1.290926218E+03  1.250000000E+02  0.00000E+00  9.000E+00
      21     1     1     2   511   501  2.455565443E+02 -5.822013394E+02 -1.413190314E+02  6.474777871E+02  1.044697871E-05  0.00000E+00  9.000E+00
#rwgt            2          11   1.8820416356577288E-003           8       62388           0
</event>
<event>
      5   9999  3.19816E-02  9.04087E+01 -1.00000E+00  1.25830E-01
      21    -1     0     0   512   501  0.000000000E+00  0.000000000E+00  1.664171716E+02  1.664171716E+02  0.000000000E+00  0.00000E+00  9.000E+00
      21    -1     0     0   501   502  0.000000000E+00  0.000000000E+00 -5.504602763E+02  5.504602763E+02  0.000000000E+00  0.00000E+00  9.000E+00
      25     1     1     2     0     0 -1.678445804E+02  1.136041379E+02 -1.159441640E+02  2.648504342E+02  1.250000000E+02  0.00000E+00  9.000E+00
      25     1     1     2     0     0  1.322501270E+02 -1.967111367E+02 -2.327933863E+02  3.549691931E+02  1.250000000E+02  0.00000E+00  9.000E+00
      21     1     1     2   512   502  3.559445346E+01  8.310699876E+01 -3.530555443E+01  9.705782057E+01  9.536743164E-07  0.00000E+00  9.000E+00
#rwgt            1           1   2.8494307497144461E-002           8       62408           0
</event>
<event>
      5   9999  3.19816E-02  4.36060E+01 -1.00000E+00  1.42553E-01
      21    -1     0     0   502   501  0.000000000E+00  0.000000000E+00  5.788440655E+01  5.788440655E+01  0.000000000E+00  0.00000E+00  9.000E+00
       2    -1     0     0   501     0  0.000000000E+00  0.000000000E+00 -2.413969088E+03  2.413969088E+03  0.000000000E+00  0.00000E+00  9.000E+00
      25     1     1     2     0     0 -8.024512382E+01  1.873889320E+02 -6.957702825E+02  7.357140598E+02  1.250000000E+02  0.00000E+00  9.000E+00
      25     1     1     2     0     0  4.506586070E+01 -1.616226913E+02 -2.536977300E+02  3.288470227E+02  1.250000000E+02  0.00000E+00  9.000E+00
       2     1     1     2   502     0  3.517926313E+01 -2.576624071E+01 -1.406616669E+03  1.407292413E+03  0.000000000E+00  0.00000E+00  9.000E+00
#rwgt            1           1   3.1903838888986499E-002           8       62485           0
</event>
<event>
      5   9999  3.19816E-02  5.75606E+01 -1.00000E+00  1.35674E-01
      21    -1     0     0   511   501  0.000000000E+00  0.000000000E+00  1.462892844E+03  1.462892844E+03  0.000000000E+00  0.00000E+00  9.000E+00
      21    -1     0     0   501   502  0.000000000E+00  0.000000000E+00 -1.312347550E+02  1.312347550E+02  0.000000000E+00  0.00000E+00  9.000E+00
      25     1     1     2     0     0  2.353058753E+02 -2.057430643E+02  2.805566724E+02  4.382192487E+02  1.250000000E+02  0.00000E+00  9.000E+00
      25     1     1     2     0     0 -2.007295853E+02  1.597245209E+02  3.461371200E+02  4.485980326E+02  1.250000000E+02  0.00000E+00  9.000E+00
      21     1     1     2   511   502 -3.457629000E+01  4.601854347E+01  7.049642965E+02  7.073103177E+02  1.078959322E-05  0.00000E+00  9.000E+00
#rwgt            1           1   2.8318173174963941E-002           8       62594           0
</event>
<event>
      5   9999  3.19816E-02  9.73390E+01 -1.00000E+00  1.24357E-01
      21    -1     0     0   502   501  0.000000000E+00  0.000000000E+00  2.689927448E+02  2.689927448E+02  0.000000000E+00  0.00000E+00  9.000E+00
      21    -1     0     0   501   512  0.000000000E+00  0.000000000E+00 -1.283620039E+03  1.283620039E+03  0.000000000E+00  0.00000E+00  9.000E+00
      25     1     1     2     0     0 -2.065967077E+02 -4.741458492E+01  1.211654530E+02  2.742925619E+02  1.250000000E+02  0.00000E+00  9.000E+00
      25     1     1     2     0     0  1.754831031E+02 -4.481789403E+01 -1.065792667E+02  2.445140143E+02  1.250000000E+02  0.00000E+00  9.000E+00
      21     1     1     2   502   512  3.111360461E+01  9.223247896E+01 -1.029213480E+03  1.033806207E+03  1.525878906E-05  0.00000E+00  9.000E+00
#rwgt            2          11   2.7556814045178609E-003           8       62769           0
</event>
<event>
      5   9999  3.19816E-02  8.49035E+01 -1.00000E+00  1.27111E-01
      21    -1     0     0   502   511  0.000000000E+00  0.000000000E+00  1.047632651E+02  1.047632651E+02  0.000000000E+00  0.00000E+00  9.000E+00
      21    -1     0     0   501   502  0.000000000E+00  0.000000000E+00 -2.871861648E+03  2.871861648E+03  0.000000000E+00  0.00000E+00  9.000E+00
      25     1     1     2     0     0  2.460924100E+01 -4.183876802E+02 -9.129711337E+02  1.012321667E+03  1.250000000E+02  0.00000E+00  9.000E+00
      25     1     1     2     0     0 -3.110295393E+01  5.030424696E+02 -1.770702052E+03  1.845272305E+03  1.250000000E+02  0.00000E+00  9.000E+00
      21     1     1     2   501   511  6.493712932E+00 -8.465478942E+01 -8.342519717E+01  1.190309422E+02  1.348699152E-06  0.00000E+00  9.000E+00
#rwgt            1           1   6.3241101287416862E-002           8       62789           0
</event>
<event>
      5   9999  3.19816E-02  6.24623E+01 -1.00000E+00  1.33777E-01
      21    -1     0     0   502   501  0.000000000E+00  0.000000000E+00  9.729851045E+02  9.729851045E+02  0.000000000E+00  0.00000E+00  9.000E+00
      21    -1     0     0   501   512  0.000000000E+00  0.000000000E+00 -1.106067301E+02  1.106067301E+02  0.000000000E+00  0.00000E+00  9.000E+00
      25     1     1     2     0     0 -2.009624932E+02 -3.482088003E+01  7.784163239E+01  2.515606032E+02  1.250000000E+02  0.00000E+00  9.000E+00
      25     1     1     2     0     0  1.490319078E+02  1.112457143E-01  7.024391686E+02  7.288733138E+02  1.250000000E+02  0.00000E+00  9.000E+00
      21     1     1     2   502   512  5.193058545E+01  3.470963431E+01  8.209757335E+01  1.031579176E+02  1.348699152E-06  0.00000E+00  9.000E+00
#rwgt            1           1   3.1698104853090270E-002           8       62866           0
</event>
<event>
      5   9999  3.19816E-02  1.10201E+02 -1.00000E+00  1.21960E-01
      21    -1     0     0   502   501  0.000000000E+00  0.000000000E+00  5.513276557E+02  5.513276557E+02  0.000000000E+00  0.00000E+00  9.000E+00
      -4    -1     0     0     0   502  0.000000000E+00  0.000000000E+00 -4.588073087E+02  4.588073087E+02  0.000000000E+00  0.00000E+00  9.000E+00
      25     1     1     2     0     0 -1.694281640E+01  1.004314730E+02  4.563316934E+02  4.839805308E+02  1.250000000E+02  0.00000E+00  9.000E+00
      25     1     1     2     0     0 -4.452843589E+01 -1.918953013E+02 -1.285860328E+02  2.663943620E+02  1.250000000E+02  0.00000E+00  9.000E+00
      -4     1     1     2     0   501  6.147125229E+01  9.146382824E+01 -2.352253135E+02  2.597600717E+02  4.672030912E-06  0.00000E+00  9.000E+00
#rwgt            1           1   2.8426732348566748E-002           8       62933           0
</event>
<event>
      5   9999  3.19816E-02  5.24165E+01 -1.00000E+00  1.37916E-01
      21    -1     0     0   502   501  0.000000000E+00  0.000000000E+00  6.037085952E+02  6.037085952E+02  0.000000000E+00  0.00000E+00  9.000E+00
      21    -1     0     0   501   511  0.000000000E+00  0.000000000E+00 -8.968135184E+02  8.968135184E+02  0.000000000E+00  0.00000E+00  9.000E+00
      25     1     1     2     0     0  3.047465809E+01  2.407542786E+02  5.246016920E+02  5.913740463E+02  1.250000000E+02  0.00000E+00  9.000E+00
      25     1     1     2     0     0  8.023794021E+00 -2.051824475E+02 -2.806162719E+02  3.695060353E+02  1.250000000E+02  0.00000E+00  9.000E+00
      21     1     1     2   502   511 -3.849845211E+01 -3.557183105E+01 -5.370903432E+02  5.396420320E+02  0.000000000E+00  0.00000E+00  9.000E+00
#rwgt            1           1   2.8959041739124905E-002           8       62998           0
</event>
<event>
      5   9999  3.19816E-02  2.20842E+02 -1.00000E+00  1.10103E-01
      21    -1     0     0   502   501  0.000000000E+00  0.000000000E+00  1.282239607E+03  1.282239607E+03  0.000000000E+00  0.00000E+00  9.000E+00
      21    -1     0     0   501   512  0.000000000E+00  0.000000000E+00 -9.913194894E+02  9.913194894E+02  0.000000000E+00  0.00000E+00  9.000E+00
      25     1     1     2     0     0 -2.512003121E+02 -7.152826407E+02  2.934768911E+02  8.224868014E+02  1.250000000E+02  0.00000E+00  9.000E+00
      25     1     1     2     0     0  4.242586568E+02  5.780894790E+02  5.128090339E+02  8.903824790E+02  1.250000000E+02  0.00000E+00  9.000E+00
      21     1     1     2   502   512 -1.730583447E+02  1.371931617E+02 -5.153658075E+02  5.606898160E+02  0.000000000E+00  0.00000E+00  9.000E+00
#rwgt            2          11   4.0907112628202165E-003           8       63214           0
</event>
<event>
      5   9999  3.19816E-02  3.73260E+01 -1.00000E+00  1.46729E-01
      21    -1     0     0   511   501  0.000000000E+00  0.000000000E+00  2.622550444E+02  2.622550444E+02  0.000000000E+00  0.00000E+00  9.000E+00
      21    -1     0     0   501   502  0.000000000E+00  0.000000000E+00 -2.317962745E+02  2.317962745E+02  0.000000000E+00  0.00000E+00  9.000E+00
      25     1     1     2     0     0  8.468961557E+01  4.333044820E+01 -1.673342017E+02  2.295116420E+02  1.250000000E+02  0.00000E+00  9.000E+00
      25     1     1     2     0     0 -5.488510343E+01 -2.086001841E+01  1.611986505E+02  2.122675667E+02  1.250000000E+02  0.00000E+00  9.000E+00
      21     1     1     2   511   502 -2.980451214E+01 -2.247042979E+01  3.659432112E+01  5.227211013E+01  4.768371582E-07  0.00000E+00  9.000E+00
#rwgt            1           1   2.9606466211916014E-002           8       63249           0
</event>
<event>
      5   9999  3.19816E-02  1.85001E+02 -1.00000E+00  1.12895E-01
      21    -1     0     0   502   512  0.000000000E+00  0.000000000E+00  5.796264825E+02  5.796264825E+02  0.000000000E+00  0.00000E+00  9.000E+00
      21    -1     0     0   501   502  0.000000000E+00  0.000000000E+00 -2.177376718E+03  2.177376718E+03  0.000000000E+00  0.00000E+00  9.000E+00
      25     1     1     2     0     0  9.365786830E+02 -3.967822893E+02 -4.397557980E+02  1.115179796E+03  1.250000000E+02  0.00000E+00  9.000E+00
      25     1     1     2     0     0 -7.560506753E+02  3.563483359E+02 -1.184345227E+03  1.454955456E+03  1.250000000E+02  0.00000E+00  9.000E+00
      21     1     1     2   501   512 -1.805280077E+02  4.043395339E+01  2.635079044E+01  1.868679489E+02  2.996875069E-06  0.00000E+00  9.000E+00
#rwgt            1           1   4.1294827941764631E-002           8       63433           0
</event>
<event>
      5   9999  3.19816E-02  1.44869E+02 -1.00000E+00  1.16996E-01
      21    -1     0     0   502   501  0.000000000E+00  0.000000000E+00  4.434702527E+02  4.434702527E+02  0.000000000E+00  0.00000E+00  9.000E+00
       2    -1     0     0   501     0  0.000000000E+00  0.000000000E+00 -1.624944543E+03  1.624944543E+03  0.000000000E+00  0.00000E+00  9.000E+00
      25     1     1     2     0     0 -9.021591162E+01 -6.945055503E+02 -4.994201620E+02  8.692078971E+02  1.250000000E+02  0.00000E+00  9.000E+00
      25     1     1     2     0     0  5.238592157E+01  5.546631424E+02 -7.592741016E+01  5.760082099E+02  1.250000000E+02  0.00000E+00  9.000E+00
       2     1     1     2   502     0  3.782999005E+01  1.398424079E+02 -6.061267179E+02  6.231986885E+02  0.000000000E+00  0.00000E+00  9.000E+00
#rwgt            1           1   2.9453605769256739E-002           8       63475           0
</event>
<event>
      5   9999  3.19816E-02  1.22874E+01 -1.00000E+00  1.85954E-01
      21    -1     0     0   511   501  0.000000000E+00  0.000000000E+00  6.647132854E+02  6.647132854E+02  0.000000000E+00  0.00000E+00  9.000E+00
      21    -1     0     0   501   502  0.000000000E+00  0.000000000E+00 -9.085211278E+02  9.085211278E+02  0.000000000E+00  0.00000E+00  9.000E+00
      25     1     1     2     0     0 -4.653654052E+01 -3.725260928E+02 -2.927220764E+02  4.921915821E+02  1.250000000E+02  0.00000E+00  9.000E+00
      25     1     1     2     0     0  4.514721947E+01  3.847346801E+02 -4.357110367E+02  5.962618158E+02  1.250000000E+02  0.00000E+00  9.000E+00
      21     1     1     2   511   502  1.389321047E+00 -1.220858724E+01  4.846252707E+02  4.847810154E+02  1.078959322E-05  0.00000E+00  9.000E+00
#rwgt            1           1   2.8790631580896720E-002           8       63589           0
</event>
<event>
      5   9999  3.19816E-02  4.44672E+01 -1.00000E+00  1.42045E-01
      21    -1     0     0   502   501  0.000000000E+00  0.000000000E+00  1.906153201E+03  1.906153201E+03  0.000000000E+00  0.00000E+00  9.000E+00
      21    -1     0     0   501   512  0.000000000E+00  0.000000000E+00 -1.186839293E+02  1.186839293E+02  0.000000000E+00  0.00000E+00  9.000E+00
      25     1     1     2     0     0 -3.643497721E+02  1.392825191E+02  1.041845991E+03  1.119472396E+03  1.250000000E+02  0.00000E+00  9.000E+00
      25     1     1     2     0     0  3.439249431E+02 -1.787813172E+02  7.568758719E+02  8.594959054E+02  1.250000000E+02  0.00000E+00  9.000E+00
      21     1     1     2   502   512  2.042482897E+01  3.949879803E+01 -1.125259097E+01  4.586882915E+01  9.000103993E-07  0.00000E+00  9.000E+00
#rwgt            1           1   3.3249121645650359E-002           8       63816           0
</event>
<event>
      5   9999  3.19816E-02  7.40166E+00 -1.00000E+00  2.12185E-01
      21    -1     0     0   502   501  0.000000000E+00  0.000000000E+00  4.031240070E+02  4.031240070E+02  0.000000000E+00  0.00000E+00  9.000E+00
      21    -1     0     0   511   502  0.000000000E+00  0.000000000E+00 -9.095849856E+01  9.095849856E+01  0.000000000E+00  0.00000E+00  9.000E+00
      25     1     1     2     0     0 -7.537499691E+01  9.548444818E+01  6.352588586E+01  1.856319158E+02  1.250000000E+02  0.00000E+00  9.000E+00
      25     1     1     2     0     0  6.822344269E+01 -9.739228657E+01  2.462511090E+02  3.006730855E+02  1.250000000E+02  0.00000E+00  9.000E+00
      21     1     1     2   511   501  7.151554225E+00  1.907838385E+00  2.388513510E+00  7.777504222E+00  0.000000000E+00  0.00000E+00  9.000E+00
#rwgt            1           1   2.8586657871406043E-002           8       63965           0
</event>
<event>
      5   9999  3.19816E-02  1.62163E+02 -1.00000E+00  1.15067E-01
      21    -1     0     0   502   501  0.000000000E+00  0.000000000E+00  4.466550065E+02  4.466550065E+02  0.000000000E+00  0.00000E+00  9.000E+00
      -3    -1     0     0     0   502  0.000000000E+00  0.000000000E+00 -6.008523552E+02  6.008523552E+02  0.000000000E+00  0.00000E+00  9.000E+00
      25     1     1     2     0     0  9.291465373E+01 -1.490056092E+02  2.493490934E+02  3.295994157E+02  1.250000000E+02  0.00000E+00  9.000E+00
      25     1     1     2     0     0 -1.341229295E+02  3.058457976E+02 -9.449737862E+01  3.688975016E+02  1.250000000E+02  0.00000E+00  9.000E+00
      -3     1     1     2     0   501  4.120827576E+01 -1.568401884E+02 -3.090490634E+02  3.490104444E+02  0.000000000E+00  0.00000E+00  9.000E+00
#rwgt            1           1   2.6706239219340431E-002           8       64273           0
</event>
<event>
      5   9999  3.19816E-02  9.41376E+01 -1.00000E+00  1.25020E-01
      21    -1     0     0   502   501  0.000000000E+00  0.000000000E+00  3.760564409E+02  3.760564409E+02  0.000000000E+00  0.00000E+00  9.000E+00
       1    -1     0     0   501     0  0.000000000E+00  0.000000000E+00 -8.607730929E+02  8.607730929E+02  0.000000000E+00  0.00000E+00  9.000E+00
      25     1     1     2     0     0  2.006084113E+02  1.103136932E+02 -2.934782965E+02  3.926415109E+02  1.250000000E+02  0.00000E+00  9.000E+00
      25     1     1     2     0     0 -1.154972717E+02 -7.008958964E+01  2.956615275E+02  3.482713155E+02  1.250000000E+02  0.00000E+00  9.000E+00
       1     1     1     2   502     0 -8.511113959E+01 -4.022410352E+01 -4.868998831E+02  4.959167074E+02  0.000000000E+00  0.00000E+00  9.000E+00
#rwgt            1           1   3.4850463342683456E-002           8       64342           0
</event>
<event>
      5   9999  3.19816E-02  1.29937E+02 -1.00000E+00  1.18920E-01
      21    -1     0     0   502   501  0.000000000E+00  0.000000000E+00  4.257107816E+01  4.257107816E+01  0.000000000E+00  0.00000E+00  9.000E+00
      21    -1     0     0   501   511  0.000000000E+00  0.000000000E+00 -3.215782677E+03  3.215782677E+03  0.000000000E+00  0.00000E+00  9.000E+00
      25     1     1     2     0     0 -6.496383009E+01 -1.972399114E+02 -1.254404403E+03  1.277606860E+03  1.250000000E+02  0.00000E+00  9.000E+00
      25     1     1     2     0     0  1.053763895E+02  3.207323038E+02 -1.338115454E+03  1.385695263E+03  1.250000000E+02  0.00000E+00  9.000E+00
      21     1     1     2   502   511 -4.041255944E+01 -1.234923924E+02 -5.806917425E+02  5.950516328E+02  1.078959322E-05  0.00000E+00  9.000E+00
#rwgt            1           1   6.7947608457443770E-002           8       64419           0
</event>
<event>
      5   9999  3.19816E-02  8.60567E+01 -1.00000E+00  1.26834E-01
      21    -1     0     0   502   501  0.000000000E+00  0.000000000E+00  5.135407422E+02  5.135407422E+02  0.000000000E+00  0.00000E+00  9.000E+00
      21    -1     0     0   501   512  0.000000000E+00  0.000000000E+00 -3.004840478E+02  3.004840478E+02  0.000000000E+00  0.00000E+00  9.000E+00
      25     1     1     2     0     0  2.854599277E+02 -6.427421743E+01  1.347262408E+02  3.455353893E+02  1.250000000E+02  0.00000E+00  9.000E+00
      25     1     1     2     0     0 -3.254042616E+02  1.404989354E+02  6.324389318E+01  3.811202886E+02  1.250000000E+02  0.00000E+00  9.000E+00
      21     1     1     2   502   512  3.994433391E+01 -7.622471799E+01  1.508656043E+01  8.736911210E+01  1.155776944E-06  0.00000E+00  9.000E+00
#rwgt            1           1   2.9121790451751919E-002           8       64490           0
</event>
<event>
      5   9999  3.19816E-02  2.77553E+01 -1.00000E+00  1.55423E-01
      21    -1     0     0   502   501  0.000000000E+00  0.000000000E+00  5.443226696E+02  5.443226696E+02  0.000000000E+00  0.00000E+00  9.000E+00
      21    -1     0     0   501   511  0.000000000E+00  0.000000000E+00 -8.280382979E+02  8.280382979E+02  0.000000000E+00  0.00000E+00  9.000E+00
      25     1     1     2     0     0  4.167554882E+02  3.293815915E+02  2.238613308E+02  5.898442720E+02  1.250000000E+02  0.00000E+00  9.000E+00
      25     1     1     2     0     0 -4.132738712E+02 -3.569176104E+02 -4.498122318E+02  7.184298971E+02  1.250000000E+02  0.00000E+00  9.000E+00
      21     1     1     2   502   511 -3.481616968E+00  2.753601894E+01 -5.776472744E+01  6.408679842E+01  6.743495762E-07  0.00000E+00  9.000E+00
#rwgt            1           1   3.5260467892143189E-002           8       64548           0
</event>
<event>
      5   9999  3.19816E-02  1.77430E+01 -1.00000E+00  1.70777E-01
      21    -1     0     0   502   501  0.000000000E+00  0.000000000E+00  2.668419845E+02  2.668419845E+02  0.000000000E+00  0.00000E+00  9.000E+00
      21    -1     0     0   512   502  0.000000000E+00  0.000000000E+00 -6.422568998E+02  6.422568998E+02  0.000000000E+00  0.00000E+00  9.000E+00
      25     1     1     2     0     0  4.232901437E+01  3.616375943E+01  2.392738449E+02  2.756384150E+02  1.250000000E+02  0.00000E+00  9.000E+00
      25     1     1     2     0     0 -3.604072869E+01 -1.957244002E+01 -4.835310407E+02  5.011080541E+02  1.250000000E+02  0.00000E+00  9.000E+00
      21     1     1     2   512   501 -6.288285680E+00 -1.659131941E+01 -1.311577195E+02  1.323524152E+02  1.907348633E-06  0.00000E+00  9.000E+00
#rwgt            1           1   2.9622659991714581E-002           8       64716           0
</event>
<event>
      5   9999  3.19816E-02  1.25156E+02 -1.00000E+00  1.19598E-01
       2    -1     0     0   502     0  0.000000000E+00  0.000000000E+00  5.183961940E+02  5.183961940E+02  0.000000000E+00  0.00000E+00  9.000E+00
      21    -1     0     0   501   502  0.000000000E+00  0.000000000E+00 -3.929389133E+02  3.929389133E+02  0.000000000E+00  0.00000E+00  9.000E+00
      25     1     1     2     0     0 -1.424390704E+02  2.288682887E+02 -2.700194044E+02  4.015035007E+02  1.250000000E+02  0.00000E+00  9.000E+00
      25     1     1     2     0     0  5.738609291E+01 -1.370535335E+02  2.092892678E+02  2.854887605E+02  1.250000000E+02  0.00000E+00  9.000E+00
       2     1     1     2   501     0  8.505297747E+01 -9.181475521E+01  1.861874172E+02  2.243428461E+02  4.672030912E-06  0.00000E+00  9.000E+00
#rwgt            1           1   2.6120449390125151E-002           8       64969           0
</event>
<event>
      5   9999  3.19816E-02  2.01829E+01 -1.00000E+00  1.66044E-01
      21    -1     0     0   502   501  0.000000000E+00  0.000000000E+00  6.230475974E+01  6.230475974E+01  0.000000000E+00  0.00000E+00  9.000E+00
       1    -1     0     0   501     0  0.000000000E+00  0.000000000E+00 -2.995428018E+03  2.995428018E+03  0.000000000E+00  0.00000E+00  9.000E+00
      25     1     1     2     0     0  3.793369102E+02 -1.022722497E+02 -1.727586999E+03  1.776101896E+03  1.250000000E+02  0.00000E+00  9.000E+00
      25     1     1     2     0     0 -3.692087214E+02  8.481461430E+01 -1.023714979E+03  1.098692840E+03  1.250000000E+02  0.00000E+00  9.000E+00
       1     1     1     2   502     0 -1.012818877E+01  1.745763541E+01 -1.818212806E+02  1.829380423E+02  0.000000000E+00  0.00000E+00  9.000E+00
#rwgt            1           1   5.7022935693691768E-002           8       65013           0
</event>
<event>
      5   9999  3.19816E-02  5.95186E+01 -1.00000E+00  1.34891E-01
      21    -1     0     0   502   501  0.000000000E+00  0.000000000E+00  7.593948476E+02  7.593948476E+02  0.000000000E+00  0.00000E+00  9.000E+00
      21    -1     0     0   501   511  0.000000000E+00  0.000000000E+00 -7.309211398E+02  7.309211398E+02  0.000000000E+00  0.00000E+00  9.000E+00
      25     1     1     2     0     0 -2.386218307E+02 -6.810973795E+01  8.563468813E+01  2.907535284E+02  1.250000000E+02  0.00000E+00  9.000E+00
      25     1     1     2     0     0  2.706879315E+02  1.182518273E+02  5.245340541E+02  6.148304033E+02  1.250000000E+02  0.00000E+00  9.000E+00
      21     1     1     2   502   511 -3.206610085E+01 -5.014208939E+01 -5.816950344E+02  5.847320557E+02  0.000000000E+00  0.00000E+00  9.000E+00
#rwgt            1           1   2.7191792574896064E-002           8       65188           0
</event>
<event>
      5   9999  3.19816E-02  8.62948E+00 -1.00000E+00  2.03461E-01
      21    -1     0     0   502   501  0.000000000E+00  0.000000000E+00  8.440190976E+01  8.440190976E+01  0.000000000E+00  0.00000E+00  9.000E+00
      21    -1     0     0   501   512  0.000000000E+00  0.000000000E+00 -7.474968746E+02  7.474968746E+02  0.000000000E+00  0.00000E+00  9.000E+00
      25     1     1     2     0     0 -8.119723035E+01 -1.279710698E+02 -3.572923736E+02  4.077406347E+02  1.250000000E+02  0.00000E+00  9.000E+00
      25     1     1     2     0     0  8.979594757E+01  1.272430793E+02 -1.096592588E+02  2.278250787E+02  1.250000000E+02  0.00000E+00  9.000E+00
      21     1     1     2   502   512 -8.598717217E+00  7.279905121E-01 -1.961433325E+02  1.963330710E+02  2.697398305E-06  0.00000E+00  9.000E+00
#rwgt            1           1   1.9307333466587834E-002           8       65301           0
</event>
<event>
      5   9999  3.19816E-02  1.59122E+01 -1.00000E+00  1.75002E-01
      21    -1     0     0   511   501  0.000000000E+00  0.000000000E+00  4.692051484E+02  4.692051484E+02  0.000000000E+00  0.00000E+00  9.000E+00
      21    -1     0     0   501   502  0.000000000E+00  0.000000000E+00 -1.934595375E+02  1.934595375E+02  0.000000000E+00  0.00000E+00  9.000E+00
      25     1     1     2     0     0  5.797892412E+01 -6.261621030E+01  3.741452632E+02  4.035988397E+02  1.250000000E+02  0.00000E+00  9.000E+00
      25     1     1     2     0     0 -5.998829941E+01  4.683137453E+01 -1.473014686E+02  2.076403052E+02  1.250000000E+02  0.00000E+00  9.000E+00
      21     1     1     2   511   502  2.009375285E+00  1.578483577E+01  4.890181630E+01  5.142554099E+01  6.743495762E-07  0.00000E+00  9.000E+00
#rwgt            1           1   3.2129088631478071E-002           8       65427           0
</event>
<event>
      5   9999  3.19816E-02  8.98245E+01 -1.00000E+00  1.25961E-01
      21    -1     0     0   512   501  0.000000000E+00  0.000000000E+00  1.622019158E+03  1.622019158E+03  0.000000000E+00  0.00000E+00  9.000E+00
      21    -1     0     0   501   502  0.000000000E+00  0.000000000E+00 -3.487703725E+02  3.487703725E+02  0.000000000E+00  0.00000E+00  9.000E+00
      25     1     1     2     0     0 -6.183131089E+02  2.983569504E+02  2.819601095E+02  7.526316987E+02  1.250000000E+02  0.00000E+00  9.000E+00
      25     1     1     2     0     0  5.393518240E+02 -2.555369778E+02  7.918558539E+02  9.994299528E+02  1.250000000E+02  0.00000E+00  9.000E+00
      21     1     1     2   512   502  7.896128487E+01 -4.281997262E+01  1.994328217E+02  2.187278787E+02  2.697398305E-06  0.00000E+00  9.000E+00
#rwgt            1           1   2.5276683738576989E-002           8       65525           0
</event>
<event>
      5   9999  3.19816E-02  8.20865E+01 -1.00000E+00  1.27811E-01
      21    -1     0     0   511   501  0.000000000E+00  0.000000000E+00  2.479002341E+03  2.479002341E+03  0.000000000E+00  0.00000E+00  9.000E+00
      21    -1     0     0   501   502  0.000000000E+00  0.000000000E+00 -1.033576136E+02  1.033576136E+02  0.000000000E+00  0.00000E+00  9.000E+00
      25     1     1     2     0     0  3.821723859E+02  1.183720217E+02  6.386451184E+02  7.639111567E+02  1.250000000E+02  0.00000E+00  9.000E+00
      25     1     1     2     0     0 -3.601790698E+02 -1.974573220E+02  1.185103911E+03  1.260481907E+03  1.250000000E+02  0.00000E+00  9.000E+00
      21     1     1     2   511   502 -2.199331613E+01  7.908530029E+01  5.518956976E+02  5.579668912E+02  7.629394531E-06  0.00000E+00  9.000E+00
#rwgt            1           1   3.5276073559745540E-002           8       65671           0
</event>
<event>
      5   9999  3.19816E-02  7.64988E+00 -1.00000E+00  2.10245E-01
      21    -1     0     0   502   512  0.000000000E+00  0.000000000E+00  4.804928668E+02  4.804928668E+02  0.000000000E+00  0.00000E+00  9.000E+00
      21    -1     0     0   501   502  0.000000000E+00  0.000000000E+00 -2.436897229E+03  2.436897229E+03  0.000000000E+00  0.00000E+00  9.000E+00
      25     1     1     2     0     0  9.102209490E+01 -4.442712145E+02 -4.771541537E+02  6.700470284E+02  1.250000000E+02  0.00000E+00  9.000E+00
      25     1     1     2     0     0 -8.656336920E+01  4.504873604E+02 -1.832924345E+03  1.893586209E+03  1.250000000E+02  0.00000E+00  9.000E+00
      21     1     1     2   501   512 -4.458725695E+00 -6.216145869E+00  3.536741358E+02  3.537568586E+02  6.607249480E-06  0.00000E+00  9.000E+00
#rwgt            1           1   2.3496863482030186E-002           8       65733           0
</event>
<event>
      5   9999  3.19816E-02  9.15029E+00 -1.00000E+00  2.00323E-01
      21    -1     0     0   511   501  0.000000000E+00  0.000000000E+00  1.182547203E+03  1.182547203E+03  0.000000000E+00  0.00000E+00  9.000E+00
      21    -1     0     0   501   502  0.000000000E+00  0.000000000E+00 -2.560545275E+02  2.560545275E+02  0.000000000E+00  0.00000E+00  9.000E+00
      25     1     1     2     0     0 -3.707976208E+02 -2.776100833E+02  4.170917439E+02  6.357269514E+02  1.250000000E+02  0.00000E+00  9.000E+00
      25     1     1     2     0     0  3.661647608E+02  2.697193035E+02  2.325287874E+02  5.258514730E+02  1.250000000E+02  0.00000E+00  9.000E+00
      21     1     1     2   511   502  4.632860052E+00  7.890779790E+00  2.768721447E+02  2.770233065E+02  5.394796609E-06  0.00000E+00  9.000E+00
#rwgt            1           1   3.0888065259369643E-002           8       66145           0
</event>
<event>
      5   9999  3.19816E-02  1.33920E+02 -1.00000E+00  1.18379E-01
      21    -1     0     0   502   512  0.000000000E+00  0.000000000E+00  8.326733916E+02  8.326733916E+02  0.000000000E+00  0.00000E+00  9.000E+00
      21    -1     0     0   501   502  0.000000000E+00  0.000000000E+00 -1.264587223E+03  1.264587223E+03  0.000000000E+00  0.00000E+00  9.000E+00
      25     1     1     2     0     0 -6.926679854E+02  3.014117282E+02  3.500478590E+02  8.419005117E+02  1.250000000E+02  0.00000E+00  9.000E+00
      25     1     1     2     0     0  6.841636197E+02 -1.677620855E+02 -8.451289438E+02  1.107290345E+03  1.250000000E+02  0.00000E+00  9.000E+00
      21     1     1     2   501   512  8.504365729E+00 -1.336496427E+02  6.316725384E+01  1.480697578E+02  2.023048729E-06  0.00000E+00  9.000E+00
#rwgt            1           1   2.9893052633815337E-002           8       66493           0
</event>
<event>
      5   9999  3.19816E-02  7.45413E+00 -1.00000E+00  2.11766E-01
       1    -1     0     0   502     0  0.000000000E+00  0.000000000E+00  1.965609582E+03  1.965609582E+03  0.000000000E+00  0.00000E+00  9.000E+00
      21    -1     0     0   501   502  0.000000000E+00  0.000000000E+00 -9.841886862E+01  9.841886862E+01  0.000000000E+00  0.00000E+00  9.000E+00
      25     1     1     2     0     0 -2.152881064E+01  3.118888080E+02  7.000588598E+02  7.768175625E+02  1.250000000E+02  0.00000E+00  9.000E+00
      25     1     1     2     0     0  2.700269157E+01 -3.169485249E+02  4.265213523E+02  5.465628754E+02  1.250000000E+02  0.00000E+00  9.000E+00
       1     1     1     2   501     0 -5.473880925E+00  5.059716883E+00  7.406105012E+02  7.406480126E+02  1.525878906E-05  0.00000E+00  9.000E+00
#rwgt            1           1   2.7213968793032207E-002           8       66567           0
</event>
<event>
      5   9999  3.19816E-02  3.77122E+02 -1.00000E+00  1.02461E-01
      21    -1     0     0   502   501  0.000000000E+00  0.000000000E+00  2.118296799E+02  2.118296799E+02  0.000000000E+00  0.00000E+00  9.000E+00
       2    -1     0     0   501     0  0.000000000E+00  0.000000000E+00 -2.713002282E+03  2.713002282E+03  0.000000000E+00  0.00000E+00  9.000E+00
      25     1     1     2     0     0  5.606095152E+02 -5.745354006E+01 -6.615687217E+02  8.779989244E+02  1.250000000E+02  0.00000E+00  9.000E+00
      25     1     1     2     0     0 -1.976309588E+02 -4.485853334E+01 -8.604107670E+01  2.531765210E+02  1.250000000E+02  0.00000E+00  9.000E+00
       2     1     1     2   502     0 -3.629785563E+02  1.023120734E+02 -1.753562804E+03  1.793656517E+03  0.000000000E+00  0.00000E+00  9.000E+00
#rwgt            1           1   3.1458914769422273E-002           8       66856           0
</event>
<event>
      5   9999  3.19816E-02  1.61864E+01 -1.00000E+00  1.74325E-01
      21    -1     0     0   502   501  0.000000000E+00  0.000000000E+00  2.076644113E+03  2.076644113E+03  0.000000000E+00  0.00000E+00  9.000E+00
      21    -1     0     0   511   502  0.000000000E+00  0.000000000E+00 -1.430028581E+02  1.430028581E+02  0.000000000E+00  0.00000E+00  9.000E+00
      25     1     1     2     0     0 -9.871453700E+01 -3.012479435E+02  1.791371713E+03  1.823494584E+03  1.250000000E+02  0.00000E+00  9.000E+00
      25     1     1     2     0     0  9.669117661E+01  2.851885542E+02  1.672074920E+02  3.664219432E+02  1.250000000E+02  0.00000E+00  9.000E+00
      21     1     1     2   511   501  2.023360392E+00  1.605938930E+01 -2.493794991E+01  2.973044429E+01  6.743495762E-07  0.00000E+00  9.000E+00
#rwgt            1           1   3.4116692290959157E-002           8       66885           0
</event>
<event>
      5   9999  3.19816E-02  2.96161E+01 -1.00000E+00  1.53429E-01
      21    -1     0     0   502   501  0.000000000E+00  0.000000000E+00  1.037613165E+02  1.037613165E+02  0.000000000E+00  0.00000E+00  9.000E+00
      21    -1     0     0   501   512  0.000000000E+00  0.000000000E+00 -7.250400992E+02  7.250400992E+02  0.000000000E+00  0.00000E+00  9.000E+00
      25     1     1     2     0     0  9.178782183E+01 -4.732564861E+01  1.999613296E+01  1.633694175E+02  1.250000000E+02  0.00000E+00  9.000E+00
      25     1     1     2     0     0 -6.219816534E+01  4.857582276E+01 -5.212232956E+02  5.417812715E+02  1.250000000E+02  0.00000E+00  9.000E+00
      21     1     1     2   502   512 -2.958965649E+01 -1.250174148E+00 -1.200516201E+02  1.236507266E+02  1.907348633E-06  0.00000E+00  9.000E+00
#rwgt            1           1   2.7547917102574669E-002           8       67170           0
</event>
<event>
      5   9999  3.19816E-02  6.46788E+02 -1.00000E+00  9.57766E-02
      21    -1     0     0   502   501  0.000000000E+00  0.000000000E+00  2.902638748E+02  2.902638748E+02  0.000000000E+00  0.00000E+00  9.000E+00
      21    -1     0     0   511   502  0.000000000E+00  0.000000000E+00 -2.038757067E+03  2.038757067E+03  0.000000000E+00  0.00000E+00  9.000E+00
      25     1     1     2     0     0  4.009801592E+01  1.784906284E+02  2.755163259E+01  2.232730341E+02  1.250000000E+02  0.00000E+00  9.000E+00
      25     1     1     2     0     0  1.623019014E+01  4.658403338E+02 -8.199993484E+02  9.514696880E+02  1.250000000E+02  0.00000E+00  9.000E+00
      21     1     1     2   511   501 -5.632820606E+01 -6.443309622E+02 -9.560454758E+02  1.154278219E+03  2.157918644E-05  0.00000E+00  9.000E+00
#rwgt            2          11   1.2910422245268438E-003           8       67307           0
</event>
<event>
      5   9999  3.19816E-02  7.86095E+01 -1.00000E+00  1.28719E-01
      21    -1     0     0   502   501  0.000000000E+00  0.000000000E+00  1.098923237E+02  1.098923237E+02  0.000000000E+00  0.00000E+00  9.000E+00
      21    -1     0     0   512   502  0.000000000E+00  0.000000000E+00 -1.049396452E+03  1.049396452E+03  0.000000000E+00  0.00000E+00  9.000E+00
      25     1     1     2     0     0  2.028700901E+02  1.509199274E+02 -3.496027955E+02  4.491995242E+02  1.250000000E+02  0.00000E+00  9.000E+00
      25     1     1     2     0     0 -1.260471491E+02 -1.675837381E+02 -2.096344365E+02  3.217822090E+02  1.250000000E+02  0.00000E+00  9.000E+00
      21     1     1     2   512   501 -7.682294101E+01  1.666381075E+01 -3.802668966E+02  3.883070428E+02  7.629394531E-06  0.00000E+00  9.000E+00
#rwgt            1           1   3.2981866132282718E-002           8       67357           0
</event>
<event>
      5   9999  3.19816E-02  1.22154E+02 -1.00000E+00  1.20041E-01
      21    -1     0     0   502   501  0.000000000E+00  0.000000000E+00  5.465879608E+02  5.465879608E+02  0.000000000E+00  0.00000E+00  9.000E+00
      21    -1     0     0   501   511  0.000000000E+00  0.000000000E+00 -5.338536276E+02  5.338536276E+02  0.000000000E+00  0.00000E+00  9.000E+00
      25     1     1     2     0     0 -9.371611899E+00 -9.358568138E+00 -1.832265164E+02  2.221989339E+02  1.250000000E+02  0.00000E+00  9.000E+00
      25     1     1     2     0     0 -7.357125541E+01  9.903661612E+01  5.003382344E+02  5.302681678E+02  1.250000000E+02  0.00000E+00  9.000E+00
      21     1     1     2   502   511  8.294286730E+01 -8.967804798E+01 -3.043773848E+02  3.279744867E+02  5.394796609E-06  0.00000E+00  9.000E+00
#rwgt            1           1   2.8836651664409428E-002           8       67431           0
</event>
<event>
      5   9999  3.19816E-02  2.39428E+01 -1.00000E+00  1.60169E-01
      21    -1     0     0   512   501  0.000000000E+00  0.000000000E+00  9.194740558E+02  9.194740558E+02  0.000000000E+00  0.00000E+00  9.000E+00
      21    -1     0     0   501   502  0.000000000E+00  0.000000000E+00 -9.100230810E+01  9.100230810E+01  0.000000000E+00  0.00000E+00  9.000E+00
      25     1     1     2     0     0  1.113700683E+02  2.857740928E+01  3.053646452E+02  3.494174108E+02  1.250000000E+02  0.00000E+00  9.000E+00
      25     1     1     2     0     0 -8.865960335E+01 -2.099509748E+01  1.838594801E+01  1.557702233E+02  1.250000000E+02  0.00000E+00  9.000E+00
      21     1     1     2   512   502 -2.271046494E+01 -7.582311803E+00  5.047211545E+02  5.052887298E+02  7.629394531E-06  0.00000E+00  9.000E+00
#rwgt            1           1   3.0306415737739640E-002           8       67494           0
</event>
<event>
      5   9999  3.19816E-02  1.42116E+02 -1.00000E+00  1.17331E-01
      21    -1     0     0   502   501  0.000000000E+00  0.000000000E+00  1.359572715E+03  1.359572715E+03  0.000000000E+00  0.00000E+00  9.000E+00
       2    -1     0     0   501     0  0.000000000E+00  0.000000000E+00 -5.143693975E+02  5.143693975E+02  0.000000000E+00  0.00000E+00  9.000E+00
      25     1     1     2     0     0  3.674264098E+02 -3.000441201E+02  8.183245810E+02  9.541010222E+02  1.250000000E+02  0.00000E+00  9.000E+00
      25     1     1     2     0     0 -5.050235236E+02  3.355951201E+02  2.397322493E+02  6.639046584E+02  1.250000000E+02  0.00000E+00  9.000E+00
       2     1     1     2   502     0  1.375971138E+02 -3.555100000E+01 -2.128535127E+02  2.559364320E+02  3.814697266E-06  0.00000E+00  9.000E+00
#rwgt            1           1   2.8924073913654366E-002           8       67610           0
</event>
<event>
      5   9999  3.19816E-02  6.25345E+01 -1.00000E+00  1.33750E-01
      21    -1     0     0   511   501  0.000000000E+00  0.000000000E+00  1.207912386E+02  1.207912386E+02  0.000000000E+00  0.00000E+00  9.000E+00
      21    -1     0     0   501   502  0.000000000E+00  0.000000000E+00 -4.534164237E+02  4.534164237E+02  0.000000000E+00  0.00000E+00  9.000E+00
      25     1     1     2     0     0  3.371080678E+01 -1.298143939E+02 -2.997385721E+02  3.513636392E+02  1.250000000E+02  0.00000E+00  9.000E+00
      25     1     1     2     0     0 -7.509888474E+00  7.303342379E+01 -5.707092467E+01  1.557959238E+02  1.250000000E+02  0.00000E+00  9.000E+00
      21     1     1     2   511   502 -2.620091830E+01  5.678097013E+01  2.418431167E+01  6.704809930E+01  6.743495762E-07  0.00000E+00  9.000E+00
#rwgt            2          11   1.9182005247432553E-003           8       67690           0
</event>
<event>
      5   9999  3.19816E-02  3.66537E+01 -1.00000E+00  1.47233E-01
      21    -1     0     0   502   501  0.000000000E+00  0.000000000E+00  9.727249737E+02  9.727249737E+02  0.000000000E+00  0.00000E+00  9.000E+00
      21    -1     0     0   512   502  0.000000000E+00  0.000000000E+00 -6.061647503E+02  6.061647503E+02  0.000000000E+00  0.00000E+00  9.000E+00
      25     1     1     2     0     0 -1.552026368E+02 -1.712351865E+02  7.976246613E+01  2.745840464E+02  1.250000000E+02  0.00000E+00  9.000E+00
      25     1     1     2     0     0  1.314518306E+02  1.991527688E+02  7.720368917E+02  8.176841513E+02  1.250000000E+02  0.00000E+00  9.000E+00
      21     1     1     2   512   501  2.375080620E+01 -2.791758234E+01 -4.852391344E+02  4.866215262E+02  7.629394531E-06  0.00000E+00  9.000E+00
#rwgt            1           1   2.7740064535767980E-002           8       67710           0
</event>
<event>
      5   9999  3.19816E-02  2.50530E+01 -1.00000E+00  1.58682E-01
      21    -1     0     0   502   511  0.000000000E+00  0.000000000E+00  6.105779222E+02  6.105779222E+02  0.000000000E+00  0.00000E+00  9.000E+00
      21    -1     0     0   501   502  0.000000000E+00  0.000000000E+00 -6.237279044E+02  6.237279044E+02  0.000000000E+00  0.00000E+00  9.000E+00
      25     1     1     2     0     0  5.609405931E+02  1.296195750E+02 -4.713611150E+01  5.910181015E+02  1.250000000E+02  0.00000E+00  9.000E+00
      25     1     1     2     0     0 -5.782305170E+02 -1.477499132E+02  1.187712935E+01  6.098742771E+02  1.250000000E+02  0.00000E+00  9.000E+00
      21     1     1     2   501   511  1.728992383E+01  1.813033818E+01  2.210899993E+01  3.341344799E+01  4.129530925E-07  0.00000E+00  9.000E+00
#rwgt            1           1   2.9813766669464954E-002           8       67817           0
</event>
<event>
      5   9999  3.19816E-02  1.84611E+01 -1.00000E+00  1.69290E-01
      21    -1     0     0   502   501  0.000000000E+00  0.000000000E+00  1.685788686E+03  1.685788686E+03  0.000000000E+00  0.00000E+00  9.000E+00
      21    -1     0     0   512   502  0.000000000E+00  0.000000000E+00 -2.840926047E+02  2.840926047E+02  0.000000000E+00  0.00000E+00  9.000E+00
      25     1     1     2     0     0  3.895275410E+02  4.447662443E+02  2.380045397E+02  6.494766187E+02  1.250000000E+02  0.00000E+00  9.000E+00
      25     1     1     2     0     0 -3.710828592E+02 -4.455455352E+02  1.158014660E+03  1.301090414E+03  1.250000000E+02  0.00000E+00  9.000E+00
      21     1     1     2   512   501 -1.844468176E+01  7.792908769E-01  5.676881503E+00  1.931425802E+01  3.769728732E-07  0.00000E+00  9.000E+00
#rwgt            1           1   2.9188021152520820E-002           8       67992           0
</event>
<event>
      5   9999  3.19816E-02  6.48628E+01 -1.00000E+00  1.32919E-01
      21    -1     0     0   502   501  0.000000000E+00  0.000000000E+00  6.436948736E+01  6.436948736E+01  0.000000000E+00  0.00000E+00  9.000E+00
      -3    -1     0     0     0   502  0.000000000E+00  0.000000000E+00 -8.963350714E+02  8.963350714E+02  0.000000000E+00  0.00000E+00  9.000E+00
      25     1     1     2     0     0  1.727097494E+02  1.365148243E+01 -2.561679143E+02  3.335596211E+02  1.250000000E+02  0.00000E+00  9.000E+00
      25     1     1     2     0     0 -1.168203807E+02  1.926592159E+01 -3.214272310E+02  3.646349434E+02  1.250000000E+02  0.00000E+00  9.000E+00
      -3     1     1     2     0   501 -5.588936865E+01 -3.291740402E+01 -2.543704387E+02  2.625099943E+02  3.814697266E-06  0.00000E+00  9.000E+00
#rwgt            1           1   2.9402179527786412E-002           8       68200           0
</event>
<event>
      5   9999  3.19816E-02  2.39136E+01 -1.00000E+00  1.60210E-01
      21    -1     0     0   502   501  0.000000000E+00  0.000000000E+00  1.531465720E+02  1.531465720E+02  0.000000000E+00  0.00000E+00  9.000E+00
      21    -1     0     0   501   511  0.000000000E+00  0.000000000E+00 -3.738910104E+02  3.738910104E+02  0.000000000E+00  0.00000E+00  9.000E+00
      25     1     1     2     0     0 -1.691435969E+02  2.592944204E+01 -1.547499965E+02  2.624013219E+02  1.250000000E+02  0.00000E+00  9.000E+00
      25     1     1     2     0     0  1.453555782E+02 -2.348234358E+01  1.374422061E+00  1.931490451E+02  1.250000000E+02  0.00000E+00  9.000E+00
      21     1     1     2   502   511  2.378801863E+01 -2.447098464E+00 -6.736886403E+01  7.148721537E+01  9.536743164E-07  0.00000E+00  9.000E+00
#rwgt            1           1   2.7124799208315151E-002           8       68291           0
</event>
<event>
      5   9999  3.19816E-02  8.11087E+01 -1.00000E+00  1.28061E-01
      21    -1     0     0   502   501  0.000000000E+00  0.000000000E+00  2.524695911E+02  2.524695911E+02  0.000000000E+00  0.00000E+00  9.000E+00
      21    -1     0     0   501   512  0.000000000E+00  0.000000000E+00 -6.889084418E+02  6.889084418E+02  0.000000000E+00  0.00000E+00  9.000E+00
      25     1     1     2     0     0  1.268011642E+02  3.212262777E+02 -6.965429870E+01  3.738202483E+02  1.250000000E+02  0.00000E+00  9.000E+00
      25     1     1     2     0     0 -4.574704776E+01 -3.242004735E+02 -2.782707675E+02  4.475023569E+02  1.250000000E+02  0.00000E+00  9.000E+00
      21     1     1     2   502   512 -8.105411647E+01  2.974195827E+00 -8.851378454E+01  1.200554276E+02  1.651812370E-06  0.00000E+00  9.000E+00
#rwgt            1           1   3.0862179332883460E-002           8       68373           0
</event>
<event>
      5   9999  3.19816E-02  3.94744E+00 -1.00000E+00  2.64831E-01
      21    -1     0     0   502   511  0.000000000E+00  0.000000000E+00  4.262891339E+02  4.262891339E+02  0.000000000E+00  0.00000E+00  9.000E+00
      21    -1     0     0   501   502  0.000000000E+00  0.000000000E+00 -3.616218739E+02  3.616218739E+02  0.000000000E+00  0.00000E+00  9.000E+00
      25     1     1     2     0     0  1.709535704E+01 -2.361004771E+02  2.737141775E+02  3.828578554E+02  1.250000000E+02  0.00000E+00  9.000E+00
      25     1     1     2     0     0 -1.315591828E+01  2.358492501E+02 -2.487811754E+02  3.651232945E+02  1.250000000E+02  0.00000E+00  9.000E+00
      21     1     1     2   501   511 -3.939438766E+00  2.512269155E-01  3.973425793E+01  3.992985783E+01  6.743495762E-07  0.00000E+00  9.000E+00
#rwgt            1           1   2.9348549191795009E-002           8       68441           0
</event>
<event>
      5   9999  3.19816E-02  7.58009E+01 -1.00000E+00  1.29493E-01
      21    -1     0     0   502   512  0.000000000E+00  0.000000000E+00  2.133859802E+02  2.133859802E+02  0.000000000E+00  0.00000E+00  9.000E+00
      21    -1     0     0   501   502  0.000000000E+00  0.000000000E+00 -2.158136786E+02  2.158136786E+02  0.000000000E+00  0.00000E+00  9.000E+00
      25     1     1     2     0     0 -3.936369458E+01 -4.258491490E+00 -8.904883103E+01  1.585002508E+02  1.250000000E+02  0.00000E+00  9.000E+00
      25     1     1     2     0     0  8.501267876E+01  6.477249435E+01  1.290911477E+01  1.649675023E+02  1.250000000E+02  0.00000E+00  9.000E+00
      21     1     1     2   501   512 -4.564898418E+01 -6.051400286E+01  7.371201786E+01  1.057319057E+02  9.536743164E-07  0.00000E+00  9.000E+00
#rwgt            1           1   5.0239499937749524E-002           8       68789           0
</event>
<event>
      5   9999  3.19816E-02  1.94750E+01 -1.00000E+00  1.67328E-01
      21    -1     0     0   502   511  0.000000000E+00  0.000000000E+00  3.165179777E+02  3.165179777E+02  0.000000000E+00  0.00000E+00  9.000E+00
      21    -1     0     0   501   502  0.000000000E+00  0.000000000E+00 -1.950926037E+02  1.950926037E+02  0.000000000E+00  0.00000E+00  9.000E+00
      25     1     1     2     0     0 -1.921325520E+02  4.383299830E+01  1.193465311E+00  2.333723926E+02  1.250000000E+02  0.00000E+00  9.000E+00
      25     1     1     2     0     0  1.922284898E+02 -2.435820856E+01  1.043072159E+02  2.530812318E+02  1.250000000E+02  0.00000E+00  9.000E+00
      21     1     1     2   501   511 -9.593778963E-02 -1.947478974E+01  1.592469284E+01  2.515695692E+01  6.078504936E-07  0.00000E+00  9.000E+00
#rwgt            1           1   2.6405368660811820E-002           8       68906           0
</event>
<event>
      5   9999  3.19816E-02  1.94774E+02 -1.00000E+00  1.12068E-01
      21    -1     0     0   502   501  0.000000000E+00  0.000000000E+00  1.419672180E+02  1.419672180E+02  0.000000000E+00  0.00000E+00  9.000E+00
       2    -1     0     0   501     0  0.000000000E+00  0.000000000E+00 -1.731995106E+03  1.731995106E+03  0.000000000E+00  0.00000E+00  9.000E+00
      25     1     1     2     0     0  3.136461803E+01  4.115332669E+01  6.644617249E+01  1.507230221E+02  1.250000000E+02  0.00000E+00  9.000E+00
      25     1     1     2     0     0 -2.069025946E+02  4.324731117E+01 -5.890108172E+02  6.381518286E+02  1.250000000E+02  0.00000E+00  9.000E+00
       2     1     1     2   502     0  1.755379765E+02 -8.440063786E+01 -1.067463243E+03  1.085087473E+03  1.525878906E-05  0.00000E+00  9.000E+00
#rwgt            2          13   1.4440944258214215E-003           8       69140           0
</event>
<event>
      5   9999  3.19816E-02  9.94648E+01 -1.00000E+00  1.23933E-01
      21    -1     0     0   511   501  0.000000000E+00  0.000000000E+00  5.839447350E+02  5.839447350E+02  0.000000000E+00  0.00000E+00  9.000E+00
      21    -1     0     0   501   502  0.000000000E+00  0.000000000E+00 -1.827637750E+03  1.827637750E+03  0.000000000E+00  0.00000E+00  9.000E+00
      25     1     1     2     0     0 -3.274996281E+02  1.028282568E+01 -9.334857512E+02  9.971872395E+02  1.250000000E+02  0.00000E+00  9.000E+00
      25     1     1     2     0     0  3.243969692E+02 -1.096992286E+02 -8.187383917E+02  8.962281341E+02  1.250000000E+02  0.00000E+00  9.000E+00
      21     1     1     2   511   502  3.102658917E+00  9.941640293E+01  5.085311276E+02  5.181671115E+02  1.206313194E-05  0.00000E+00  9.000E+00
#rwgt            1           1   3.0703296970894203E-002           8       69204           0
</event>
<event>
      5   9999  3.19816E-02  7.32796E+01 -1.00000E+00  1.30221E-01
      21    -1     0     0   502   512  0.000000000E+00  0.000000000E+00  2.324734459E+03  2.324734459E+03  0.000000000E+00  0.00000E+00  9.000E+00
      21    -1     0     0   501   502  0.000000000E+00  0.000000000E+00 -3.058893309E+02  3.058893309E+02  0.000000000E+00  0.00000E+00  9.000E+00
      25     1     1     2     0     0  2.640707141E+02 -9.140888709E+00 -2.176484392E+02  3.644348240E+02  1.250000000E+02  0.00000E+00  9.000E+00
      25     1     1     2     0     0 -1.956919266E+02  3.548924241E+01  9.877814231E+02  1.015328497E+03  1.250000000E+02  0.00000E+00  9.000E+00
      21     1     1     2   501   512 -6.837878746E+01 -2.634835370E+01  1.248712144E+03  1.250860469E+03  1.525878906E-05  0.00000E+00  9.000E+00
#rwgt            1           1   3.1324059842943279E-002           8       69266           0
</event>
<event>
      5   9999  3.19816E-02  1.53957E+02 -1.00000E+00  1.15947E-01
      21    -1     0     0   502   501  0.000000000E+00  0.000000000E+00  1.295700044E+03  1.295700044E+03  0.000000000E+00  0.00000E+00  9.000E+00
      21    -1     0     0   511   502  0.000000000E+00  0.000000000E+00 -8.507923180E+02  8.507923180E+02  0.000000000E+00  0.00000E+00  9.000E+00
      25     1     1     2     0     0  6.221040100E+02  7.859694711E+01  8.130514935E+02  1.034344532E+03  1.250000000E+02  0.00000E+00  9.000E+00
      25     1     1     2     0     0 -6.381587832E+02  7.452016763E+01  5.988243468E+01  6.572752802E+02  1.250000000E+02  0.00000E+00  9.000E+00
      21     1     1     2   511   501  1.605477316E+01 -1.531171147E+02 -4.280262025E+02  4.548725498E+02  9.344061824E-06  0.00000E+00  9.000E+00
#rwgt            1           1   3.2952722118439345E-002           8       69403           0
</event>
<event>
      5   9999  3.19816E-02  6.58362E+01 -1.00000E+00  1.32584E-01
      21    -1     0     0   502   512  0.000000000E+00  0.000000000E+00  1.392684874E+03  1.392684874E+03  0.000000000E+00  0.00000E+00  9.000E+00
      21    -1     0     0   501   502  0.000000000E+00  0.000000000E+00 -2.629824138E+02  2.629824138E+02  0.000000000E+00  0.00000E+00  9.000E+00
      25     1     1     2     0     0 -4.780756947E+01  9.214753433E+01  1.249973052E+03  1.260489732E+03  1.250000000E+02  0.00000E+00  9.000E+00
      25     1     1     2     0     0  1.061071982E+02 -1.227343728E+02 -2.037257789E+02  2.888800041E+02  1.250000000E+02  0.00000E+00  9.000E+00
      21     1     1     2   501   512 -5.829962874E+01  3.058683847E+01  8.345518702E+01  1.062975524E+02  0.000000000E+00  0.00000E+00  9.000E+00
#rwgt            1           1   3.0720373311398895E-002           8       69469           0
</event>
<event>
      5   9999  3.19816E-02  7.64757E+01 -1.00000E+00  1.29304E-01
      21    -1     0     0   502   501  0.000000000E+00  0.000000000E+00  6.639254634E+02  6.639254634E+02  0.000000000E+00  0.00000E+00  9.000E+00
      21    -1     0     0   511   502  0.000000000E+00  0.000000000E+00 -5.753995340E+02  5.753995340E+02  0.000000000E+00  0.00000E+00  9.000E+00
      25     1     1     2     0     0 -1.316005054E+02  2.612178116E+02 -1.622307619E+02  3.570675821E+02  1.250000000E+02  0.00000E+00  9.000E+00
      25     1     1     2     0     0  1.524522166E+02 -1.876396635E+02  5.283454831E+02  5.943267377E+02  1.250000000E+02  0.00000E+00  9.000E+00
      21     1     1     2   511   501 -2.085171121E+01 -7.357814808E+01 -2.775887918E+02  2.879306775E+02  0.000000000E+00  0.00000E+00  9.000E+00
#rwgt            1           1   2.9001134534752702E-002           8       69549           0
</event>
<event>
      5   9999  3.19816E-02  5.69372E+01 -1.00000E+00  1.35931E-01
      21    -1     0     0   502   501  0.000000000E+00  0.000000000E+00  1.000782231E+03  1.000782231E+03  0.000000000E+00  0.00000E+00  9.000E+00
      21    -1     0     0   501   512  0.000000000E+00  0.000000000E+00 -1.570113062E+02  1.570113062E+02  0.000000000E+00  0.00000E+00  9.000E+00
      25     1     1     2     0     0 -2.701237669E+02  3.769496201E+01  1.560875831E+02  3.381953477E+02  1.250000000E+02  0.00000E+00  9.000E+00
      25     1     1     2     0     0  3.204280577E+02 -1.102441714E+01  6.800382684E+02  7.621500669E+02  1.250000000E+02  0.00000E+00  9.000E+00
      21     1     1     2   502   512 -5.030429082E+01 -2.667054487E+01  7.645073112E+00  5.744812252E+01  1.230226007E-06  0.00000E+00  9.000E+00
#rwgt            1           1   3.0799739820258503E-002           8       69623           0
</event>
<event>
      5   9999  3.19816E-02  9.23386E+00 -1.00000E+00  1.99846E-01
      21    -1     0     0   502   501  0.000000000E+00  0.000000000E+00  1.515336412E+02  1.515336412E+02  0.000000000E+00  0.00000E+00  9.000E+00
      21    -1     0     0   511   502  0.000000000E+00  0.000000000E+00 -5.315321721E+02  5.315321721E+02  0.000000000E+00  0.00000E+00  9.000E+00
      25     1     1     2     0     0 -1.689139865E+02 -1.072959236E+02 -2.630277519E+02  3.533453669E+02  1.250000000E+02  0.00000E+00  9.000E+00
      25     1     1     2     0     0  1.672767967E+02  1.163834852E+02 -2.848610030E+01  2.407552705E+02  1.250000000E+02  0.00000E+00  9.000E+00
      21     1     1     2   511   501  1.637189744E+00 -9.087561669E+00 -8.848467867E+01  8.896517592E+01  9.536743164E-07  0.00000E+00  9.000E+00
#rwgt            1           1   2.9640010556903223E-002           8       69695           0
</event>
<event>
      5   9999  3.19816E-02  5.58164E+01 -1.00000E+00  1.36402E-01
      21    -1     0     0   502   501  0.000000000E+00  0.000000000E+00  2.475936310E+02  2.475936310E+02  0.000000000E+00  0.00000E+00  9.000E+00
      21    -1     0     0   501   512  0.000000000E+00  0.000000000E+00 -1.203471930E+02  1.203471930E+02  0.000000000E+00  0.00000E+00  9.000E+00
      25     1     1     2     0     0  7.901342845E+01 -2.706553702E+01  1.811617981E+01  1.514227894E+02  1.250000000E+02  0.00000E+00  9.000E+00
      25     1     1     2     0     0 -2.822373674E+01  3.916579488E+00  9.310406502E+01  1.584464762E+02  1.250000000E+02  0.00000E+00  9.000E+00
      21     1     1     2   502   512 -5.078969171E+01  2.314895753E+01  1.602619322E+01  5.807155834E+01  8.920806376E-07  0.00000E+00  9.000E+00
#rwgt            1           1   2.2094747603902693E-002           8       69899           0
</event>
<event>
      5   9999  3.19816E-02  2.50323E+02 -1.00000E+00  1.08211E-01
      21    -1     0     0   502   501  0.000000000E+00  0.000000000E+00  2.576178718E+03  2.576178718E+03  0.000000000E+00  0.00000E+00  9.000E+00
      21    -1     0     0   501   511  0.000000000E+00  0.000000000E+00 -2.189224303E+02  2.189224303E+02  0.000000000E+00  0.00000E+00  9.000E+00
      25     1     1     2     0     0  2.292331540E+02 -3.613457153E+02  1.274712408E+03  1.350420412E+03  1.250000000E+02  0.00000E+00  9.000E+00
      25     1     1     2     0     0 -6.826481762E+00  2.464672417E+02  1.152158828E+03  1.184857657E+03  1.250000000E+02  0.00000E+00  9.000E+00
      21     1     1     2   502   511 -2.224066722E+02  1.148784737E+02 -6.961494871E+01  2.598230795E+02  7.806160709E-06  0.00000E+00  9.000E+00
#rwgt            1           1   5.3418161761754249E-002           8       69970           0
</event>
<event>
      5   9999  3.19816E-02  1.99283E+01 -1.00000E+00  1.66498E-01
      21    -1     0     0   502   512  0.000000000E+00  0.000000000E+00  2.394530204E+02  2.394530204E+02  0.000000000E+00  0.00000E+00  9.000E+00
      21    -1     0     0   501   502  0.000000000E+00  0.000000000E+00 -3.970310723E+02  3.970310723E+02  0.000000000E+00  0.00000E+00  9.000E+00
      25     1     1     2     0     0  1.907308395E+02  1.042195868E+02 -3.966366546E+01  2.538467682E+02  1.250000000E+02  0.00000E+00  9.000E+00
      25     1     1     2     0     0 -2.081651005E+02 -9.456646625E+01 -1.804793231E+02  3.169752540E+02  1.250000000E+02  0.00000E+00  9.000E+00
      21     1     1     2   501   512  1.743426100E+01 -9.653120547E+00  6.256493666E+01  6.566207042E+01  9.536743164E-07  0.00000E+00  9.000E+00
#rwgt            1           1   2.6791223427124630E-002           8       70023           0
</event>
<event>
      5   9999  3.19816E-02  1.12016E+02 -1.00000E+00  1.21651E-01
       2    -1     0     0   502     0  0.000000000E+00  0.000000000E+00  2.161779018E+03  2.161779018E+03  0.000000000E+00  0.00000E+00  9.000E+00
      21    -1     0     0   501   502  0.000000000E+00  0.000000000E+00 -2.775715499E+02  2.775715499E+02  0.000000000E+00  0.00000E+00  9.000E+00
      25     1     1     2     0     0  4.448255138E+02  2.177478925E+02  1.403300579E+02  5.297182341E+02  1.250000000E+02  0.00000E+00  9.000E+00
      25     1     1     2     0     0 -3.861745321E+02 -1.223141208E+02  4.783921972E+02  6.391991925E+02  1.250000000E+02  0.00000E+00  9.000E+00
       2     1     1     2   501     0 -5.865098170E+01 -9.543377175E+01  1.265485212E+03  1.270433141E+03  0.000000000E+00  0.00000E+00  9.000E+00
#rwgt            1           1   2.8421969458248396E-002           8       70181           0
</event>
<event>
      5   9999  3.19816E-02  8.97604E+01 -1.00000E+00  1.25975E-01
      21    -1     0     0   502   511  0.000000000E+00  0.000000000E+00  1.240973071E+02  1.240973071E+02  0.000000000E+00  0.00000E+00  9.000E+00
      21    -1     0     0   501   502  0.000000000E+00  0.000000000E+00 -2.134639798E+03  2.134639798E+03  0.000000000E+00  0.00000E+00  9.000E+00
      25     1     1     2     0     0 -2.154133518E+02 -2.982402153E+02 -1.383138718E+03  1.436679453E+03  1.250000000E+02  0.00000E+00  9.000E+00
      25     1     1     2     0     0  3.050325472E+02  2.932074273E+02 -5.302338868E+02  6.897741841E+02  1.250000000E+02  0.00000E+00  9.000E+00
      21     1     1     2   501   511 -8.961919536E+01  5.032788018E+00 -9.716988678E+01  1.322834685E+02  1.907348633E-06  0.00000E+00  9.000E+00
#rwgt            1           1   3.0531250825456890E-002           8       70262           0
</event>
<event>
      5   9999  3.19816E-02  4.24436E+01 -1.00000E+00  1.43261E-01
      21    -1     0     0   502   501  0.000000000E+00  0.000000000E+00  2.717312208E+02  2.717312208E+02  0.000000000E+00  0.00000E+00  9.000E+00
      21    -1     0     0   501   512  0.000000000E+00  0.000000000E+00 -2.847397411E+02  2.847397411E+02  0.000000000E+00  0.00000E+00  9.000E+00
      25     1     1     2     0     0  3.303168079E+01 -1.535074415E+01 -1.009025015E+02  1.647211343E+02  1.250000000E+02  0.00000E+00  9.000E+00
      25     1     1     2     0     0 -8.443208322E+00 -1.924494948E+01  2.194995728E+02  2.534693636E+02  1.250000000E+02  0.00000E+00  9.000E+00
      21     1     1     2   502   512 -2.458847247E+01  3.459569363E+01 -1.316055915E+02  1.382804639E+02  2.697398305E-06  0.00000E+00  9.000E+00
#rwgt            1           1   2.6284028407783426E-002           8       70326           0
</event>
<event>
      5   9999  3.19816E-02  2.08306E+02 -1.00000E+00  1.11009E-01
      21    -1     0     0   502   501  0.000000000E+00  0.000000000E+00  1.095391561E+02  1.095391561E+02  0.000000000E+00  0.00000E+00  9.000E+00
       1    -1     0     0   501     0  0.000000000E+00  0.000000000E+00 -8.224029434E+02  8.224029434E+02  0.000000000E+00  0.00000E+00  9.000E+00
      25     1     1     2     0     0 -1.112612538E+02  1.790867655E+02 -2.231298788E+02  3.314559986E+02  1.250000000E+02  0.00000E+00  9.000E+00
      25     1     1     2     0     0 -2.696889587E+01 -2.325448469E+01 -1.242516956E+02  1.798098336E+02  1.250000000E+02  0.00000E+00  9.000E+00
       1     1     1     2   502     0  1.382301497E+02 -1.558322808E+02 -3.654822128E+02  4.206762674E+02  0.000000000E+00  0.00000E+00  9.000E+00
#rwgt            2          12   5.6251759483690424E-004           8       70584           0
</event>
<event>
      5   9999  3.19816E-02  5.87977E+01 -1.00000E+00  1.35175E-01
      21    -1     0     0   511   501  0.000000000E+00  0.000000000E+00  2.769942668E+02  2.769942668E+02  0.000000000E+00  0.00000E+00  9.000E+00
      21    -1     0     0   501   502  0.000000000E+00  0.000000000E+00 -4.715866234E+02  4.715866234E+02  0.000000000E+00  0.00000E+00  9.000E+00
      25     1     1     2     0     0 -3.370013241E+01 -2.364612933E+02 -3.085282795E+02  4.097125107E+02  1.250000000E+02  0.00000E+00  9.000E+00
      25     1     1     2     0     0  4.101542852E+01  1.781204159E+02  1.270519751E+01  2.218007439E+02  1.250000000E+02  0.00000E+00  9.000E+00
      21     1     1     2   511   502 -7.315296114E+00  5.834087746E+01  1.012307254E+02  1.170676356E+02  0.000000000E+00  0.00000E+00  9.000E+00
#rwgt            1           1   2.6965039419969441E-002           8       70663           0
</event>
<event>
      5   9999  3.19816E-02  4.26378E+01 -1.00000E+00  1.43141E-01
      21    -1     0     0   502   501  0.000000000E+00  0.000000000E+00  2.971354219E+02  2.971354219E+02  0.000000000E+00  0.00000E+00  9.000E+00
      21    -1     0     0   501   512  0.000000000E+00  0.000000000E+00 -1.009627983E+03  1.009627983E+03  0.000000000E+00  0.00000E+00  9.000E+00
      25     1     1     2     0     0 -4.829886705E+01 -2.432003433E+02 -8.341421921E+02  8.791458264E+02  1.250000000E+02  0.00000E+00  9.000E+00
      25     1     1     2     0     0  6.895801227E+01  2.804988420E+02  1.743710245E+02  3.598125373E+02  1.250000000E+02  0.00000E+00  9.000E+00
      21     1     1     2   502   512 -2.065914523E+01 -3.729849867E+01 -5.272139396E+01  6.780504159E+01  0.000000000E+00  0.00000E+00  9.000E+00
#rwgt            1           1   2.9134598703193817E-002           8       70733           0
</event>
<event>
      5   9999  3.19816E-02  2.34264E+01 -1.00000E+00  1.60895E-01
      21    -1     0     0   502   501  0.000000000E+00  0.000000000E+00  1.087861624E+03  1.087861624E+03  0.000000000E+00  0.00000E+00  9.000E+00
      21    -1     0     0   501   511  0.000000000E+00  0.000000000E+00 -2.245331102E+03  2.245331102E+03  0.000000000E+00  0.00000E+00  9.000E+00
      25     1     1     2     0     0  6.456181561E+02  1.249122682E+03 -4.062859141E+02  1.468953206E+03  1.250000000E+02  0.00000E+00  9.000E+00
      25     1     1     2     0     0 -6.639474873E+02 -1.263711395E+03 -3.668435782E+02  1.479186251E+03  1.250000000E+02  0.00000E+00  9.000E+00
      21     1     1     2   502   511  1.832933115E+01  1.458871304E+01 -3.843399855E+02  3.850532683E+02  5.394796609E-06  0.00000E+00  9.000E+00
#rwgt            1           1   6.1688308425359308E-002           8       70920           0
</event>
<event>
      5   9999  3.19816E-02  1.85929E+01 -1.00000E+00  1.69026E-01
      21    -1     0     0   502   512  0.000000000E+00  0.000000000E+00  6.348303960E+02  6.348303960E+02  0.000000000E+00  0.00000E+00  9.000E+00
      21    -1     0     0   501   502  0.000000000E+00  0.000000000E+00 -1.359864978E+03  1.359864978E+03  0.000000000E+00  0.00000E+00  9.000E+00
      25     1     1     2     0     0  2.029103029E+02  7.827411762E+00 -6.294988598E+02  6.731475870E+02  1.250000000E+02  0.00000E+00  9.000E+00
      25     1     1     2     0     0 -1.935013178E+02 -2.386378006E+01 -6.894671708E+02  7.273253877E+02  1.250000000E+02  0.00000E+00  9.000E+00
      21     1     1     2   501   512 -9.408985077E+00  1.603636830E+01  5.939314486E+02  5.942223992E+02  7.629394531E-06  0.00000E+00  9.000E+00
#rwgt            1           1   3.4076748011701824E-002           8       71120           0
</event>
<event>
      5   9999  3.19816E-02  4.02151E+01 -1.00000E+00  1.44696E-01
       2    -1     0     0   502     0  0.000000000E+00  0.000000000E+00  3.058109914E+03  3.058109914E+03  0.000000000E+00  0.00000E+00  9.000E+00
      21    -1     0     0   501   502  0.000000000E+00  0.000000000E+00 -1.909570941E+01  1.909570941E+01  0.000000000E+00  0.00000E+00  9.000E+00
      25     1     1     2     0     0  5.731477030E+01  1.526297859E+02  8.983208018E+02  9.215129394E+02  1.250000000E+02  0.00000E+00  9.000E+00
      25     1     1     2     0     0 -6.680762768E+01 -1.135511962E+02  1.156021921E+03  1.170200331E+03  1.250000000E+02  0.00000E+00  9.000E+00
       2     1     1     2   501     0  9.492857379E+00 -3.907858977E+01  9.846714815E+02  9.854923526E+02  2.157918644E-05  0.00000E+00  9.000E+00
#rwgt            1           1   6.5708637262652289E-002           8       71267           0
</event>
<event>
      5   9999  3.19816E-02  4.40310E+01 -1.00000E+00  1.42301E-01
      -2    -1     0     0     0   501  0.000000000E+00  0.000000000E+00  7.253360190E+02  7.253360190E+02  0.000000000E+00  0.00000E+00  9.000E+00
      21    -1     0     0   501   502  0.000000000E+00  0.000000000E+00 -2.161104886E+02  2.161104886E+02  0.000000000E+00  0.00000E+00  9.000E+00
      25     1     1     2     0     0 -7.057894229E+01 -1.083097674E+02  1.795803042E+02  2.541386993E+02  1.250000000E+02  0.00000E+00  9.000E+00
      25     1     1     2     0     0  2.661057783E+01  1.059616634E+02 -1.390465156E+02  2.165523735E+02  1.250000000E+02  0.00000E+00  9.000E+00
      -2     1     1     2     0   502  4.396836446E+01  2.348104034E+00  4.686917418E+02  4.707554349E+02  5.394796609E-06  0.00000E+00  9.000E+00
#rwgt            1           1   2.6779278844810357E-002           8       71379           0
</event>
<event>
      5   9999  3.19816E-02  1.82925E+01 -1.00000E+00  1.69632E-01
      21    -1     0     0   502   511  0.000000000E+00  0.000000000E+00  2.440921569E+03  2.440921569E+03  0.000000000E+00  0.00000E+00  9.000E+00
      21    -1     0     0   501   502  0.000000000E+00  0.000000000E+00 -8.944583553E+01  8.944583553E+01  0.000000000E+00  0.00000E+00  9.000E+00
      25     1     1     2     0     0  1.513445851E+02  1.534561651E+02  2.369011153E+02  3.438038924E+02  1.250000000E+02  0.00000E+00  9.000E+00
      25     1     1     2     0     0 -1.405850671E+02 -1.682496898E+02  4.070668554E+02  4.789577684E+02  1.250000000E+02  0.00000E+00  9.000E+00
      21     1     1     2   501   511 -1.075951798E+01  1.479352468E+01  1.707507763E+03  1.707605744E+03  3.051757812E-05  0.00000E+00  9.000E+00
#rwgt            1           1   2.7878787499467084E-002           8       71492           0
</event>
<event>
      5   9999  3.19816E-02  2.32237E+01 -1.00000E+00  1.61186E-01
      -3    -1     0     0     0   501  0.000000000E+00  0.000000000E+00  3.553664711E+02  3.553664711E+02  0.000000000E+00  0.00000E+00  9.000E+00
      21    -1     0     0   501   502  0.000000000E+00  0.000000000E+00 -1.843125020E+02  1.843125020E+02  0.000000000E+00  0.00000E+00  9.000E+00
      25     1     1     2     0     0  6.607940143E+01  1.861847604E+02  6.924157088E+01  2.438250345E+02  1.250000000E+02  0.00000E+00  9.000E+00
      25     1     1     2     0     0 -4.574632655E+01 -1.974055420E+02  5.614400898E+01  2.446197542E+02  1.250000000E+02  0.00000E+00  9.000E+00
      -3     1     1     2     0   502 -2.033307488E+01  1.122078164E+01  4.566838927E+01  5.123418442E+01  6.743495762E-07  0.00000E+00  9.000E+00
#rwgt            1           1   2.8158595633828169E-002           8       71640           0
</event>
<event>
      5   9999  3.19816E-02  2.83284E+02 -1.00000E+00  1.06407E-01
      21    -1     0     0   502   501  0.000000000E+00  0.000000000E+00  3.824812614E+02  3.824812614E+02  0.000000000E+00  0.00000E+00  9.000E+00
      21    -1     0     0   501   511  0.000000000E+00  0.000000000E+00 -1.983713071E+03  1.983713071E+03  0.000000000E+00  0.00000E+00  9.000E+00
      25     1     1     2     0     0 -4.849709841E+02  6.748861904E+01 -9.877420331E+02  1.109509303E+03  1.250000000E+02  0.00000E+00  9.000E+00
      25     1     1     2     0     0  7.680271195E+02 -7.885568974E+01 -3.094123844E+02  8.410974377E+02  1.250000000E+02  0.00000E+00  9.000E+00
      21     1     1     2   502   511 -2.830561354E+02  1.136707069E+01 -3.040773920E+02  4.155875917E+02  5.394796609E-06  0.00000E+00  9.000E+00
#rwgt            1           1   3.7436839589272443E-002           8       71782           0
</event>
<event>
      5   9999  3.19816E-02  1.41494E+01 -1.00000E+00  1.79806E-01
      21    -1     0     0   502   501  0.000000000E+00  0.000000000E+00  2.816074997E+02  2.816074997E+02  0.000000000E+00  0.00000E+00  9.000E+00
      21    -1     0     0   501   512  0.000000000E+00  0.000000000E+00 -2.598578254E+02  2.598578254E+02  0.000000000E+00  0.00000E+00  9.000E+00
      25     1     1     2     0     0  5.888115143E+01 -2.178813102E+01  2.098382313E+02  2.521880171E+02  1.250000000E+02  0.00000E+00  9.000E+00
      25     1     1     2     0     0 -5.802143524E+01  7.664834705E+00 -4.453725149E+01  1.450303534E+02  1.250000000E+02  0.00000E+00  9.000E+00
      21     1     1     2   502   512 -8.597161887E-01  1.412329632E+01 -1.435513055E+02  1.442469546E+02  1.907348633E-06  0.00000E+00  9.000E+00
#rwgt            1           1   2.6087124502868101E-002           8       71895           0
</event>
<event>
      5   9999  3.19816E-02  5.81784E+01 -1.00000E+00  1.35423E-01
      21    -1     0     0   502   501  0.000000000E+00  0.000000000E+00  1.408663005E+03  1.408663005E+03  0.000000000E+00  0.00000E+00  9.000E+00
      21    -1     0     0   501   511  0.000000000E+00  0.000000000E+00 -5.979263708E+01  5.979263708E+01  0.000000000E+00  0.00000E+00  9.000E+00
      25     1     1     2     0     0  1.224628063E+01 -7.672534868E+01  1.222465413E+03  1.231293400E+03  1.250000000E+02  0.00000E+00  9.000E+00
      25     1     1     2     0     0  2.915196691E+01  3.584857124E+01  1.187208957E+02  1.784785934E+02  1.250000000E+02  0.00000E+00  9.000E+00
      21     1     1     2   502   511 -4.139824754E+01  4.087677744E+01  7.684058834E+00  5.868364844E+01  9.536743164E-07  0.00000E+00  9.000E+00
#rwgt            1           1   3.7466210201967144E-002           8       72077           0
</event>
<event>
      5   9999  3.19816E-02  3.68859E+01 -1.00000E+00  1.47058E-01
       2    -1     0     0   502     0  0.000000000E+00  0.000000000E+00  1.035490377E+03  1.035490377E+03  0.000000000E+00  0.00000E+00  9.000E+00
      21    -1     0     0   501   502  0.000000000E+00  0.000000000E+00 -1.313662772E+03  1.313662772E+03  0.000000000E+00  0.00000E+00  9.000E+00
      25     1     1     2     0     0 -1.605177460E+01 -6.042127072E+02  5.489834384E+02  8.260378143E+02  1.250000000E+02  0.00000E+00  9.000E+00
      25     1     1     2     0     0  4.707929740E+01  5.842662704E+02 -1.097382572E+03  1.250382759E+03  1.250000000E+02  0.00000E+00  9.000E+00
       2     1     1     2   501     0 -3.102752279E+01  1.994643682E+01  2.702267385E+02  2.727325754E+02  0.000000000E+00  0.00000E+00  9.000E+00
#rwgt            2          18   5.8505364656728245E-004           8       72155           0
</event>
<event>
      5   9999  3.19816E-02  1.90021E+01 -1.00000E+00  1.68224E-01
      21    -1     0     0   502   501  0.000000000E+00  0.000000000E+00  1.362002091E+02  1.362002091E+02  0.000000000E+00  0.00000E+00  9.000E+00
      21    -1     0     0   511   502  0.000000000E+00  0.000000000E+00 -7.864801881E+02  7.864801881E+02  0.000000000E+00  0.00000E+00  9.000E+00
      25     1     1     2     0     0  2.330653466E+02  1.787197140E+01 -1.380615528E+02  2.988726409E+02  1.250000000E+02  0.00000E+00  9.000E+00
      25     1     1     2     0     0 -2.238945415E+02 -3.451461992E+01 -2.463401313E+02  3.572512911E+02  1.250000000E+02  0.00000E+00  9.000E+00
      21     1     1     2   511   501 -9.170805061E+00  1.664264852E+01 -2.658782949E+02  2.665564652E+02  0.000000000E+00  0.00000E+00  9.000E+00
#rwgt            1           1   2.8632265344427265E-002           8       72189           0
</event>
<event>
      5   9999  3.19816E-02  2.68259E+02 -1.00000E+00  1.07194E-01
      21    -1     0     0   502   512  0.000000000E+00  0.000000000E+00  1.457073187E+03  1.457073187E+03  0.000000000E+00  0.00000E+00  9.000E+00
      21    -1     0     0   501   502  0.000000000E+00  0.000000000E+00 -8.355319174E+02  8.355319174E+02  0.000000000E+00  0.00000E+00  9.000E+00
      25     1     1     2     0     0 -5.748827653E+02 -6.476702922E+02 -3.193510098E+02  9.314381722E+02  1.250000000E+02  0.00000E+00  9.000E+00
      25     1     1     2     0     0  5.778799123E+02  3.794279543E+02  5.771104201E+02  9.091711624E+02  1.250000000E+02  0.00000E+00  9.000E+00
      21     1     1     2   501   512 -2.997146949E+00  2.682423379E+02  3.637818591E+02  4.519957696E+02  9.344061824E-06  0.00000E+00  9.000E+00
#rwgt            1           1   3.8593811929069820E-002           8       72327           0
</event>
<event>
      5   9999  3.19816E-02  2.78100E+01 -1.00000E+00  1.55362E-01
       1    -1     0     0   502     0  0.000000000E+00  0.000000000E+00  4.922600003E+02  4.922600003E+02  0.000000000E+00  0.00000E+00  9.000E+00
      21    -1     0     0   501   502  0.000000000E+00  0.000000000E+00 -2.672850420E+02  2.672850420E+02  0.000000000E+00  0.00000E+00  9.000E+00
      25     1     1     2     0     0  1.200412068E+02 -2.160913011E+02 -1.283451749E+02  3.052913783E+02  1.250000000E+02  0.00000E+00  9.000E+00
      25     1     1     2     0     0 -1.041292031E+02  1.932832839E+02  2.870946884E+02  3.824260437E+02  1.250000000E+02  0.00000E+00  9.000E+00
       1     1     1     2   501     0 -1.591200371E+01  2.280801715E+01  6.622544474E+01  7.182762031E+01  9.536743164E-07  0.00000E+00  9.000E+00
#rwgt            1           1   2.9258979423725261E-002           8       72391           0
</event>
<event>
      5   9999  3.19816E-02  8.18426E+01 -1.00000E+00  1.27873E-01
      21    -1     0     0   502   511  0.000000000E+00  0.000000000E+00  3.612009536E+02  3.612009536E+02  0.000000000E+00  0.00000E+00  9.000E+00
      21    -1     0     0   501   502  0.000000000E+00  0.000000000E+00 -1.339169689E+03  1.339169689E+03  0.000000000E+00  0.00000E+00  9.000E+00
      25     1     1     2     0     0 -3.633708958E+02  7.520745752E+01  1.712708741E+02  4.273795525E+02  1.250000000E+02  0.00000E+00  9.000E+00
      25     1     1     2     0     0  3.605137867E+02  6.585277128E+00 -1.124497506E+03  1.187490294E+03  1.250000000E+02  0.00000E+00  9.000E+00
      21     1     1     2   501   511  2.857109105E+00 -8.179273464E+01 -2.474210327E+01  8.550079641E+01  1.390207266E-06  0.00000E+00  9.000E+00
#rwgt            1           1   2.9286129725562094E-002           8       72570           0
</event>
<event>
      5   9999  3.19816E-02  1.54558E+02 -1.00000E+00  1.15881E-01
      21    -1     0     0   502   512  0.000000000E+00  0.000000000E+00  2.061154025E+02  2.061154025E+02  0.000000000E+00  0.00000E+00  9.000E+00
      21    -1     0     0   501   502  0.000000000E+00  0.000000000E+00 -5.420675291E+02  5.420675291E+02  0.000000000E+00  0.00000E+00  9.000E+00
      25     1     1     2     0     0  2.900287990E+01 -1.658968053E+02 -2.699823183E+02  3.418747859E+02  1.250000000E+02  0.00000E+00  9.000E+00
      25     1     1     2     0     0 -1.759276602E+02  1.179254137E+02 -4.963365309E+01  2.508893069E+02  1.250000000E+02  0.00000E+00  9.000E+00
      21     1     1     2   501   512  1.469247803E+02  4.797139159E+01 -1.633615524E+01  1.554188388E+02  1.846782373E-06  0.00000E+00  9.000E+00
#rwgt            1           1   2.8469994393292123E-002           8       72686           0
</event>
<event>
      5   9999  3.19816E-02  8.12221E+01 -1.00000E+00  1.28032E-01
      21    -1     0     0   511   501  0.000000000E+00  0.000000000E+00  9.129575839E+02  9.129575839E+02  0.000000000E+00  0.00000E+00  9.000E+00
      21    -1     0     0   501   502  0.000000000E+00  0.000000000E+00 -2.553917071E+02  2.553917071E+02  0.000000000E+00  0.00000E+00  9.000E+00
      25     1     1     2     0     0 -2.084391782E+02 -1.866727284E+02  4.547279080E+02  5.483576103E+02  1.250000000E+02  0.00000E+00  9.000E+00
      25     1     1     2     0     0  1.742277354E+02  1.130072458E+02 -1.316173589E+02  2.758152834E+02  1.250000000E+02  0.00000E+00  9.000E+00
      21     1     1     2   511   502  3.421144280E+01  7.366548254E+01  3.344553278E+02  3.441763973E+02  3.814697266E-06  0.00000E+00  9.000E+00
#rwgt            1           1   2.8848633938694988E-002           8       72737           0
</event>
<event>
      5   9999  3.19816E-02  1.62243E+01 -1.00000E+00  1.74232E-01
      21    -1     0     0   502   501  0.000000000E+00  0.000000000E+00  2.588668986E+02  2.588668986E+02  0.000000000E+00  0.00000E+00  9.000E+00
      21    -1     0     0   512   502  0.000000000E+00  0.000000000E+00 -3.807545493E+02  3.807545493E+02  0.000000000E+00  0.00000E+00  9.000E+00
      25     1     1     2     0     0  2.030168156E+02 -1.382853826E+02  4.628893446E+00  2.756539517E+02  1.250000000E+02  0.00000E+00  9.000E+00
      25     1     1     2     0     0 -1.903773611E+02  1.484575562E+02 -3.862465814E+01  2.745906951E+02  1.250000000E+02  0.00000E+00  9.000E+00
      21     1     1     2   512   501 -1.263945449E+01 -1.017217366E+01 -8.789188609E+01  8.937680106E+01  9.536743164E-07  0.00000E+00  9.000E+00
#rwgt            2          11   8.6030695232829860E-004           8       72837           0
</event>
<event>
      5   9999  3.19816E-02  5.89231E+01 -1.00000E+00  1.35125E-01
      21    -1     0     0   502   501  0.000000000E+00  0.000000000E+00  1.653239560E+03  1.653239560E+03  0.000000000E+00  0.00000E+00  9.000E+00
      -1    -1     0     0     0   502  0.000000000E+00  0.000000000E+00 -7.166833274E+01  7.166833274E+01  0.000000000E+00  0.00000E+00  9.000E+00
      25     1     1     2     0     0  2.510818097E+01  1.486278882E+01  8.115527656E+02  8.216411714E+02  1.250000000E+02  0.00000E+00  9.000E+00
      25     1     1     2     0     0 -2.008598893E+01 -7.357145653E+01  8.156819600E+02  8.287208614E+02  1.250000000E+02  0.00000E+00  9.000E+00
      -1     1     1     2     0   501 -5.022192040E+00  5.870866771E+01 -4.566349867E+01  7.454585963E+01  2.939421655E-06  0.00000E+00  9.000E+00
#rwgt            1           1   2.4754327626705919E-002           8       72857           0
</event>
<event>
      5   9999  3.19816E-02  4.84538E+01 -1.00000E+00  1.39858E-01
      21    -1     0     0   502   501  0.000000000E+00  0.000000000E+00  2.301615966E+02  2.301615966E+02  0.000000000E+00  0.00000E+00  9.000E+00
      21    -1     0     0   501   511  0.000000000E+00  0.000000000E+00 -2.796036411E+02  2.796036411E+02  0.000000000E+00  0.00000E+00  9.000E+00
      25     1     1     2     0     0  6.116044812E+01  9.840046874E+01  1.487038451E+02  2.261881655E+02  1.250000000E+02  0.00000E+00  9.000E+00
      25     1     1     2     0     0 -7.257895423E+01 -5.131132204E+01 -1.622723056E+02  2.232887313E+02  1.250000000E+02  0.00000E+00  9.000E+00
      21     1     1     2   502   511  1.141850610E+01 -4.708914670E+01 -3.587358393E+01  6.028834085E+01  6.743495762E-07  0.00000E+00  9.000E+00
#rwgt            1           1   2.6009267208049802E-002           8       72894           0
</event>
<event>
      5   9999  3.19816E-02  8.88418E+00 -1.00000E+00  2.01891E-01
      21    -1     0     0   502   501  0.000000000E+00  0.000000000E+00  9.754665198E+02  9.754665198E+02  0.000000000E+00  0.00000E+00  9.000E+00
      21    -1     0     0   512   502  0.000000000E+00  0.000000000E+00 -2.530033820E+02  2.530033820E+02  0.000000000E+00  0.00000E+00  9.000E+00
      25     1     1     2     0     0  3.201546648E+02  3.352155775E+02  4.735654617E+02  6.743572786E+02  1.250000000E+02  0.00000E+00  9.000E+00
      25     1     1     2     0     0 -3.180596643E+02 -3.265819446E+02  2.603231322E+02  5.396395554E+02  1.250000000E+02  0.00000E+00  9.000E+00
      21     1     1     2   512   501 -2.095000492E+00 -8.633632882E+00 -1.142545608E+01  1.447306776E+01  2.920019320E-07  0.00000E+00  9.000E+00
#rwgt            1           1   2.8378103231462896E-002           8       72990           0
</event>
<event>
      5   9999  3.19816E-02  5.75638E+01 -1.00000E+00  1.35672E-01
      21    -1     0     0   511   501  0.000000000E+00  0.000000000E+00  1.367022037E+03  1.367022037E+03  0.000000000E+00  0.00000E+00  9.000E+00
      21    -1     0     0   501   502  0.000000000E+00  0.000000000E+00 -1.712785518E+02  1.712785518E+02  0.000000000E+00  0.00000E+00  9.000E+00
      25     1     1     2     0     0  1.573098784E+02 -1.854251670E+02  1.283974183E+01  2.737128959E+02  1.250000000E+02  0.00000E+00  9.000E+00
      25     1     1     2     0     0 -2.131886607E+02  1.992507638E+02  5.996025790E+02  6.784530379E+02  1.250000000E+02  0.00000E+00  9.000E+00
      21     1     1     2   511   502  5.587878228E+01 -1.382559678E+01  5.833011645E+02  5.861346551E+02  7.629394531E-06  0.00000E+00  9.000E+00
#rwgt            1           1   2.4731254572006804E-002           8       73168           0
</event>
<event>
      5   9999  3.19816E-02  4.85753E+01 -1.00000E+00  1.39796E-01
       2    -1     0     0   502     0  0.000000000E+00  0.000000000E+00  1.876375304E+03  1.876375304E+03  0.000000000E+00  0.00000E+00  9.000E+00
      21    -1     0     0   501   502  0.000000000E+00  0.000000000E+00 -1.354690362E+02  1.354690362E+02  0.000000000E+00  0.00000E+00  9.000E+00
      25     1     1     2     0     0 -1.010084696E+02 -8.880882836E+01 -3.122812391E+01  1.862522876E+02  1.250000000E+02  0.00000E+00  9.000E+00
      25     1     1     2     0     0  1.476116603E+02  1.025093907E+02  4.294256853E+02  4.820049757E+02  1.250000000E+02  0.00000E+00  9.000E+00
       2     1     1     2   501     0 -4.660319074E+01 -1.370056234E+01  1.342708707E+03  1.343587077E+03  1.525878906E-05  0.00000E+00  9.000E+00
#rwgt            1           1   2.7758456424497237E-002           8       73234           0
</event>
<event>
      5   9999  3.19816E-02  1.46149E+02 -1.00000E+00  1.16843E-01
      21    -1     0     0   502   501  0.000000000E+00  0.000000000E+00  6.802804717E+02  6.802804717E+02  0.000000000E+00  0.00000E+00  9.000E+00
      21    -1     0     0   511   502  0.000000000E+00  0.000000000E+00 -3.567492897E+02  3.567492897E+02  0.000000000E+00  0.00000E+00  9.000E+00
      25     1     1     2     0     0 -1.454326170E+02  3.786315873E+01 -2.596573883E+02  3.250095755E+02  1.250000000E+02  0.00000E+00  9.000E+00
      25     1     1     2     0     0  3.620642833E+01  5.924040208E+01  5.414733788E+02  5.600345978E+02  1.250000000E+02  0.00000E+00  9.000E+00
      21     1     1     2   511   501  1.092261886E+02 -9.710356081E+01  4.171519150E+01  1.519855882E+02  3.053247565E-06  0.00000E+00  9.000E+00
#rwgt            1           1   3.1794657751856768E-002           8       73323           0
</event>
<event>
      5   9999  3.19816E-02  1.91982E+01 -1.00000E+00  1.67849E-01
      21    -1     0     0   502   501  0.000000000E+00  0.000000000E+00  6.064603759E+02  6.064603759E+02  0.000000000E+00  0.00000E+00  9.000E+00
      21    -1     0     0   501   512  0.000000000E+00  0.000000000E+00 -1.260896585E+02  1.260896585E+02  0.000000000E+00  0.00000E+00  9.000E+00
      25     1     1     2     0     0  1.928303967E+02  5.864451579E+01  2.021058246E+02  3.115999124E+02  1.250000000E+02  0.00000E+00  9.000E+00
      25     1     1     2     0     0 -2.008865437E+02 -7.607064728E+01  3.015521355E+02  3.907695449E+02  1.250000000E+02  0.00000E+00  9.000E+00
      21     1     1     2   502   512  8.056147029E+00  1.742613149E+01 -2.328724263E+01  3.018057708E+01  8.259061849E-07  0.00000E+00  9.000E+00
#rwgt            1           1   2.4968100986811799E-002           8       73353           0
</event>
<event>
      5   9999  3.19816E-02  5.61092E+01 -1.00000E+00  1.36278E-01
      21    -1     0     0   511   501  0.000000000E+00  0.000000000E+00  6.455552323E+02  6.455552323E+02  0.000000000E+00  0.00000E+00  9.000E+00
      21    -1     0     0   501   502  0.000000000E+00  0.000000000E+00 -1.707112661E+02  1.707112661E+02  0.000000000E+00  0.00000E+00  9.000E+00
      25     1     1     2     0     0  1.449322880E+02  1.140041256E+02  4.137827085E+02  4.699398245E+02  1.250000000E+02  0.00000E+00  9.000E+00
      25     1     1     2     0     0 -2.009459323E+02 -1.107307181E+02 -2.834166666E+00  2.612921586E+02  1.250000000E+02  0.00000E+00  9.000E+00
      21     1     1     2   511   502  5.601364431E+01 -3.273407592E+00  6.389542440E+01  8.503451538E+01  9.536743164E-07  0.00000E+00  9.000E+00
#rwgt            1           1   2.8632274287242552E-002           8       73475           0
</event>
<event>
      5   9999  3.19816E-02  7.57134E+01 -1.00000E+00  1.29518E-01
      21    -1     0     0   512   501  0.000000000E+00  0.000000000E+00  2.662371217E+02  2.662371217E+02  0.000000000E+00  0.00000E+00  9.000E+00
      21    -1     0     0   501   502  0.000000000E+00  0.000000000E+00 -5.339326063E+02  5.339326063E+02  0.000000000E+00  0.00000E+00  9.000E+00
      25     1     1     2     0     0  2.838601160E+02 -1.707467563E+01 -4.883176654E+01  3.144481697E+02  1.250000000E+02  0.00000E+00  9.000E+00
      25     1     1     2     0     0 -2.851996851E+02  9.277627397E+01 -2.435734697E+02  4.060779882E+02  1.250000000E+02  0.00000E+00  9.000E+00
      21     1     1     2   512   502  1.339569076E+00 -7.570159835E+01  2.470975153E+01  7.964357010E+01  7.539457465E-07  0.00000E+00  9.000E+00
#rwgt            1           1   2.7123317849439544E-002           8       73618           0
</event>
<event>
      5   9999  3.19816E-02  3.16112E+01 -1.00000E+00  1.51478E-01
      21    -1     0     0   502   511  0.000000000E+00  0.000000000E+00  1.620188600E+02  1.620188600E+02  0.000000000E+00  0.00000E+00  9.000E+00
      21    -1     0     0   501   502  0.000000000E+00  0.000000000E+00 -8.910793462E+02  8.910793462E+02  0.000000000E+00  0.00000E+00  9.000E+00
      25     1     1     2     0     0 -2.811418738E+01  2.435877478E+02 -5.429700812E+02  6.087420697E+02  1.250000000E+02  0.00000E+00  9.000E+00
      25     1     1     2     0     0 -2.509190100E+00 -2.357469553E+02 -2.546525889E+02  3.688575118E+02  1.250000000E+02  0.00000E+00  9.000E+00
      21     1     1     2   501   511  3.062337748E+01 -7.840792527E+00  6.856218388E+01  7.549862471E+01  2.132480600E-06  0.00000E+00  9.000E+00
#rwgt            1           1   3.2856595942400549E-002           8       73701           0
</event>
<event>
      5   9999  3.19816E-02  5.89289E+01 -1.00000E+00  1.35123E-01
      21    -1     0     0   512   501  0.000000000E+00  0.000000000E+00  3.620309814E+02  3.620309814E+02  0.000000000E+00  0.00000E+00  9.000E+00
      21    -1     0     0   501   502  0.000000000E+00  0.000000000E+00 -3.131552506E+02  3.131552506E+02  0.000000000E+00  0.00000E+00  9.000E+00
      25     1     1     2     0     0 -1.234946723E+02  2.256888677E+02  4.326995020E+01  2.892813296E+02  1.250000000E+02  0.00000E+00  9.000E+00
      25     1     1     2     0     0  1.497428944E+02 -1.729286225E+02 -8.814146816E+01  2.751747832E+02  1.250000000E+02  0.00000E+00  9.000E+00
      21     1     1     2   512   502 -2.624822210E+01 -5.276024514E+01  9.374724881E+01  1.107301192E+02  1.907348633E-06  0.00000E+00  9.000E+00
#rwgt            1           1   2.5387083141701485E-002           8       73813           0
</event>
<event>
      5   9999  3.19816E-02  7.91077E+01 -1.00000E+00  1.28586E-01
      21    -1     0     0   502   501  0.000000000E+00  0.000000000E+00  9.681663127E+01  9.681663127E+01  0.000000000E+00  0.00000E+00  9.000E+00
      21    -1     0     0   511   502  0.000000000E+00  0.000000000E+00 -5.845415650E+02  5.845415650E+02  0.000000000E+00  0.00000E+00  9.000E+00
      25     1     1     2     0     0  1.486525483E+02 -5.580261672E+00 -1.748130433E+02  2.613681686E+02  1.250000000E+02  0.00000E+00  9.000E+00
      25     1     1     2     0     0 -1.278828994E+02 -7.075223958E+01 -1.701710071E+02  2.567938610E+02  1.250000000E+02  0.00000E+00  9.000E+00
      21     1     1     2   511   501 -2.076964894E+01  7.633250125E+01 -1.427408833E+02  1.631961667E+02  1.907348633E-06  0.00000E+00  9.000E+00
#rwgt            1           1   2.9317131738491035E-002           8       73930           0
</event>
<event>
      5   9999  3.19816E-02  2.28647E+01 -1.00000E+00  1.61711E-01
      21    -1     0     0   502   501  0.000000000E+00  0.000000000E+00  5.784607862E+02  5.784607862E+02  0.000000000E+00  0.00000E+00  9.000E+00
      21    -1     0     0   512   502  0.000000000E+00  0.000000000E+00 -3.493197428E+02  3.493197428E+02  0.000000000E+00  0.00000E+00  9.000E+00
      25     1     1     2     0     0  2.469792178E+02  1.189540127E+02  4.263257457E+02  5.220416005E+02  1.250000000E+02  0.00000E+00  9.000E+00
      25     1     1     2     0     0 -2.667650868E+02 -1.074947191E+02 -1.386201060E+02  3.428691586E+02  1.250000000E+02  0.00000E+00  9.000E+00
      21     1     1     2   512   501  1.978586891E+01 -1.145929352E+01 -5.856459631E+01  6.286976982E+01  1.507891493E-06  0.00000E+00  9.000E+00
#rwgt            1           1   3.1670849861022213E-002           8       74020           0
</event>
<event>
      5   9999  3.19816E-02  4.46524E+01 -1.00000E+00  1.41938E-01
      21    -1     0     0   502   501  0.000000000E+00  0.000000000E+00  1.051298859E+02  1.051298859E+02  0.000000000E+00  0.00000E+00  9.000E+00
      21    -1     0     0   501   511  0.000000000E+00  0.000000000E+00 -1.433297307E+03  1.433297307E+03  0.000000000E+00  0.00000E+00  9.000E+00
      25     1     1     2     0     0 -1.841563103E+01  1.765523442E+02 -1.222425750E+03  1.241555307E+03  1.250000000E+02  0.00000E+00  9.000E+00
      25     1     1     2     0     0 -2.204248939E+01 -1.576585871E+02 -2.412103064E+01  2.038355355E+02  1.250000000E+02  0.00000E+00  9.000E+00
      21     1     1     2   502   511  4.045812042E+01 -1.889375706E+01 -8.162064085E+01  9.303635083E+01  0.000000000E+00  0.00000E+00  9.000E+00
#rwgt            1           1   3.3876752688721770E-002           8       74222           0
</event>
<event>
      5   9999  3.19816E-02  7.73782E+00 -1.00000E+00  2.09581E-01
      21    -1     0     0   502   512  0.000000000E+00  0.000000000E+00  1.641526293E+02  1.641526293E+02  0.000000000E+00  0.00000E+00  9.000E+00
      21    -1     0     0   501   502  0.000000000E+00  0.000000000E+00 -1.238723364E+03  1.238723364E+03  0.000000000E+00  0.00000E+00  9.000E+00
      25     1     1     2     0     0 -5.186058580E+01  3.450743405E+00 -1.204077417E+03  1.211663672E+03  1.250000000E+02  0.00000E+00  9.000E+00
      25     1     1     2     0     0  4.422486296E+01 -4.703569901E+00  1.194656409E+02  1.785357147E+02  1.250000000E+02  0.00000E+00  9.000E+00
      21     1     1     2   501   512  7.635722830E+00  1.252826496E+00  1.004104149E+01  1.267660647E+01  3.576278687E-07  0.00000E+00  9.000E+00
#rwgt            1           1   1.6922893325859136E-002           8       74288           0
</event>
<event>
      5   9999  3.19816E-02  5.78536E+01 -1.00000E+00  1.35554E-01
      21    -1     0     0   511   501  0.000000000E+00  0.000000000E+00  4.078866964E+02  4.078866964E+02  0.000000000E+00  0.00000E+00  9.000E+00
      21    -1     0     0   501   502  0.000000000E+00  0.000000000E+00 -7.695518202E+02  7.695518202E+02  0.000000000E+00  0.00000E+00  9.000E+00
      25     1     1     2     0     0  2.932899558E+02  3.830537670E+02 -3.254353208E+02  5.952162083E+02  1.250000000E+02  0.00000E+00  9.000E+00
      25     1     1     2     0     0 -2.358641321E+02 -3.760314467E+02 -1.236093226E+02  4.774262272E+02  1.250000000E+02  0.00000E+00  9.000E+00
      21     1     1     2   511   502 -5.742582372E+01 -7.022320237E+00  8.737951956E+01  1.047960813E+02  9.536743164E-07  0.00000E+00  9.000E+00
#rwgt            1           1   1.9629010053910219E-002           8       74611           0
</event>
<event>
      5   9999  3.19816E-02  1.36173E+02 -1.00000E+00  1.18083E-01
      21    -1     0     0   502   501  0.000000000E+00  0.000000000E+00  8.957184510E+02  8.957184510E+02  0.000000000E+00  0.00000E+00  9.000E+00
       3    -1     0     0   501     0  0.000000000E+00  0.000000000E+00 -1.519694527E+03  1.519694527E+03  0.000000000E+00  0.00000E+00  9.000E+00
      25     1     1     2     0     0  5.223301574E+01  4.091818478E+01  7.962493986E+02  8.087278223E+02  1.250000000E+02  0.00000E+00  9.000E+00
      25     1     1     2     0     0 -1.868998636E+02 -2.071881148E+01 -5.201380196E+01  2.317137539E+02  1.250000000E+02  0.00000E+00  9.000E+00
       3     1     1     2   502     0  1.346668479E+02 -2.019937330E+01 -1.368211672E+03  1.374971402E+03  3.051757812E-05  0.00000E+00  9.000E+00
#rwgt            1           1   2.8918132961314697E-002           8       74685           0
</event>
<event>
      5   9999  3.19816E-02  1.50999E+02 -1.00000E+00  1.16279E-01
      21    -1     0     0   502   501  0.000000000E+00  0.000000000E+00  4.623235692E+02  4.623235692E+02  0.000000000E+00  0.00000E+00  9.000E+00
      21    -1     0     0   501   511  0.000000000E+00  0.000000000E+00 -8.113707610E+02  8.113707610E+02  0.000000000E+00  0.00000E+00  9.000E+00
      25     1     1     2     0     0 -1.899967181E+02 -8.223537435E+01  2.433206721E+02  3.430617425E+02  1.250000000E+02  0.00000E+00  9.000E+00
      25     1     1     2     0     0  3.910311634E+01  8.788292570E+01  1.226772086E+02  1.998178166E+02  1.250000000E+02  0.00000E+00  9.000E+00
      21     1     1     2   502   511  1.508936017E+02 -5.647551350E+00 -7.150450725E+02  7.308147711E+02  1.078959322E-05  0.00000E+00  9.000E+00
#rwgt            1           1   2.9895737232424498E-002           8       74754           0
</event>
<event>
      5   9999  3.19816E-02  8.55943E+00 -1.00000E+00  2.03905E-01
      21    -1     0     0   502   501  0.000000000E+00  0.000000000E+00  2.304903230E+03  2.304903230E+03  0.000000000E+00  0.00000E+00  9.000E+00
      21    -1     0     0   512   502  0.000000000E+00  0.000000000E+00 -4.555552595E+02  4.555552595E+02  0.000000000E+00  0.00000E+00  9.000E+00
      25     1     1     2     0     0  7.646169804E+02  6.522715615E+02  1.079791630E+03  1.480429762E+03  1.250000000E+02  0.00000E+00  9.000E+00
      25     1     1     2     0     0 -7.574242118E+02 -6.569113806E+02  7.715089438E+02  1.271249405E+03  1.250000000E+02  0.00000E+00  9.000E+00
      21     1     1     2   512   501 -7.192768556E+00  4.639819122E+00 -1.952603520E+00  8.779322382E+00  2.289159819E-07  0.00000E+00  9.000E+00
#rwgt            1           1   2.7639855891384863E-002           8       74790           0
</event>
<event>
      5   9999  3.19816E-02  8.47025E+02 -1.00000E+00  9.27561E-02
      -2    -1     0     0     0   501  0.000000000E+00  0.000000000E+00  1.492116906E+03  1.492116906E+03  0.000000000E+00  0.00000E+00  9.000E+00
      21    -1     0     0   501   502  0.000000000E+00  0.000000000E+00 -6.040434786E+02  6.040434786E+02  0.000000000E+00  0.00000E+00  9.000E+00
      25     1     1     2     0     0  1.779500105E+02  1.505137332E+02  3.362053530E+02  4.277611828E+02  1.250000000E+02  0.00000E+00  9.000E+00
      25     1     1     2     0     0  6.434710942E+02  5.617057098E+01  8.215157892E-01  6.579026197E+02  1.250000000E+02  0.00000E+00  9.000E+00
      -2     1     1     2     0   502 -8.214211046E+02 -2.066843042E+02  5.510465586E+02  1.010496582E+03  1.525878906E-05  0.00000E+00  9.000E+00
#rwgt            2           4   5.0991322682694150E-005           8       75353           0
</event>
<event>
      5   9999  3.19816E-02  1.01033E+02 -1.00000E+00  1.23628E-01
      21    -1     0     0   502   501  0.000000000E+00  0.000000000E+00  9.584231045E+02  9.584231045E+02  0.000000000E+00  0.00000E+00  9.000E+00
      21    -1     0     0   511   502  0.000000000E+00  0.000000000E+00 -6.362727471E+02  6.362727471E+02  0.000000000E+00  0.00000E+00  9.000E+00
      25     1     1     2     0     0  2.506586488E+02 -2.350378454E+02 -2.511906495E+02  4.436150239E+02  1.250000000E+02  0.00000E+00  9.000E+00
      25     1     1     2     0     0 -2.291787515E+02  1.363145936E+02  8.270907203E+02  8.779570765E+02  1.250000000E+02  0.00000E+00  9.000E+00
      21     1     1     2   511   501 -2.147989723E+01  9.872325179E+01 -2.537497133E+02  2.731237512E+02  0.000000000E+00  0.00000E+00  9.000E+00
#rwgt            1           1   2.7868900270668334E-002           8       75402           0
</event>
<event>
      5   9999  3.19816E-02  6.59662E+01 -1.00000E+00  1.32540E-01
      21    -1     0     0   502   501  0.000000000E+00  0.000000000E+00  1.824887287E+03  1.824887287E+03  0.000000000E+00  0.00000E+00  9.000E+00
      21    -1     0     0   512   502  0.000000000E+00  0.000000000E+00 -1.224719183E+03  1.224719183E+03  0.000000000E+00  0.00000E+00  9.000E+00
      25     1     1     2     0     0  1.027284930E+01 -8.458653971E+02 -9.198678523E+02  1.255936172E+03  1.250000000E+02  0.00000E+00  9.000E+00
      25     1     1     2     0     0  5.032106863E+01  8.197901746E+02  1.514586364E+03  1.727479376E+03  1.250000000E+02  0.00000E+00  9.000E+00
      21     1     1     2   512   501 -6.059391793E+01  2.607522248E+01  5.449592414E+00  6.619092215E+01  1.435469935E-06  0.00000E+00  9.000E+00
#rwgt            1           1   4.6563711883028325E-002           8       75489           0
</event>
<event>
      5   9999  3.19816E-02  4.75425E+01 -1.00000E+00  1.40336E-01
      21    -1     0     0   502   501  0.000000000E+00  0.000000000E+00  4.908302546E+02  4.908302546E+02  0.000000000E+00  0.00000E+00  9.000E+00
      21    -1     0     0   501   511  0.000000000E+00  0.000000000E+00 -1.452357175E+03  1.452357175E+03  0.000000000E+00  0.00000E+00  9.000E+00
      25     1     1     2     0     0 -4.056198200E+02 -5.627768223E+02 -1.924489518E+02  7.306892562E+02  1.250000000E+02  0.00000E+00  9.000E+00
      25     1     1     2     0     0  4.322212222E+02  6.021806171E+02 -4.217602713E+02  8.619416494E+02  1.250000000E+02  0.00000E+00  9.000E+00
      21     1     1     2   502   511 -2.660140221E+01 -3.940379478E+01 -3.473176970E+02  3.505565237E+02  3.814697266E-06  0.00000E+00  9.000E+00
#rwgt            1           1   3.2661273102605352E-002           8       75644           0
</event>
<event>
      5   9999  3.19816E-02  8.13874E+00 -1.00000E+00  2.06699E-01
      21    -1     0     0   512   501  0.000000000E+00  0.000000000E+00  1.926241767E+02  1.926241767E+02  0.000000000E+00  0.00000E+00  9.000E+00
      21    -1     0     0   501   502  0.000000000E+00  0.000000000E+00 -5.099626656E+02  5.099626656E+02  0.000000000E+00  0.00000E+00  9.000E+00
      25     1     1     2     0     0  3.386111065E+01 -2.369710303E+02 -2.995458044E+01  2.717059456E+02  1.250000000E+02  0.00000E+00  9.000E+00
      25     1     1     2     0     0 -3.896421648E+01  2.306308874E+02 -3.093418731E+02  4.074631404E+02  1.250000000E+02  0.00000E+00  9.000E+00
      21     1     1     2   512   502  5.103105830E+00  6.340142885E+00  2.195796461E+01  2.341775631E+01  4.768371582E-07  0.00000E+00  9.000E+00
#rwgt            1           1   2.4610524924026350E-002           8       75780           0
</event>
<event>
      5   9999  3.19816E-02  1.67530E+01 -1.00000E+00  1.72978E-01
      21    -1     0     0   502   501  0.000000000E+00  0.000000000E+00  6.517900608E+02  6.517900608E+02  0.000000000E+00  0.00000E+00  9.000E+00
      21    -1     0     0   501   511  0.000000000E+00  0.000000000E+00 -7.663176843E+01  7.663176843E+01  0.000000000E+00  0.00000E+00  9.000E+00
      25     1     1     2     0     0  1.485158396E+01 -1.026095580E+02  4.952069251E+01  1.697839507E+02  1.250000000E+02  0.00000E+00  9.000E+00
      25     1     1     2     0     0 -2.983924089E-01  1.109081339E+02  5.057025854E+02  5.325981676E+02  1.250000000E+02  0.00000E+00  9.000E+00
      21     1     1     2   502   511 -1.455319155E+01 -8.298575903E+00  1.993501446E+01  2.603971098E+01  2.384185791E-07  0.00000E+00  9.000E+00
#rwgt            1           1   2.7698275999690613E-002           8       75972           0
</event>
<event>
      5   9999  3.19816E-02  1.40982E+01 -1.00000E+00  1.79958E-01
      21    -1     0     0   502   512  0.000000000E+00  0.000000000E+00  7.772551270E+02  7.772551270E+02  0.000000000E+00  0.00000E+00  9.000E+00
      21    -1     0     0   501   502  0.000000000E+00  0.000000000E+00 -1.762289166E+02  1.762289166E+02  0.000000000E+00  0.00000E+00  9.000E+00
      25     1     1     2     0     0  2.066815019E+02 -6.308258169E+01  5.864190947E+02  6.373452831E+02  1.250000000E+02  0.00000E+00  9.000E+00
      25     1     1     2     0     0 -1.959003590E+02  7.216704408E+01 -5.135122603E+01  2.486905333E+02  1.250000000E+02  0.00000E+00  9.000E+00
      21     1     1     2   501   512 -1.078114283E+01 -9.084462387E+00  6.595834178E+01  6.744822717E+01  0.000000000E+00  0.00000E+00  9.000E+00
#rwgt            1           1   3.1910772959435528E-002           8       76135           0
</event>
<event>
      5   9999  3.19816E-02  8.97266E+01 -1.00000E+00  1.25983E-01
      21    -1     0     0   502   511  0.000000000E+00  0.000000000E+00  5.038122937E+01  5.038122937E+01  0.000000000E+00  0.00000E+00  9.000E+00
      21    -1     0     0   501   502  0.000000000E+00  0.000000000E+00 -1.353802149E+03  1.353802149E+03  0.000000000E+00  0.00000E+00  9.000E+00
      25     1     1     2     0     0 -9.487921396E+01  1.016558550E+01 -8.805910677E+02  8.945227962E+02  1.250000000E+02  0.00000E+00  9.000E+00
      25     1     1     2     0     0  1.136145177E+02  7.758321209E+01 -3.402616618E+02  3.877246599E+02  1.250000000E+02  0.00000E+00  9.000E+00
      21     1     1     2   501   511 -1.873530372E+01 -8.774879760E+01 -8.256818973E+01  1.219359219E+02  9.536743164E-07  0.00000E+00  9.000E+00
#rwgt            1           1   2.7047676144314223E-002           8       76386           0
</event>
<event>
      5   9999  3.19816E-02  3.17185E+01 -1.00000E+00  1.51378E-01
      21    -1     0     0   502   512  0.000000000E+00  0.000000000E+00  3.931971891E+02  3.931971891E+02  0.000000000E+00  0.00000E+00  9.000E+00
      21    -1     0     0   501   502  0.000000000E+00  0.000000000E+00 -4.851715416E+02  4.851715416E+02  0.000000000E+00  0.00000E+00  9.000E+00
      25     1     1     2     0     0 -3.286490637E+02  2.396897013E+02 -8.808197108E+00  4.256335799E+02  1.250000000E+02  0.00000E+00  9.000E+00
      25     1     1     2     0     0  3.005508915E+02 -2.544055512E+02 -8.052826386E+01  4.209071443E+02  1.250000000E+02  0.00000E+00  9.000E+00
      21     1     1     2   501   512  2.809817222E+01  1.471584988E+01 -2.637891527E+00  3.182800640E+01  6.835070217E-07  0.00000E+00  9.000E+00
#rwgt            1           1   3.0922555120116813E-002           8       76441           0
</event>
<event>
      5   9999  3.19816E-02  1.63449E+02 -1.00000E+00  1.14935E-01
      21    -1     0     0   502   501  0.000000000E+00  0.000000000E+00  1.571635601E+02  1.571635601E+02  0.000000000E+00  0.00000E+00  9.000E+00
      21    -1     0     0   501   511  0.000000000E+00  0.000000000E+00 -2.281584200E+03  2.281584200E+03  0.000000000E+00  0.00000E+00  9.000E+00
      25     1     1     2     0     0  3.319755905E+02 -1.528171340E+02 -2.931395549E+02  4.848883044E+02  1.250000000E+02  0.00000E+00  9.000E+00
      25     1     1     2     0     0 -4.028924907E+02  3.000801182E+02 -1.384466180E+03  1.478087291E+03  1.250000000E+02  0.00000E+00  9.000E+00
      21     1     1     2   502   511  7.091690024E+01 -1.472629841E+02 -4.468149047E+02  4.757721642E+02  7.629394531E-06  0.00000E+00  9.000E+00
#rwgt            1           1   3.4701061724766329E-002           8       76642           0
</event>
<event>
      5   9999  3.19816E-02  3.85843E+01 -1.00000E+00  1.45817E-01
       2    -1     0     0   502     0  0.000000000E+00  0.000000000E+00  1.408808259E+03  1.408808259E+03  0.000000000E+00  0.00000E+00  9.000E+00
      21    -1     0     0   501   502  0.000000000E+00  0.000000000E+00 -2.496386271E+02  2.496386271E+02  0.000000000E+00  0.00000E+00  9.000E+00
      25     1     1     2     0     0 -1.758154472E+02 -2.454293406E+02 -1.083705960E+02  3.442612653E+02  1.250000000E+02  0.00000E+00  9.000E+00
      25     1     1     2     0     0  1.372450133E+02  2.443960129E+02  1.082489651E+03  1.125155300E+03  1.250000000E+02  0.00000E+00  9.000E+00
       2     1     1     2   501     0  3.857043391E+01  1.033327636E+00  1.850505770E+02  1.890303208E+02  3.814697266E-06  0.00000E+00  9.000E+00
#rwgt            1           1   2.8756590824545684E-002           8       76738           0
</event>
<event>
      5   9999  3.19816E-02  3.13712E+01 -1.00000E+00  1.51704E-01
      21    -1     0     0   502   501  0.000000000E+00  0.000000000E+00  1.216456025E+03  1.216456025E+03  0.000000000E+00  0.00000E+00  9.000E+00
      21    -1     0     0   501   511  0.000000000E+00  0.000000000E+00 -7.402704991E+01  7.402704991E+01  0.000000000E+00  0.00000E+00  9.000E+00
      25     1     1     2     0     0  1.613565897E+01 -1.949766008E+02  3.088996836E+02  3.864197833E+02  1.250000000E+02  0.00000E+00  9.000E+00
      25     1     1     2     0     0 -2.606451299E+01  1.652181211E+02  8.451848914E+02  8.705968567E+02  1.250000000E+02  0.00000E+00  9.000E+00
      21     1     1     2   502   511  9.928854014E+00  2.975847970E+01 -1.165559988E+01  3.346643489E+01  9.684608465E-07  0.00000E+00  9.000E+00
#rwgt            1           1   3.1146006313482005E-002           8       76866           0
</event>
<event>
      5   9999  3.19816E-02  5.35576E+01 -1.00000E+00  1.37393E-01
      21    -1     0     0   502   501  0.000000000E+00  0.000000000E+00  3.510546017E+02  3.510546017E+02  0.000000000E+00  0.00000E+00  9.000E+00
      21    -1     0     0   501   512  0.000000000E+00  0.000000000E+00 -6.706878866E+02  6.706878866E+02  0.000000000E+00  0.00000E+00  9.000E+00
      25     1     1     2     0     0 -1.619618520E+02 -3.101154162E+02  4.472641243E+00  3.715484052E+02  1.250000000E+02  0.00000E+00  9.000E+00
      25     1     1     2     0     0  2.000732403E+02  3.477443445E+02 -1.168908949E+02  4.361695908E+02  1.250000000E+02  0.00000E+00  9.000E+00
      21     1     1     2   502   512 -3.811138830E+01 -3.762892828E+01 -2.072150312E+02  2.140244924E+02  2.697398305E-06  0.00000E+00  9.000E+00
#rwgt            1           1   3.0439736871038424E-002           8       76963           0
</event>
<event>
      5   9999  3.19816E-02  6.88461E+01 -1.00000E+00  1.31587E-01
      21    -1     0     0   502   501  0.000000000E+00  0.000000000E+00  7.125138224E+02  7.125138224E+02  0.000000000E+00  0.00000E+00  9.000E+00
      21    -1     0     0   501   511  0.000000000E+00  0.000000000E+00 -4.328504085E+02  4.328504085E+02  0.000000000E+00  0.00000E+00  9.000E+00
      25     1     1     2     0     0  3.208313946E+02  3.632602268E+02  1.453988913E+01  5.007266565E+02  1.250000000E+02  0.00000E+00  9.000E+00
      25     1     1     2     0     0 -2.521981571E+02 -3.686694210E+02  3.140694717E+02  5.601657661E+02  1.250000000E+02  0.00000E+00  9.000E+00
      21     1     1     2   502   511 -6.863323750E+01  5.409194187E+00 -4.894594686E+01  8.447180823E+01  1.168007728E-06  0.00000E+00  9.000E+00
#rwgt            1           1   2.9591919980440102E-002           8       77072           0
</event>
<event>
      5   9999  3.19816E-02  5.71271E+01 -1.00000E+00  1.35852E-01
      21    -1     0     0   502   501  0.000000000E+00  0.000000000E+00  6.453015366E+02  6.453015366E+02  0.000000000E+00  0.00000E+00  9.000E+00
      21    -1     0     0   512   502  0.000000000E+00  0.000000000E+00 -1.489092793E+03  1.489092793E+03  0.000000000E+00  0.00000E+00  9.000E+00
      25     1     1     2     0     0  7.849182360E+02 -1.573257451E+02 -8.640415191E+02  1.184500221E+03  1.250000000E+02  0.00000E+00  9.000E+00
      25     1     1     2     0     0 -8.365397938E+02  1.817944720E+02  7.801286038E+01  8.686535920E+02  1.250000000E+02  0.00000E+00  9.000E+00
      21     1     1     2   512   501  5.162155775E+01 -2.446872685E+01 -5.776259816E+01  8.124051677E+01  6.743495762E-07  0.00000E+00  9.000E+00
#rwgt            1           1   2.9114135714619328E-002           8       77175           0
</event>
<event>
      5   9999  3.19816E-02  2.48679E+01 -1.00000E+00  1.58923E-01
      21    -1     0     0   502   501  0.000000000E+00  0.000000000E+00  5.423525019E+02  5.423525019E+02  0.000000000E+00  0.00000E+00  9.000E+00
      21    -1     0     0   511   502  0.000000000E+00  0.000000000E+00 -9.362674156E+01  9.362674156E+01  0.000000000E+00  0.00000E+00  9.000E+00
      25     1     1     2     0     0  1.079003101E+02 -3.737155056E+01  1.765480018E+02  2.446084762E+02  1.250000000E+02  0.00000E+00  9.000E+00
      25     1     1     2     0     0 -1.031946231E+02  6.179020147E+01  3.045861210E+02  3.505208473E+02  1.250000000E+02  0.00000E+00  9.000E+00
      21     1     1     2   511   501 -4.705686938E+00 -2.441865091E+01 -3.240836248E+01  4.084991996E+01  1.348699152E-06  0.00000E+00  9.000E+00
#rwgt            1           1   3.1510141473760772E-002           8       77321           0
</event>
<event>
      5   9999  3.19816E-02  9.73592E+00 -1.00000E+00  1.97110E-01
      21    -1     0     0   502   501  0.000000000E+00  0.000000000E+00  5.106676129E+01  5.106676129E+01  0.000000000E+00  0.00000E+00  9.000E+00
      21    -1     0     0   512   502  0.000000000E+00  0.000000000E+00 -1.517868530E+03  1.517868530E+03  0.000000000E+00  0.00000E+00  9.000E+00
      25     1     1     2     0     0  1.974708669E+02  1.089159202E+02 -5.048239719E+02  5.668594742E+02  1.250000000E+02  0.00000E+00  9.000E+00
      25     1     1     2     0     0 -2.071100776E+02 -1.102847426E+02 -8.734815479E+02  9.130456304E+02  1.250000000E+02  0.00000E+00  9.000E+00
      21     1     1     2   512   501  9.639210683E+00  1.368822428E+00 -8.849624938E+01  8.903018708E+01  9.536743164E-07  0.00000E+00  9.000E+00
#rwgt            1           1   2.9084701609724938E-002           8       77419           0
</event>
<event>
      5   9999  3.19816E-02  1.54554E+02 -1.00000E+00  1.15881E-01
       2    -1     0     0   502     0  0.000000000E+00  0.000000000E+00  6.478996249E+02  6.478996249E+02  0.000000000E+00  0.00000E+00  9.000E+00
      21    -1     0     0   501   502  0.000000000E+00  0.000000000E+00 -1.531993682E+03  1.531993682E+03  0.000000000E+00  0.00000E+00  9.000E+00
      25     1     1     2     0     0 -1.318468648E+02 -1.350879954E+02 -1.429413561E+03  1.447232010E+03  1.250000000E+02  0.00000E+00  9.000E+00
      25     1     1     2     0     0  5.916636671E+00  4.548566577E+01 -3.038394917E+01  1.365728258E+02  1.250000000E+02  0.00000E+00  9.000E+00
       2     1     1     2   501     0  1.259302281E+02  8.960232963E+01  5.757034530E+02  5.960884713E+02  1.078959322E-05  0.00000E+00  9.000E+00
#rwgt            1           1   3.3761675728533350E-002           8       77658           0
</event>
<event>
      5   9999  3.19816E-02  7.43795E+01 -1.00000E+00  1.29900E-01
      21    -1     0     0   502   501  0.000000000E+00  0.000000000E+00  3.429817832E+02  3.429817832E+02  0.000000000E+00  0.00000E+00  9.000E+00
      21    -1     0     0   511   502  0.000000000E+00  0.000000000E+00 -7.323552551E+02  7.323552551E+02  0.000000000E+00  0.00000E+00  9.000E+00
      25     1     1     2     0     0 -2.862247921E+02  2.571052008E+02  7.775468511E+00  4.046148463E+02  1.250000000E+02  0.00000E+00  9.000E+00
      25     1     1     2     0     0  3.602113749E+02 -2.647407865E+02 -3.216087513E+02  5.647097551E+02  1.250000000E+02  0.00000E+00  9.000E+00
      21     1     1     2   511   501 -7.398658271E+01  7.635585655E+00 -7.554018912E+01  1.060124368E+02  1.348699152E-06  0.00000E+00  9.000E+00
#rwgt            1           1   2.9869065126036761E-002           8       77699           0
</event>
<event>
      5   9999  3.19816E-02  1.02146E+02 -1.00000E+00  1.23415E-01
      21    -1     0     0   512   501  0.000000000E+00  0.000000000E+00  3.977805121E+02  3.977805121E+02  0.000000000E+00  0.00000E+00  9.000E+00
      21    -1     0     0   501   502  0.000000000E+00  0.000000000E+00 -1.370822250E+03  1.370822250E+03  0.000000000E+00  0.00000E+00  9.000E+00
      25     1     1     2     0     0 -5.716159645E+01 -5.101505690E+02 -1.048032829E+03  1.173677495E+03  1.250000000E+02  0.00000E+00  9.000E+00
      25     1     1     2     0     0 -1.920719771E+01  4.423158035E+02 -1.282676776E+01  4.602192004E+02  1.250000000E+02  0.00000E+00  9.000E+00
      21     1     1     2   512   502  7.636879415E+01  6.783476557E+01  8.781785884E+01  1.347060669E+02  1.348699152E-06  0.00000E+00  9.000E+00
#rwgt            1           1   3.5120669596887928E-002           8       77775           0
</event>
<event>
      5   9999  3.19816E-02  1.87523E+01 -1.00000E+00  1.68711E-01
      21    -1     0     0   502   501  0.000000000E+00  0.000000000E+00  9.913261615E+02  9.913261615E+02  0.000000000E+00  0.00000E+00  9.000E+00
      21    -1     0     0   511   502  0.000000000E+00  0.000000000E+00 -7.107282867E+02  7.107282867E+02  0.000000000E+00  0.00000E+00  9.000E+00
      25     1     1     2     0     0 -1.291887474E+02  1.255990182E+02  4.301892324E+02  4.828588008E+02  1.250000000E+02  0.00000E+00  9.000E+00
      25     1     1     2     0     0  1.365435359E+02 -1.428488218E+02  5.091038477E+02  5.602335681E+02  1.250000000E+02  0.00000E+00  9.000E+00
      21     1     1     2   511   501 -7.354788514E+00  1.724980359E+01 -6.586952053E+02  6.589620794E+02  1.321449896E-05  0.00000E+00  9.000E+00
#rwgt            1           1   2.9319201613931534E-002           8       77895           0
</event>
<event>
      5   9999  3.19816E-02  1.54672E+02 -1.00000E+00  1.15868E-01
      21    -1     0     0   502   501  0.000000000E+00  0.000000000E+00  4.600971638E+01  4.600971638E+01  0.000000000E+00  0.00000E+00  9.000E+00
       2    -1     0     0   501     0  0.000000000E+00  0.000000000E+00 -3.020164843E+03  3.020164843E+03  0.000000000E+00  0.00000E+00  9.000E+00
      25     1     1     2     0     0  1.951554747E+02  2.029724475E+02 -1.221146122E+03  1.259407133E+03  1.250000000E+02  0.00000E+00  9.000E+00
      25     1     1     2     0     0 -4.163934308E+01 -2.218467966E+02 -7.807062567E+02  8.222390743E+02  1.250000000E+02  0.00000E+00  9.000E+00
       2     1     1     2   502     0 -1.535161317E+02  1.887434912E+01 -9.723027474E+02  9.845283523E+02  0.000000000E+00  0.00000E+00  9.000E+00
#rwgt            1           1   8.1748724549004018E-002           8       78043           0
</event>
<event>
      5   9999  3.19816E-02  1.44957E+02 -1.00000E+00  1.16985E-01
      21    -1     0     0   502   501  0.000000000E+00  0.000000000E+00  3.495811699E+02  3.495811699E+02  0.000000000E+00  0.00000E+00  9.000E+00
      21    -1     0     0   501   511  0.000000000E+00  0.000000000E+00 -8.075542533E+02  8.075542533E+02  0.000000000E+00  0.00000E+00  9.000E+00
      25     1     1     2     0     0  4.682351672E+02  1.076527911E+02 -1.667419775E+02  5.236995153E+02  1.250000000E+02  0.00000E+00  9.000E+00
      25     1     1     2     0     0 -3.348927218E+02 -1.645070037E+02 -1.249911271E+02  4.128722214E+02  1.250000000E+02  0.00000E+00  9.000E+00
      21     1     1     2   502   511 -1.333424454E+02  5.685421253E+01 -1.662399788E+02  2.205636864E+02  2.697398305E-06  0.00000E+00  9.000E+00
#rwgt            1           1   2.8015388620305351E-002           8       78105           0
</event>
<event>
      5   9999  3.19816E-02  1.59250E+02 -1.00000E+00  1.15373E-01
      21    -1     0     0   502   501  0.000000000E+00  0.000000000E+00  4.739187484E+02  4.739187484E+02  0.000000000E+00  0.00000E+00  9.000E+00
       1    -1     0     0   501     0  0.000000000E+00  0.000000000E+00 -1.219164651E+03  1.219164651E+03  0.000000000E+00  0.00000E+00  9.000E+00
      25     1     1     2     0     0  1.217250353E+00 -1.534500289E+02  4.190078005E+02  4.634014782E+02  1.250000000E+02  0.00000E+00  9.000E+00
      25     1     1     2     0     0 -1.523158875E+02  1.031522147E+02 -5.111021851E+02  5.573965847E+02  1.250000000E+02  0.00000E+00  9.000E+00
       1     1     1     2   502     0  1.510986371E+02  5.029781423E+01 -6.531515183E+02  6.722853368E+02  1.078959322E-05  0.00000E+00  9.000E+00
#rwgt            1           1   2.5437379619687429E-002           8       78153           0
</event>
<event>
      5   9999  3.19816E-02  7.45390E+01 -1.00000E+00  1.29854E-01
      21    -1     0     0   502   501  0.000000000E+00  0.000000000E+00  4.781623353E+02  4.781623353E+02  0.000000000E+00  0.00000E+00  9.000E+00
      21    -1     0     0   511   502  0.000000000E+00  0.000000000E+00 -2.760880002E+02  2.760880002E+02  0.000000000E+00  0.00000E+00  9.000E+00
      25     1     1     2     0     0  1.767754762E+02  2.428958773E+02  4.044289260E+01  3.278850466E+02  1.250000000E+02  0.00000E+00  9.000E+00
      25     1     1     2     0     0 -1.053883462E+02 -2.643420325E+02  1.647078826E+02  3.517628466E+02  1.250000000E+02  0.00000E+00  9.000E+00
      21     1     1     2   511   501 -7.138713003E+01  2.144615521E+01 -3.076440077E+00  7.460244226E+01  1.083592115E-06  0.00000E+00  9.000E+00
#rwgt            2          11   3.6391296374588549E-003           8       78308           0
</event>
<event>
      5   9999  3.19816E-02  6.93265E+01 -1.00000E+00  1.31434E-01
      21    -1     0     0   512   501  0.000000000E+00  0.000000000E+00  2.197424801E+02  2.197424801E+02  0.000000000E+00  0.00000E+00  9.000E+00
      21    -1     0     0   501   502  0.000000000E+00  0.000000000E+00 -5.137353647E+02  5.137353647E+02  0.000000000E+00  0.00000E+00  9.000E+00
      25     1     1     2     0     0 -1.632848514E+02  6.630025624E+01 -3.535493765E+02  4.143426461E+02  1.250000000E+02  0.00000E+00  9.000E+00
      25     1     1     2     0     0  2.086053424E+02 -1.383867677E+01  3.796297098E+01  2.465235993E+02  1.250000000E+02  0.00000E+00  9.000E+00
      21     1     1     2   512   502 -4.532049100E+01 -5.246157947E+01  2.159352104E+01  7.261159946E+01  1.066240300E-06  0.00000E+00  9.000E+00
#rwgt            1           1   2.4640118734301535E-002           8       78343           0
</event>
<event>
      5   9999  3.19816E-02  4.65289E+01 -1.00000E+00  1.40882E-01
      21    -1     0     0   502   501  0.000000000E+00  0.000000000E+00  1.141332588E+03  1.141332588E+03  0.000000000E+00  0.00000E+00  9.000E+00
      21    -1     0     0   501   511  0.000000000E+00  0.000000000E+00 -1.588782726E+02  1.588782726E+02  0.000000000E+00  0.00000E+00  9.000E+00
      25     1     1     2     0     0  1.728498583E+02 -1.760656139E+02  4.325569317E+02  5.134264048E+02  1.250000000E+02  0.00000E+00  9.000E+00
      25     1     1     2     0     0 -2.110379907E+02  2.026476836E+02  6.233399283E+02  6.998433992E+02  1.250000000E+02  0.00000E+00  9.000E+00
      21     1     1     2   502   511  3.818813236E+01 -2.658206968E+01 -7.344254490E+01  8.694105637E+01  3.015782986E-06  0.00000E+00  9.000E+00
#rwgt            1           1   2.7696837358615608E-002           8       78420           0
</event>
<event>
      5   9999  3.19816E-02  1.53012E+02 -1.00000E+00  1.16052E-01
      21    -1     0     0   502   512  0.000000000E+00  0.000000000E+00  4.065136759E+02  4.065136759E+02  0.000000000E+00  0.00000E+00  9.000E+00
      21    -1     0     0   501   502  0.000000000E+00  0.000000000E+00 -2.637138331E+02  2.637138331E+02  0.000000000E+00  0.00000E+00  9.000E+00
      25     1     1     2     0     0 -1.270364763E+02 -2.172893942E+02  2.029793514E+01  2.817622283E+02  1.250000000E+02  0.00000E+00  9.000E+00
      25     1     1     2     0     0 -1.172517745E+01  1.528072762E+02  9.039788892E+00  1.979754056E+02  1.250000000E+02  0.00000E+00  9.000E+00
      21     1     1     2   501   512  1.387616538E+02  6.448211799E+01  1.134621188E+02  1.904898750E+02  2.336015456E-06  0.00000E+00  9.000E+00
#rwgt            2          11   2.7262785774777444E-003           8       78571           0
</event>
<event>
      5   9999  3.19816E-02  1.31341E+02 -1.00000E+00  1.18727E-01
      21    -1     0     0   502   501  0.000000000E+00  0.000000000E+00  5.533398826E+02  5.533398826E+02  0.000000000E+00  0.00000E+00  9.000E+00
      21    -1     0     0   511   502  0.000000000E+00  0.000000000E+00 -9.601513248E+02  9.601513248E+02  0.000000000E+00  0.00000E+00  9.000E+00
      25     1     1     2     0     0  6.756068872E+02 -1.628047749E+02 -2.227953211E+02  7.404139490E+02  1.250000000E+02  0.00000E+00  9.000E+00
      25     1     1     2     0     0 -5.794157317E+02  7.337503839E+01 -7.417250608E+01  6.018579958E+02  1.250000000E+02  0.00000E+00  9.000E+00
      21     1     1     2   511   501 -9.619115548E+01  8.942973646E+01 -1.098436150E+02  1.712192627E+02  1.348699152E-06  0.00000E+00  9.000E+00
#rwgt            1           1   2.5707346112142020E-002           8       78621           0
</event>
<event>
      5   9999  3.19816E-02  2.22898E+02 -1.00000E+00  1.09961E-01
       1    -1     0     0   502     0  0.000000000E+00  0.000000000E+00  2.334261261E+03  2.334261261E+03  0.000000000E+00  0.00000E+00  9.000E+00
      21    -1     0     0   501   502  0.000000000E+00  0.000000000E+00 -1.814962028E+02  1.814962028E+02  0.000000000E+00  0.00000E+00  9.000E+00
      25     1     1     2     0     0  8.671149599E+00  4.468642901E+02  2.780855990E+02  5.410355654E+02  1.250000000E+02  0.00000E+00  9.000E+00
      25     1     1     2     0     0  1.573053567E+02 -2.980841273E+02  7.982742627E+02  8.754803943E+02  1.250000000E+02  0.00000E+00  9.000E+00
       1     1     1     2   501     0 -1.659765063E+02 -1.487801628E+02  1.076405196E+03  1.099241504E+03  1.525878906E-05  0.00000E+00  9.000E+00
#rwgt            1           1   3.1022151926759129E-002           8       78705           0
</event>
<event>
      5   9999  3.19816E-02  2.04611E+02 -1.00000E+00  1.11289E-01
       1    -1     0     0   502     0  0.000000000E+00  0.000000000E+00  2.114097777E+03  2.114097777E+03  0.000000000E+00  0.00000E+00  9.000E+00
      21    -1     0     0   501   502  0.000000000E+00  0.000000000E+00 -2.954102245E+02  2.954102245E+02  0.000000000E+00  0.00000E+00  9.000E+00
      25     1     1     2     0     0 -1.744348309E+00 -1.151961124E+02  4.261997062E+02  4.588511487E+02  1.250000000E+02  0.00000E+00  9.000E+00
      25     1     1     2     0     0  1.179522465E+01  3.195598676E+02 -1.641968119E+02  3.805827497E+02  1.250000000E+02  0.00000E+00  9.000E+00
       1     1     1     2   501     0 -1.005087634E+01 -2.043637552E+02  1.556684658E+03  1.570074103E+03  3.737624730E-05  0.00000E+00  9.000E+00
#rwgt            2          17   8.9964891962771357E-004           8       78749           0
</event>
<event>
      5   9999  3.19816E-02  1.61412E+02 -1.00000E+00  1.15145E-01
      21    -1     0     0   502   501  0.000000000E+00  0.000000000E+00  5.775877944E+02  5.775877944E+02  0.000000000E+00  0.00000E+00  9.000E+00
      21    -1     0     0   511   502  0.000000000E+00  0.000000000E+00 -3.500197998E+02  3.500197998E+02  0.000000000E+00  0.00000E+00  9.000E+00
      25     1     1     2     0     0  3.298929881E+02 -1.057912888E+02  2.688377391E+02  4.559823575E+02  1.250000000E+02  0.00000E+00  9.000E+00
      25     1     1     2     0     0 -1.967973752E+02  1.971116608E+02 -1.145001645E+00  3.053007120E+02  1.250000000E+02  0.00000E+00  9.000E+00
      21     1     1     2   511   501 -1.330956129E+02 -9.132037202E+01 -4.012474280E+01  1.663245247E+02  1.784161275E-06  0.00000E+00  9.000E+00
#rwgt            1           1   2.8661131851871080E-002           8       78783           0
</event>
<event>
      5   9999  3.19816E-02  8.89279E+01 -1.00000E+00  1.26164E-01
       2    -1     0     0   502     0  0.000000000E+00  0.000000000E+00  3.718613595E+03  3.718613595E+03  0.000000000E+00  0.00000E+00  9.000E+00
      21    -1     0     0   501   502  0.000000000E+00  0.000000000E+00 -2.140751629E+02  2.140751629E+02  0.000000000E+00  0.00000E+00  9.000E+00
      25     1     1     2     0     0 -1.727568502E+02  1.599242748E+02  1.123442255E+02  2.892523603E+02  1.250000000E+02  0.00000E+00  9.000E+00
      25     1     1     2     0     0  1.944816043E+02 -2.461577247E+02  1.030265902E+02  3.530668466E+02  1.250000000E+02  0.00000E+00  9.000E+00
       2     1     1     2   501     0 -2.172475415E+01  8.623344993E+01  3.289167616E+03  3.290369550E+03  6.103515625E-05  0.00000E+00  9.000E+00
#rwgt            1           1   2.6203769846678677E-002           8       78833           0
</event>
<event>
      5   9999  3.19816E-02  1.47065E+02 -1.00000E+00  1.16735E-01
      21    -1     0     0   502   501  0.000000000E+00  0.000000000E+00  6.778469727E+02  6.778469727E+02  0.000000000E+00  0.00000E+00  9.000E+00
      21    -1     0     0   501   511  0.000000000E+00  0.000000000E+00 -5.394640663E+02  5.394640663E+02  0.000000000E+00  0.00000E+00  9.000E+00
      25     1     1     2     0     0 -3.076865123E+02  3.470536091E+02  2.163694055E+02  5.268376572E+02  1.250000000E+02  0.00000E+00  9.000E+00
      25     1     1     2     0     0  2.467090487E+02 -2.132256288E+02  1.804763337E+02  3.930995173E+02  1.250000000E+02  0.00000E+00  9.000E+00
      21     1     1     2   502   511  6.097746363E+01 -1.338279803E+02 -2.584628328E+02  2.973738645E+02  3.814697266E-06  0.00000E+00  9.000E+00
#rwgt            1           1   2.6003693102421347E-002           8       78923           0
</event>
<event>
      5   9999  3.19816E-02  4.76428E+01 -1.00000E+00  1.40283E-01
      21    -1     0     0   502   501  0.000000000E+00  0.000000000E+00  4.810678453E+02  4.810678453E+02  0.000000000E+00  0.00000E+00  9.000E+00
      21    -1     0     0   501   512  0.000000000E+00  0.000000000E+00 -5.589661025E+02  5.589661025E+02  0.000000000E+00  0.00000E+00  9.000E+00
      25     1     1     2     0     0 -2.961651100E+02 -2.045255494E+02 -2.165842153E+02  4.382672644E+02  1.250000000E+02  0.00000E+00  9.000E+00
      25     1     1     2     0     0  2.529844622E+02  1.843943549E+02  2.890430227E+02  4.440419859E+02  1.250000000E+02  0.00000E+00  9.000E+00
      21     1     1     2   502   512  4.318064787E+01  2.013119441E+01 -1.503570646E+02  1.577246975E+02  1.907348633E-06  0.00000E+00  9.000E+00
#rwgt            1           1   3.0310199331820761E-002           8       78957           0
</event>
<event>
      5   9999  3.19816E-02  6.23380E+01 -1.00000E+00  1.33822E-01
       1    -1     0     0   502     0  0.000000000E+00  0.000000000E+00  8.521641286E+02  8.521641286E+02  0.000000000E+00  0.00000E+00  9.000E+00
      21    -1     0     0   501   502  0.000000000E+00  0.000000000E+00 -1.725816404E+02  1.725816404E+02  0.000000000E+00  0.00000E+00  9.000E+00
      25     1     1     2     0     0 -1.245020837E+02  1.852562333E+02  8.094669253E+01  2.683244451E+02  1.250000000E+02  0.00000E+00  9.000E+00
      25     1     1     2     0     0  1.702122714E+02 -1.428699150E+02  1.347890829E+02  2.884044501E+02  1.250000000E+02  0.00000E+00  9.000E+00
       1     1     1     2   501     0 -4.571018765E+01 -4.238631822E+01  4.638467128E+02  4.680168738E+02  0.000000000E+00  0.00000E+00  9.000E+00
#rwgt            1           1   2.8010243903670094E-002           8       79073           0
</event>
<event>
      5   9999  3.19816E-02  4.11454E+02 -1.00000E+00  1.01318E-01
      21    -1     0     0   502   501  0.000000000E+00  0.000000000E+00  3.302365878E+02  3.302365878E+02  0.000000000E+00  0.00000E+00  9.000E+00
       1    -1     0     0   501     0  0.000000000E+00  0.000000000E+00 -1.972057697E+03  1.972057697E+03  0.000000000E+00  0.00000E+00  9.000E+00
      25     1     1     2     0     0  2.382930540E+02 -1.085251073E+02 -4.134051892E+01  2.930790286E+02  1.250000000E+02  0.00000E+00  9.000E+00
      25     1     1     2     0     0 -5.208501578E+02  4.076163550E+02 -1.395897010E+03  1.549706244E+03  1.250000000E+02  0.00000E+00  9.000E+00
       1     1     1     2   502     0  2.825571038E+02 -2.990912478E+02 -2.045835807E+02  4.595090128E+02  2.697398305E-06  0.00000E+00  9.000E+00
#rwgt            1           1   3.1168780995240862E-002           8       79197           0
</event>
<event>
      5   9999  3.19816E-02  1.41749E+02 -1.00000E+00  1.17376E-01
      21    -1     0     0   502   501  0.000000000E+00  0.000000000E+00  4.173110621E+02  4.173110621E+02  0.000000000E+00  0.00000E+00  9.000E+00
      21    -1     0     0   511   502  0.000000000E+00  0.000000000E+00 -6.087867960E+02  6.087867960E+02  0.000000000E+00  0.00000E+00  9.000E+00
      25     1     1     2     0     0  1.419613922E+02  1.583765007E+02 -3.953297886E+02  4.659901229E+02  1.250000000E+02  0.00000E+00  9.000E+00
      25     1     1     2     0     0 -5.168555420E+01 -2.676611357E+02  2.701389318E+02  4.036259686E+02  1.250000000E+02  0.00000E+00  9.000E+00
      21     1     1     2   511   501 -9.027583801E+01  1.092846349E+02 -6.628487696E+01  1.564817666E+02  2.861022949E-06  0.00000E+00  9.000E+00
#rwgt            1           1   2.8681499534440630E-002           8       79244           0
</event>
<event>
      5   9999  3.19816E-02  3.95391E+02 -1.00000E+00  1.01837E-01
      21    -1     0     0   502   501  0.000000000E+00  0.000000000E+00  6.893577322E+02  6.893577322E+02  0.000000000E+00  0.00000E+00  9.000E+00
      21    -1     0     0   501   512  0.000000000E+00  0.000000000E+00 -4.806949445E+02  4.806949445E+02  0.000000000E+00  0.00000E+00  9.000E+00
      25     1     1     2     0     0 -2.496824645E+02 -4.818651996E+01  3.913563696E+02  4.831646529E+02  1.250000000E+02  0.00000E+00  9.000E+00
      25     1     1     2     0     0 -2.744100661E+01 -2.338352801E+02 -6.548885380E+01  2.744917796E+02  1.250000000E+02  0.00000E+00  9.000E+00
      21     1     1     2   502   512  2.771234711E+02  2.820218001E+02 -1.172047281E+02  4.123962442E+02  5.223489356E-06  0.00000E+00  9.000E+00
#rwgt            2          11   3.2688059394031669E-003           8       79661           0
</event>
<event>
      5   9999  3.19816E-02  2.69081E+01 -1.00000E+00  1.56395E-01
      21    -1     0     0   511   501  0.000000000E+00  0.000000000E+00  1.831626095E+02  1.831626095E+02  0.000000000E+00  0.00000E+00  9.000E+00
      21    -1     0     0   501   502  0.000000000E+00  0.000000000E+00 -6.055581454E+02  6.055581454E+02  0.000000000E+00  0.00000E+00  9.000E+00
      25     1     1     2     0     0 -1.032023762E+01  1.262437401E+02 -2.845754594E+02  3.356369785E+02  1.250000000E+02  0.00000E+00  9.000E+00
      25     1     1     2     0     0  2.580576839E+01 -1.482492747E+02 -2.614639455E+02  3.265458313E+02  1.250000000E+02  0.00000E+00  9.000E+00
      21     1     1     2   511   502 -1.548553077E+01  2.200553457E+01  1.236438691E+02  1.265379452E+02  2.336015456E-06  0.00000E+00  9.000E+00
#rwgt            1           1   3.0278126146203274E-002           8       79681           0
</event>
<event>
      5   9999  3.19816E-02  2.26011E+01 -1.00000E+00  1.62104E-01
      21    -1     0     0   502   501  0.000000000E+00  0.000000000E+00  2.003842277E+02  2.003842277E+02  0.000000000E+00  0.00000E+00  9.000E+00
      21    -1     0     0   501   512  0.000000000E+00  0.000000000E+00 -8.383784234E+02  8.383784234E+02  0.000000000E+00  0.00000E+00  9.000E+00
      25     1     1     2     0     0  2.272075985E+02 -1.002224778E+02  1.484522163E+01  2.784119582E+02  1.250000000E+02  0.00000E+00  9.000E+00
      25     1     1     2     0     0 -2.491530855E+02  1.056264848E+02 -3.633542690E+02  4.699846158E+02  1.250000000E+02  0.00000E+00  9.000E+00
      21     1     1     2   502   512  2.194548703E+01 -5.404007012E+00 -2.894851482E+02  2.903660771E+02  5.394796609E-06  0.00000E+00  9.000E+00
#rwgt            1           1   2.0909585860422276E-002           8       79811           0
</event>
<event>
      5   9999  3.19816E-02  5.45516E+01 -1.00000E+00  1.36951E-01
      21    -1     0     0   502   501  0.000000000E+00  0.000000000E+00  3.388412441E+02  3.388412441E+02  0.000000000E+00  0.00000E+00  9.000E+00
      21    -1     0     0   501   511  0.000000000E+00  0.000000000E+00 -8.217868367E+02  8.217868367E+02  0.000000000E+00  0.00000E+00  9.000E+00
      25     1     1     2     0     0  2.178207532E+02 -6.139285219E+01  5.820810298E+01  2.650059360E+02  1.250000000E+02  0.00000E+00  9.000E+00
      25     1     1     2     0     0 -2.076352988E+02  7.800602231E+00  9.257178263E+01  2.595530806E+02  1.250000000E+02  0.00000E+00  9.000E+00
      21     1     1     2   502   511 -1.018545440E+01  5.359224995E+01 -6.337254782E+02  6.360690642E+02  7.629394531E-06  0.00000E+00  9.000E+00
#rwgt            1           1   2.9750870295116666E-002           8       80003           0
</event>
<event>
      5   9999  3.19816E-02  5.07331E+01 -1.00000E+00  1.38716E-01
      21    -1     0     0   502   501  0.000000000E+00  0.000000000E+00  1.161158028E+03  1.161158028E+03  0.000000000E+00  0.00000E+00  9.000E+00
      21    -1     0     0   501   512  0.000000000E+00  0.000000000E+00 -5.999594240E+01  5.999594240E+01  0.000000000E+00  0.00000E+00  9.000E+00
      25     1     1     2     0     0  1.027120365E+02  1.650498652E+02  5.062442580E+02  5.565064862E+02  1.250000000E+02  0.00000E+00  9.000E+00
      25     1     1     2     0     0 -1.178441763E+02 -1.166260049E+02  5.728546304E+02  6.093244640E+02  1.250000000E+02  0.00000E+00  9.000E+00
      21     1     1     2   502   512  1.513213973E+01 -4.842386031E+01  2.206319738E+01  5.532302034E+01  1.348699152E-06  0.00000E+00  9.000E+00
#rwgt            1           1   2.5717657150647426E-002           8       80085           0
</event>
<event>
      5   9999  3.19816E-02  5.79134E+01 -1.00000E+00  1.35530E-01
       2    -1     0     0   502     0  0.000000000E+00  0.000000000E+00  1.728986205E+03  1.728986205E+03  0.000000000E+00  0.00000E+00  9.000E+00
      21    -1     0     0   501   502  0.000000000E+00  0.000000000E+00 -8.262963122E+01  8.262963122E+01  0.000000000E+00  0.00000E+00  9.000E+00
      25     1     1     2     0     0  1.670188999E+02  2.854505416E+01  1.652956493E+02  2.676897172E+02  1.250000000E+02  0.00000E+00  9.000E+00
      25     1     1     2     0     0 -2.062294827E+02 -7.116534466E+01  4.860723011E+02  5.472534949E+02  1.250000000E+02  0.00000E+00  9.000E+00
       2     1     1     2   501     0  3.921058280E+01  4.262029049E+01  9.949886236E+02  9.966726243E+02  0.000000000E+00  0.00000E+00  9.000E+00
#rwgt            1           1   2.7034247933304275E-002           8       80163           0
</event>
<event>
      5   9999  3.19816E-02  5.60077E+01 -1.00000E+00  1.36321E-01
      21    -1     0     0   511   501  0.000000000E+00  0.000000000E+00  4.339537430E+02  4.339537430E+02  0.000000000E+00  0.00000E+00  9.000E+00
      21    -1     0     0   501   502  0.000000000E+00  0.000000000E+00 -4.024415522E+02  4.024415522E+02  0.000000000E+00  0.00000E+00  9.000E+00
      25     1     1     2     0     0 -5.566525136E+01 -1.997200063E+02 -1.197304486E+02  2.700871738E+02  1.250000000E+02  0.00000E+00  9.000E+00
      25     1     1     2     0     0  6.645602151E+01  1.447616485E+02 -1.549945312E+02  2.549914555E+02  1.250000000E+02  0.00000E+00  9.000E+00
      21     1     1     2   511   502 -1.079077015E+01  5.495835778E+01  3.062371706E+02  3.113166659E+02  5.394796609E-06  0.00000E+00  9.000E+00
#rwgt            1           1   2.8867562357039966E-002           8       80246           0
</event>
<event>
      5   9999  3.19816E-02  6.74945E+01 -1.00000E+00  1.32027E-01
      21    -1     0     0   502   501  0.000000000E+00  0.000000000E+00  1.425297787E+03  1.425297787E+03  0.000000000E+00  0.00000E+00  9.000E+00
      21    -1     0     0   501   512  0.000000000E+00  0.000000000E+00 -3.998513853E+02  3.998513853E+02  0.000000000E+00  0.00000E+00  9.000E+00
      25     1     1     2     0     0  7.991797034E+01  7.050511020E+01  1.318225092E+03  1.328420207E+03  1.250000000E+02  0.00000E+00  9.000E+00
      25     1     1     2     0     0 -2.288138250E+01 -3.441731474E+01  5.483868722E+01  1.426197421E+02  1.250000000E+02  0.00000E+00  9.000E+00
      21     1     1     2   502   512 -5.703658784E+01 -3.608779546E+01 -3.476173773E+02  3.541092237E+02  6.607249480E-06  0.00000E+00  9.000E+00
#rwgt            1           1   2.7891505450791020E-002           8       80401           0
</event>
<event>
      5   9999  3.19816E-02  9.39931E+01 -1.00000E+00  1.25050E-01
      21    -1     0     0   511   501  0.000000000E+00  0.000000000E+00  4.561921418E+02  4.561921418E+02  0.000000000E+00  0.00000E+00  9.000E+00
      21    -1     0     0   501   502  0.000000000E+00  0.000000000E+00 -6.989026021E+02  6.989026021E+02  0.000000000E+00  0.00000E+00  9.000E+00
      25     1     1     2     0     0 -3.796991468E+02  3.837839774E+02 -1.902559575E+02  5.859043546E+02  1.250000000E+02  0.00000E+00  9.000E+00
      25     1     1     2     0     0  3.465749092E+02 -2.958209760E+02 -5.042170444E+01  4.751753001E+02  1.250000000E+02  0.00000E+00  9.000E+00
      21     1     1     2   511   502  3.312423761E+01 -8.796300133E+01 -2.032798421E+00  9.401508916E+01  1.714864061E-06  0.00000E+00  9.000E+00
#rwgt            1           1   3.0314854314994383E-002           8       80531           0
</event>
<event>
      5   9999  3.19816E-02  1.87092E+02 -1.00000E+00  1.12713E-01
      21    -1     0     0   502   512  0.000000000E+00  0.000000000E+00  2.255556355E+03  2.255556355E+03  0.000000000E+00  0.00000E+00  9.000E+00
      21    -1     0     0   501   502  0.000000000E+00  0.000000000E+00 -5.957782704E+01  5.957782704E+01  0.000000000E+00  0.00000E+00  9.000E+00
      25     1     1     2     0     0  9.328383029E+01  9.838138131E+01  5.019408465E+02  5.347432866E+02  1.250000000E+02  0.00000E+00  9.000E+00
      25     1     1     2     0     0  7.594488244E+00 -2.559467746E+02  5.330821701E+02  6.044568039E+02  1.250000000E+02  0.00000E+00  9.000E+00
      21     1     1     2   501   512 -1.008783185E+02  1.575653933E+02  1.160955512E+03  1.175934092E+03  2.157918644E-05  0.00000E+00  9.000E+00
#rwgt            1           1   3.4267299829476995E-002           8       80645           0
</event>
<event>
      5   9999  3.19816E-02  6.82062E+01 -1.00000E+00  1.31794E-01
      21    -1     0     0   502   501  0.000000000E+00  0.000000000E+00  1.041313838E+03  1.041313838E+03  0.000000000E+00  0.00000E+00  9.000E+00
      21    -1     0     0   511   502  0.000000000E+00  0.000000000E+00 -3.003909827E+02  3.003909827E+02  0.000000000E+00  0.00000E+00  9.000E+00
      25     1     1     2     0     0 -4.195626133E+02 -1.922939371E+02  4.632051404E+02  6.657279826E+02  1.250000000E+02  0.00000E+00  9.000E+00
      25     1     1     2     0     0  4.483528534E+02  2.541260351E+02  2.933022548E+02  6.060128179E+02  1.250000000E+02  0.00000E+00  9.000E+00
      21     1     1     2   511   501 -2.879024008E+01 -6.183209794E+01 -1.558453977E+01  6.996402032E+01  1.479348379E-06  0.00000E+00  9.000E+00
#rwgt            1           1   3.0486975444027373E-002           8       80683           0
</event>
<event>
      5   9999  3.19816E-02  5.37721E+01 -1.00000E+00  1.37297E-01
      21    -1     0     0   502   501  0.000000000E+00  0.000000000E+00  4.063115579E+02  4.063115579E+02  0.000000000E+00  0.00000E+00  9.000E+00
      21    -1     0     0   501   512  0.000000000E+00  0.000000000E+00 -8.868847944E+02  8.868847944E+02  0.000000000E+00  0.00000E+00  9.000E+00
      25     1     1     2     0     0  2.445178421E+02  5.131241067E+02 -8.687865703E+01  5.884371037E+02  1.250000000E+02  0.00000E+00  9.000E+00
      25     1     1     2     0     0 -2.311095711E+02 -4.610505739E+02 -3.613060017E+02  6.419862089E+02  1.250000000E+02  0.00000E+00  9.000E+00
      21     1     1     2   502   512 -1.340827108E+01 -5.207353273E+01 -3.238857775E+01  6.277303970E+01  4.768371582E-07  0.00000E+00  9.000E+00
#rwgt            1           1   3.0168573668981888E-002           8       80768           0
</event>
<event>
      5   9999  3.19816E-02  5.68317E+01 -1.00000E+00  1.35975E-01
      21    -1     0     0   502   511  0.000000000E+00  0.000000000E+00  1.372612251E+03  1.372612251E+03  0.000000000E+00  0.00000E+00  9.000E+00
      21    -1     0     0   501   502  0.000000000E+00  0.000000000E+00 -1.574833190E+02  1.574833190E+02  0.000000000E+00  0.00000E+00  9.000E+00
      25     1     1     2     0     0 -9.625820894E+01 -2.257541105E+02  9.048765985E+02  9.458632141E+02  1.250000000E+02  0.00000E+00  9.000E+00
      25     1     1     2     0     0  9.323360817E+01  1.690029787E+02 -3.651698020E+01  2.328368578E+02  1.250000000E+02  0.00000E+00  9.000E+00
      21     1     1     2   501   511  3.024600764E+00  5.675113175E+01  3.467693133E+02  3.513954977E+02  6.607249480E-06  0.00000E+00  9.000E+00
#rwgt            1           1   2.5080199265934598E-002           8       80849           0
</event>
<event>
      5   9999  3.19816E-02  3.69991E+01 -1.00000E+00  1.46972E-01
      21    -1     0     0   502   501  0.000000000E+00  0.000000000E+00  9.369201889E+02  9.369201889E+02  0.000000000E+00  0.00000E+00  9.000E+00
      21    -1     0     0   512   502  0.000000000E+00  0.000000000E+00 -1.712096635E+02  1.712096635E+02  0.000000000E+00  0.00000E+00  9.000E+00
      25     1     1     2     0     0  1.019677560E+02 -1.772430205E+01  4.345290904E+02  4.638449143E+02  1.250000000E+02  0.00000E+00  9.000E+00
      25     1     1     2     0     0 -1.021708545E+02  5.472283393E+01  4.703471529E+02  5.002848351E+02  1.250000000E+02  0.00000E+00  9.000E+00
      21     1     1     2   512   501  2.030984173E-01 -3.699853188E+01 -1.391657179E+02  1.440001030E+02  3.814697266E-06  0.00000E+00  9.000E+00
#rwgt            1           1   2.7254695530373588E-002           8       81066           0
</event>
<event>
      5   9999  3.19816E-02  6.74263E+01 -1.00000E+00  1.32050E-01
      21    -1     0     0   502   501  0.000000000E+00  0.000000000E+00  5.900483418E+02  5.900483418E+02  0.000000000E+00  0.00000E+00  9.000E+00
      21    -1     0     0   511   502  0.000000000E+00  0.000000000E+00 -1.004537130E+03  1.004537130E+03  0.000000000E+00  0.00000E+00  9.000E+00
      25     1     1     2     0     0  6.444534082E+02  1.886271598E+02 -4.685961309E+00  6.830427212E+02  1.250000000E+02  0.00000E+00  9.000E+00
      25     1     1     2     0     0 -6.057576721E+02 -2.438443682E+02 -2.047140443E+02  6.956545645E+02  1.250000000E+02  0.00000E+00  9.000E+00
      21     1     1     2   511   501 -3.869573613E+01  5.521720841E+01 -2.050887831E+02  2.158881864E+02  3.814697266E-06  0.00000E+00  9.000E+00
#rwgt            1           1   3.4913328184478454E-002           8       81210           0
</event>
<event>
      5   9999  3.19816E-02  1.78498E+01 -1.00000E+00  1.70551E-01
      21    -1     0     0   502   501  0.000000000E+00  0.000000000E+00  4.029849357E+02  4.029849357E+02  0.000000000E+00  0.00000E+00  9.000E+00
      21    -1     0     0   512   502  0.000000000E+00  0.000000000E+00 -7.562448624E+02  7.562448624E+02  0.000000000E+00  0.00000E+00  9.000E+00
      25     1     1     2     0     0 -7.320720516E+01  5.346636057E+01  3.274668304E+02  3.620462285E+02  1.250000000E+02  0.00000E+00  9.000E+00
      25     1     1     2     0     0  9.059717074E+01 -4.944091439E+01 -5.496570607E+01  1.711679883E+02  1.250000000E+02  0.00000E+00  9.000E+00
      21     1     1     2   512   501 -1.738996558E+01 -4.025446173E+00 -6.257610510E+02  6.260155813E+02  7.629394531E-06  0.00000E+00  9.000E+00
#rwgt            1           1   2.6136032256839213E-002           8       81378           0
</event>
<event>
      5   9999  3.19816E-02  2.20322E+02 -1.00000E+00  1.10139E-01
      21    -1     0     0   502   501  0.000000000E+00  0.000000000E+00  3.087129268E+02  3.087129268E+02  0.000000000E+00  0.00000E+00  9.000E+00
      21    -1     0     0   501   511  0.000000000E+00  0.000000000E+00 -7.394627068E+02  7.394627068E+02  0.000000000E+00  0.00000E+00  9.000E+00
      25     1     1     2     0     0 -1.183552168E+02  5.816095533E+01 -3.968141518E+02  4.364368512E+02  1.250000000E+02  0.00000E+00  9.000E+00
      25     1     1     2     0     0 -8.530921065E+01 -1.421988409E+02  2.014573826E+02  2.893237784E+02  1.250000000E+02  0.00000E+00  9.000E+00
      21     1     1     2   502   511  2.036644274E+02  8.403788558E+01 -2.353930108E+02  3.224150039E+02  4.672030912E-06  0.00000E+00  9.000E+00
#rwgt            2          11   3.1100964426386919E-003           8       81510           0
</event>
<event>
      5   9999  3.19816E-02  2.34738E+02 -1.00000E+00  1.09173E-01
      21    -1     0     0   502   512  0.000000000E+00  0.000000000E+00  9.170307309E+02  9.170307309E+02  0.000000000E+00  0.00000E+00  9.000E+00
      21    -1     0     0   501   502  0.000000000E+00  0.000000000E+00 -6.263932202E+02  6.263932202E+02  0.000000000E+00  0.00000E+00  9.000E+00
      25     1     1     2     0     0 -2.162873341E+02  9.851618072E+01 -5.101214640E+02  5.764846544E+02  1.250000000E+02  0.00000E+00  9.000E+00
      25     1     1     2     0     0  5.518924489E+01 -2.692473690E+02  3.824790614E+02  4.872937829E+02  1.250000000E+02  0.00000E+00  9.000E+00
      21     1     1     2   501   512  1.610980892E+02  1.707311883E+02  4.182799133E+02  4.796455138E+02  9.344061824E-06  0.00000E+00  9.000E+00
#rwgt            1           1   2.7261188984540500E-002           8       81530           0
</event>
<event>
      5   9999  3.19816E-02  2.40003E+01 -1.00000E+00  1.60090E-01
      21    -1     0     0   502   501  0.000000000E+00  0.000000000E+00  5.915447492E+02  5.915447492E+02  0.000000000E+00  0.00000E+00  9.000E+00
      21    -1     0     0   501   511  0.000000000E+00  0.000000000E+00 -1.805300188E+02  1.805300188E+02  0.000000000E+00  0.00000E+00  9.000E+00
      25     1     1     2     0     0 -1.109978746E+02  1.895812503E+02  1.361369630E+02  2.870885775E+02  1.250000000E+02  0.00000E+00  9.000E+00
      25     1     1     2     0     0  8.861760567E+01 -1.982495617E+02  3.361052957E+02  4.192227791E+02  1.250000000E+02  0.00000E+00  9.000E+00
      21     1     1     2   502   511  2.238026888E+01  8.668311397E+00 -6.122752825E+01  6.576341135E+01  6.743495762E-07  0.00000E+00  9.000E+00
#rwgt            1           1   2.9272090294998120E-002           8       81572           0
</event>
<event>
      5   9999  3.19816E-02  3.39358E+02 -1.00000E+00  1.03881E-01
      21    -1     0     0   502   501  0.000000000E+00  0.000000000E+00  1.938143282E+03  1.938143282E+03  0.000000000E+00  0.00000E+00  9.000E+00
      21    -1     0     0   501   512  0.000000000E+00  0.000000000E+00 -2.085773093E+02  2.085773093E+02  0.000000000E+00  0.00000E+00  9.000E+00
      25     1     1     2     0     0  3.330149079E+01 -4.505740486E+02  1.228316825E+03  1.314729320E+03  1.250000000E+02  0.00000E+00  9.000E+00
      25     1     1     2     0     0 -1.476963292E+02  1.310776395E+02  4.237038150E+02  4.838858090E+02  1.250000000E+02  0.00000E+00  9.000E+00
      21     1     1     2   502   512  1.143948384E+02  3.194964091E+02  7.754533313E+01  3.481054627E+02  3.303624740E-06  0.00000E+00  9.000E+00
#rwgt            2          11   5.8432027098042341E-003           8       81772           0
</event>
<event>
      5   9999  3.19816E-02  2.00225E+02 -1.00000E+00  1.11630E-01
      21    -1     0     0   502   501  0.000000000E+00  0.000000000E+00  2.371911062E+02  2.371911062E+02  0.000000000E+00  0.00000E+00  9.000E+00
      21    -1     0     0   511   502  0.000000000E+00  0.000000000E+00 -3.352059938E+02  3.352059938E+02  0.000000000E+00  0.00000E+00  9.000E+00
      25     1     1     2     0     0 -4.615869147E+01 -1.748157168E+02 -4.959014747E+01  2.253338464E+02  1.250000000E+02  0.00000E+00  9.000E+00
      25     1     1     2     0     0  3.947968478E+01 -2.529747578E+01  2.099495734E+01  1.351458324E+02  1.250000000E+02  0.00000E+00  9.000E+00
      21     1     1     2   511   501  6.679006686E+00  2.001131925E+02 -6.941969750E+01  2.119174211E+02  3.015782986E-06  0.00000E+00  9.000E+00
#rwgt            2          11   3.8976095816809237E-003           8       81792           0
</event>
<event>
      5   9999  3.19816E-02  6.01344E+01 -1.00000E+00  1.34651E-01
      21    -1     0     0   502   512  0.000000000E+00  0.000000000E+00  2.485294191E+02  2.485294191E+02  0.000000000E+00  0.00000E+00  9.000E+00
      21    -1     0     0   501   502  0.000000000E+00  0.000000000E+00 -3.758555691E+02  3.758555691E+02  0.000000000E+00  0.00000E+00  9.000E+00
      25     1     1     2     0     0 -2.147235594E+01  1.989430151E+02 -2.196973620E+02  3.223838026E+02  1.250000000E+02  0.00000E+00  9.000E+00
      25     1     1     2     0     0 -3.712756908E+01 -1.854450792E+02  6.433953736E+01  2.356542167E+02  1.250000000E+02  0.00000E+00  9.000E+00
      21     1     1     2   501   512  5.859992502E+01 -1.349793588E+01  2.803167465E+01  6.634696880E+01  1.430511475E-06  0.00000E+00  9.000E+00
#rwgt            1           1   2.7364578566069539E-002           8       81812           0
</event>
<event>
      5   9999  3.19816E-02  8.59940E+01 -1.00000E+00  1.26849E-01
      21    -1     0     0   502   501  0.000000000E+00  0.000000000E+00  3.026074490E+02  3.026074490E+02  0.000000000E+00  0.00000E+00  9.000E+00
      21    -1     0     0   501   511  0.000000000E+00  0.000000000E+00 -4.468823870E+02  4.468823870E+02  0.000000000E+00  0.00000E+00  9.000E+00
      25     1     1     2     0     0  3.944348745E+00  9.445858279E+01  1.055001668E+02  1.889266179E+02  1.250000000E+02  0.00000E+00  9.000E+00
      25     1     1     2     0     0  1.292679590E+01 -1.787813195E+02  6.996907562E+01  2.294570413E+02  1.250000000E+02  0.00000E+00  9.000E+00
      21     1     1     2   502   511 -1.687114464E+01  8.432273673E+01 -3.197441804E+02  3.311061768E+02  5.394796609E-06  0.00000E+00  9.000E+00
#rwgt            1           1   2.7711930579340103E-002           8       81896           0
</event>
<event>
      5   9999  3.19816E-02  2.60064E+01 -1.00000E+00  1.57478E-01
      21    -1     0     0   502   501  0.000000000E+00  0.000000000E+00  1.243491716E+03  1.243491716E+03  0.000000000E+00  0.00000E+00  9.000E+00
      21    -1     0     0   501   512  0.000000000E+00  0.000000000E+00 -1.599600450E+02  1.599600450E+02  0.000000000E+00  0.00000E+00  9.000E+00
      25     1     1     2     0     0  7.084545520E+01 -2.397957472E+01 -1.038587549E+02  1.789014799E+02  1.250000000E+02  0.00000E+00  9.000E+00
      25     1     1     2     0     0 -9.382813030E+01  3.615041916E+01  1.187756578E+03  1.198541304E+03  1.250000000E+02  0.00000E+00  9.000E+00
      21     1     1     2   502   512  2.298267510E+01 -1.217084445E+01 -3.661516312E-01  2.600897684E+01  1.168577905E-07  0.00000E+00  9.000E+00
#rwgt            1           1   2.9453742319852757E-002           8       81986           0
</event>
<event>
      5   9999  3.19816E-02  2.60602E+02 -1.00000E+00  1.07617E-01
      21    -1     0     0   502   501  0.000000000E+00  0.000000000E+00  9.828356906E+02  9.828356906E+02  0.000000000E+00  0.00000E+00  9.000E+00
       2    -1     0     0   501     0  0.000000000E+00  0.000000000E+00 -2.920410642E+03  2.920410642E+03  0.000000000E+00  0.00000E+00  9.000E+00
      25     1     1     2     0     0  9.273809153E+01  1.998615032E+01  8.544638660E+02  8.687538766E+02  1.250000000E+02  0.00000E+00  9.000E+00
      25     1     1     2     0     0 -9.221111616E+01 -2.805880842E+02 -1.088568670E+02  3.386847803E+02  1.250000000E+02  0.00000E+00  9.000E+00
       2     1     1     2   502     0 -5.269753764E-01  2.606019339E+02 -2.683181950E+03  2.695807675E+03  3.051757812E-05  0.00000E+00  9.000E+00
#rwgt            2          13   7.3546184967357110E-003           8       82086           0
</event>
<event>
      5   9999  3.19816E-02  3.81167E+01 -1.00000E+00  1.46151E-01
      21    -1     0     0   502   501  0.000000000E+00  0.000000000E+00  1.004259430E+03  1.004259430E+03  0.000000000E+00  0.00000E+00  9.000E+00
      21    -1     0     0   501   511  0.000000000E+00  0.000000000E+00 -1.519560856E+02  1.519560856E+02  0.000000000E+00  0.00000E+00  9.000E+00
      25     1     1     2     0     0 -5.261063120E+01 -9.218624234E+01  3.297339107E+02  3.682602798E+02  1.250000000E+02  0.00000E+00  9.000E+00
      25     1     1     2     0     0  1.468945474E+01  9.604171925E+01  6.427052618E+02  6.619175519E+02  1.250000000E+02  0.00000E+00  9.000E+00
      21     1     1     2   502   511  3.792117646E+01 -3.855476911E+00 -1.201358286E+02  1.260376834E+02  2.697398305E-06  0.00000E+00  9.000E+00
#rwgt            1           1   2.8614101011576153E-002           8       82135           0
</event>
<event>
      5   9999  3.19816E-02  5.38174E+01 -1.00000E+00  1.37277E-01
      21    -1     0     0   512   501  0.000000000E+00  0.000000000E+00  9.331102064E+02  9.331102064E+02  0.000000000E+00  0.00000E+00  9.000E+00
      21    -1     0     0   501   502  0.000000000E+00  0.000000000E+00 -1.488099175E+02  1.488099175E+02  0.000000000E+00  0.00000E+00  9.000E+00
      25     1     1     2     0     0 -1.251788476E+02 -1.747379207E+02  5.880611201E+02  6.384700195E+02  1.250000000E+02  0.00000E+00  9.000E+00
      25     1     1     2     0     0  1.783555933E+02  1.830169289E+02  5.160286421E+01  2.891258714E+02  1.250000000E+02  0.00000E+00  9.000E+00
      21     1     1     2   512   502 -5.317674575E+01 -8.279008231E+00  1.446363046E+02  1.543242329E+02  3.303624740E-06  0.00000E+00  9.000E+00
#rwgt            1           1   2.8033043704946393E-002           8       82247           0
</event>
<event>
      5   9999  3.19816E-02  7.16657E+01 -1.00000E+00  1.30706E-01
      21    -1     0     0   502   511  0.000000000E+00  0.000000000E+00  2.400262303E+03  2.400262303E+03  0.000000000E+00  0.00000E+00  9.000E+00
      21    -1     0     0   501   502  0.000000000E+00  0.000000000E+00 -7.814160148E+02  7.814160148E+02  0.000000000E+00  0.00000E+00  9.000E+00
      25     1     1     2     0     0 -5.020541887E+01 -1.112951455E+02 -1.522256395E+02  2.317430448E+02  1.250000000E+02  0.00000E+00  9.000E+00
      25     1     1     2     0     0 -9.422039716E+00  1.510511732E+02 -5.725266162E+02  6.052412395E+02  1.250000000E+02  0.00000E+00  9.000E+00
      21     1     1     2   501   511  5.962745858E+01 -3.975602767E+01  2.343598544E+03  2.344694033E+03  0.000000000E+00  0.00000E+00  9.000E+00
#rwgt            2          11   3.2857760807361781E-002           8       82419           0
</event>
<event>
      5   9999  3.19816E-02  3.45865E+01 -1.00000E+00  1.48869E-01
      21    -1     0     0   502   501  0.000000000E+00  0.000000000E+00  1.807197824E+02  1.807197824E+02  0.000000000E+00  0.00000E+00  9.000E+00
      21    -1     0     0   512   502  0.000000000E+00  0.000000000E+00 -1.615144719E+03  1.615144719E+03  0.000000000E+00  0.00000E+00  9.000E+00
      25     1     1     2     0     0 -2.783685808E+02  9.374420937E+01  4.384633892E+00  3.192511059E+02  1.250000000E+02  0.00000E+00  9.000E+00
      25     1     1     2     0     0  2.566278677E+02 -6.684500901E+01 -1.198999335E+03  1.234321888E+03  1.250000000E+02  0.00000E+00  9.000E+00
      21     1     1     2   512   501  2.174071310E+01 -2.689920036E+01 -2.398102350E+02  2.422915071E+02  2.697398305E-06  0.00000E+00  9.000E+00
#rwgt            1           1   3.2199338189650387E-002           8       82469           0
</event>
<event>
      5   9999  3.19816E-02  9.51593E+01 -1.00000E+00  1.24805E-01
      21    -1     0     0   502   501  0.000000000E+00  0.000000000E+00  4.577200829E+02  4.577200829E+02  0.000000000E+00  0.00000E+00  9.000E+00
       2    -1     0     0   501     0  0.000000000E+00  0.000000000E+00 -1.054396374E+03  1.054396374E+03  0.000000000E+00  0.00000E+00  9.000E+00
      25     1     1     2     0     0 -3.209152650E+02 -3.102832674E+02  1.961693536E+02  5.033584494E+02  1.250000000E+02  0.00000E+00  9.000E+00
      25     1     1     2     0     0  2.618659464E+02  3.849054682E+02 -4.740879696E+02  6.760993982E+02  1.250000000E+02  0.00000E+00  9.000E+00
       2     1     1     2   502     0  5.904931863E+01 -7.462220083E+01 -3.187576746E+02  3.326586088E+02  3.814697266E-06  0.00000E+00  9.000E+00
#rwgt            1           1   2.6124443463310023E-002           8       82643           0
</event>
<event>
      5   9999  3.19816E-02  1.17418E+02 -1.00000E+00  1.20771E-01
      21    -1     0     0   502   501  0.000000000E+00  0.000000000E+00  2.621530206E+02  2.621530206E+02  0.000000000E+00  0.00000E+00  9.000E+00
      21    -1     0     0   501   511  0.000000000E+00  0.000000000E+00 -4.588339446E+02  4.588339446E+02  0.000000000E+00  0.00000E+00  9.000E+00
      25     1     1     2     0     0 -1.202446695E+02  4.575370878E+00 -2.285970923E+02  2.869866637E+02  1.250000000E+02  0.00000E+00  9.000E+00
      25     1     1     2     0     0  2.144624595E+02  6.549639612E+01  1.236913573E+02  2.849710096E+02  1.250000000E+02  0.00000E+00  9.000E+00
      21     1     1     2   502   511 -9.421779005E+01 -7.007176699E+01 -9.177518897E+01  1.490292918E+02  1.348699152E-06  0.00000E+00  9.000E+00
#rwgt            1           1   2.7697571508461322E-002           8       82728           0
</event>
<event>
      5   9999  3.19816E-02  4.94056E+01 -1.00000E+00  1.39372E-01
      21    -1     0     0   512   501  0.000000000E+00  0.000000000E+00  4.240702226E+01  4.240702226E+01  0.000000000E+00  0.00000E+00  9.000E+00
      21    -1     0     0   501   502  0.000000000E+00  0.000000000E+00 -1.899896559E+03  1.899896559E+03  0.000000000E+00  0.00000E+00  9.000E+00
      25     1     1     2     0     0  1.612030658E+02  1.555184216E+02 -6.850972333E+02  7.315433185E+02  1.250000000E+02  0.00000E+00  9.000E+00
      25     1     1     2     0     0 -1.254393260E+02 -1.214322070E+02 -1.112915040E+03  1.133439761E+03  1.250000000E+02  0.00000E+00  9.000E+00
      21     1     1     2   512   502 -3.576373977E+01 -3.408621469E+01 -5.947726316E+01  7.732050147E+01  1.507891493E-06  0.00000E+00  9.000E+00
#rwgt            1           1   2.4280867366284386E-002           8       82768           0
</event>
<event>
      5   9999  3.19816E-02  9.35590E+01 -1.00000E+00  1.25143E-01
      21    -1     0     0   502   501  0.000000000E+00  0.000000000E+00  8.052146174E+02  8.052146174E+02  0.000000000E+00  0.00000E+00  9.000E+00
      21    -1     0     0   511   502  0.000000000E+00  0.000000000E+00 -1.881784200E+02  1.881784200E+02  0.000000000E+00  0.00000E+00  9.000E+00
      25     1     1     2     0     0 -2.346294677E+02  6.047731067E+01  5.337705350E+02  5.993700662E+02  1.250000000E+02  0.00000E+00  9.000E+00
      25     1     1     2     0     0  1.968772511E+02 -1.460813374E+02  1.105632431E+02  2.965630453E+02  1.250000000E+02  0.00000E+00  9.000E+00
      21     1     1     2   511   501  3.775221656E+01  8.560402672E+01 -2.729758066E+01  9.745992589E+01  2.523185073E-06  0.00000E+00  9.000E+00
#rwgt            2          11   2.9069169286337336E-003           8       82873           0
</event>
<event>
      5   9999  3.19816E-02  4.60829E+01 -1.00000E+00  1.41128E-01
      21    -1     0     0   512   501  0.000000000E+00  0.000000000E+00  3.939031188E+02  3.939031188E+02  0.000000000E+00  0.00000E+00  9.000E+00
      21    -1     0     0   501   502  0.000000000E+00  0.000000000E+00 -1.179678898E+03  1.179678898E+03  0.000000000E+00  0.00000E+00  9.000E+00
      25     1     1     2     0     0 -3.167374173E+02 -2.724237257E+02 -9.844000400E+02  1.076664161E+03  1.250000000E+02  0.00000E+00  9.000E+00
      25     1     1     2     0     0  2.709974149E+02  2.780348701E+02  1.902917488E+02  4.500876998E+02  1.250000000E+02  0.00000E+00  9.000E+00
      21     1     1     2   512   502  4.574000240E+01 -5.611144342E+00  8.332511667E+00  4.683015601E+01  1.137184145E-06  0.00000E+00  9.000E+00
#rwgt            1           1   2.7168240743468141E-002           8       82938           0
</event>
<event>
      5   9999  3.19816E-02  1.02986E+02 -1.00000E+00  1.23256E-01
      21    -1     0     0   502   501  0.000000000E+00  0.000000000E+00  1.536792005E+03  1.536792005E+03  0.000000000E+00  0.00000E+00  9.000E+00
      21    -1     0     0   501   511  0.000000000E+00  0.000000000E+00 -3.892038724E+02  3.892038724E+02  0.000000000E+00  0.00000E+00  9.000E+00
      25     1     1     2     0     0 -4.546521912E+01 -6.324869160E+01  1.370547051E+03  1.378438138E+03  1.250000000E+02  0.00000E+00  9.000E+00
      25     1     1     2     0     0  8.464075884E+01  1.584923474E+02  7.573104574E+01  2.316119028E+02  1.250000000E+02  0.00000E+00  9.000E+00
      21     1     1     2   502   511 -3.917553972E+01 -9.524365583E+01 -2.986899639E+02  3.159458362E+02  5.394796609E-06  0.00000E+00  9.000E+00
#rwgt            1           1   3.2642025347092526E-002           8       83128           0
</event>
<event>
      5   9999  3.19816E-02  7.56129E+01 -1.00000E+00  1.29546E-01
      21    -1     0     0   502   501  0.000000000E+00  0.000000000E+00  2.139590364E+02  2.139590364E+02  0.000000000E+00  0.00000E+00  9.000E+00
      21    -1     0     0   501   512  0.000000000E+00  0.000000000E+00 -2.921614501E+03  2.921614501E+03  0.000000000E+00  0.00000E+00  9.000E+00
      25     1     1     2     0     0  4.136040578E+02 -1.924642515E+02 -1.139601524E+02  4.865415924E+02  1.250000000E+02  0.00000E+00  9.000E+00
      25     1     1     2     0     0 -3.495659716E+02  2.326692306E+02 -1.835052996E+03  1.886630816E+03  1.250000000E+02  0.00000E+00  9.000E+00
      21     1     1     2   502   512 -6.403808624E+01 -4.020497907E+01 -7.586423168E+02  7.624011291E+02  1.078959322E-05  0.00000E+00  9.000E+00
#rwgt            1           1   3.4112196449867842E-002           8       83227           0
</event>
<event>
      5   9999  3.19816E-02  6.50105E+01 -1.00000E+00  1.32868E-01
      21    -1     0     0   502   501  0.000000000E+00  0.000000000E+00  3.026324477E+02  3.026324477E+02  0.000000000E+00  0.00000E+00  9.000E+00
      21    -1     0     0   511   502  0.000000000E+00  0.000000000E+00 -3.970012095E+03  3.970012095E+03  0.000000000E+00  0.00000E+00  9.000E+00
      25     1     1     2     0     0  2.034186965E+02  9.329067087E+02 -9.266759755E+02  1.336430865E+03  1.250000000E+02  0.00000E+00  9.000E+00
      25     1     1     2     0     0 -1.479324518E+02 -9.667835101E+02 -2.516243799E+03  2.702528857E+03  1.250000000E+02  0.00000E+00  9.000E+00
      21     1     1     2   511   501 -5.548624470E+01  3.387680136E+01 -2.244598723E+02  2.336848204E+02  0.000000000E+00  0.00000E+00  9.000E+00
#rwgt            1           1   3.0282041786087302E-002           8       83390           0
</event>
<event>
      5   9999  3.19816E-02  8.79826E+01 -1.00000E+00  1.26382E-01
      21    -1     0     0   502   512  0.000000000E+00  0.000000000E+00  7.268664329E+02  7.268664329E+02  0.000000000E+00  0.00000E+00  9.000E+00
      21    -1     0     0   501   502  0.000000000E+00  0.000000000E+00 -6.692395658E+02  6.692395658E+02  0.000000000E+00  0.00000E+00  9.000E+00
      25     1     1     2     0     0  4.177846648E+02  3.981485119E+02  1.695302057E+02  6.143547463E+02  1.250000000E+02  0.00000E+00  9.000E+00
      25     1     1     2     0     0 -5.034123582E+02 -3.779288740E+02 -1.844041292E+02  6.677455496E+02  1.250000000E+02  0.00000E+00  9.000E+00
      21     1     1     2   501   512  8.562769339E+01 -2.021963790E+01  7.250079060E+01  1.140057028E+02  1.348699152E-06  0.00000E+00  9.000E+00
#rwgt            1           1   3.8153083378781580E-002           8       83570           0
</event>
<event>
      5   9999  3.19816E-02  3.90550E+02 -1.00000E+00  1.01999E-01
      21    -1     0     0   511   501  0.000000000E+00  0.000000000E+00  1.932658233E+02  1.932658233E+02  0.000000000E+00  0.00000E+00  9.000E+00
      21    -1     0     0   501   502  0.000000000E+00  0.000000000E+00 -1.489012840E+03  1.489012840E+03  0.000000000E+00  0.00000E+00  9.000E+00
      25     1     1     2     0     0  2.761957344E+02 -3.803884463E+02 -6.857631532E+02  8.407589167E+02  1.250000000E+02  0.00000E+00  9.000E+00
      25     1     1     2     0     0  1.812425795E+01  1.236687334E+02 -2.753881672E+02  3.272401060E+02  1.250000000E+02  0.00000E+00  9.000E+00
      21     1     1     2   511   502 -2.943199923E+02  2.567197128E+02 -3.345956966E+02  5.142796409E+02  3.814697266E-06  0.00000E+00  9.000E+00
#rwgt            2          11   3.1225627450195696E-003           8       83677           0
</event>
<event>
      5   9999  3.19816E-02  5.45288E+01 -1.00000E+00  1.36961E-01
      21    -1     0     0   502   501  0.000000000E+00  0.000000000E+00  5.038853843E+02  5.038853843E+02  0.000000000E+00  0.00000E+00  9.000E+00
      21    -1     0     0   512   502  0.000000000E+00  0.000000000E+00 -3.617387259E+02  3.617387259E+02  0.000000000E+00  0.00000E+00  9.000E+00
      25     1     1     2     0     0 -1.525941419E+02  8.912636968E+01  4.107899354E+02  4.643294659E+02  1.250000000E+02  0.00000E+00  9.000E+00
      25     1     1     2     0     0  1.056660939E+02 -6.135685078E+01 -5.871108805E+01  1.843962538E+02  1.250000000E+02  0.00000E+00  9.000E+00
      21     1     1     2   512   501  4.692804797E+01 -2.776951890E+01 -2.099321889E+02  2.168983906E+02  2.697398305E-06  0.00000E+00  9.000E+00
#rwgt            1           1   2.3912516756898653E-002           8       83697           0
</event>
<event>
      5   9999  3.19816E-02  1.63695E+02 -1.00000E+00  1.14909E-01
      21    -1     0     0   502   511  0.000000000E+00  0.000000000E+00  4.019762610E+02  4.019762610E+02  0.000000000E+00  0.00000E+00  9.000E+00
      21    -1     0     0   501   502  0.000000000E+00  0.000000000E+00 -2.652583019E+02  2.652583019E+02  0.000000000E+00  0.00000E+00  9.000E+00
      25     1     1     2     0     0 -1.623398891E+02 -2.118583501E+02  3.868635758E+01  2.972538215E+02  1.250000000E+02  0.00000E+00  9.000E+00
      25     1     1     2     0     0  9.139677616E+01  6.433493305E+01 -1.899711884E+01  1.687549846E+02  1.250000000E+02  0.00000E+00  9.000E+00
      21     1     1     2   501   511  7.094311298E+01  1.475234170E+02  1.170287203E+02  2.012257569E+02  1.348699152E-06  0.00000E+00  9.000E+00
#rwgt            1           1   2.7834040749321574E-002           8       83818           0
</event>
<event>
      5   9999 -3.19816E-02  5.15005E+01 -1.00000E+00  1.38347E-01
      21    -1     0     0   502   501  0.000000000E+00  0.000000000E+00  2.269651406E+03  2.269651406E+03  0.000000000E+00  0.00000E+00  9.000E+00
      21    -1     0     0   512   502  0.000000000E+00  0.000000000E+00 -2.523739848E+01  2.523739848E+01  0.000000000E+00  0.00000E+00  9.000E+00
      25     1     1     2     0     0  7.371793401E+01 -1.350276622E+02  7.419605964E+02  7.679826365E+02  1.250000000E+02  0.00000E+00  9.000E+00
      25     1     1     2     0     0 -1.163094744E+02  1.060749927E+02  1.372141544E+03  1.386786651E+03  1.250000000E+02  0.00000E+00  9.000E+00
      21     1     1     2   512   501  4.259154041E+01  2.895266952E+01  1.303118668E+02  1.401195169E+02  1.907348633E-06  0.00000E+00  9.000E+00
#rwgt            1           1  -3.2780779292519595E-002           8       83874           0
</event>
<event>
      5   9999  3.19816E-02  4.97662E+01 -1.00000E+00  1.39192E-01
      21    -1     0     0   502   511  0.000000000E+00  0.000000000E+00  1.899745593E+03  1.899745593E+03  0.000000000E+00  0.00000E+00  9.000E+00
      21    -1     0     0   501   502  0.000000000E+00  0.000000000E+00 -2.717942440E+02  2.717942440E+02  0.000000000E+00  0.00000E+00  9.000E+00
      25     1     1     2     0     0 -9.999636924E+01  6.193691374E+02  3.236316614E+02  7.169238833E+02  1.250000000E+02  0.00000E+00  9.000E+00
      25     1     1     2     0     0  1.054098749E+02 -5.698982949E+02  1.225762941E+03  1.361622230E+03  1.250000000E+02  0.00000E+00  9.000E+00
      21     1     1     2   501   511 -5.413505693E+00 -4.947084243E+01  7.855674643E+01  9.299372401E+01  1.651812370E-06  0.00000E+00  9.000E+00
#rwgt            1           1   3.3101666061201747E-002           8       83957           0
</event>
<event>
      5   9999  3.19816E-02  2.69032E+02  7.55638E-03  1.07153E-01
      -1    -1     0     0     0   501  0.000000000E+00  0.000000000E+00  4.597078021E+02  4.597078021E+02  0.000000000E+00  0.00000E+00  9.000E+00
       1    -1     0     0   502     0  0.000000000E+00  0.000000000E+00 -1.968041986E+03  1.968041986E+03  0.000000000E+00  0.00000E+00  9.000E+00
      25     1     1     2     0     0 -3.948223229E+02 -8.360022431E+01 -4.253405662E+02  5.995108518E+02  1.250000000E+02  0.00000E+00  9.000E+00
      25     1     1     2     0     0  1.304713603E+02  1.335691978E+02  3.248121928E+02  3.949575509E+02  1.250000000E+02  0.00000E+00  9.000E+00
      21     1     1     2   502   501  2.643509627E+02 -4.996897349E+01 -1.407805811E+03  1.433281386E+03  1.525878906E-05  0.00000E+00  9.000E+00
#rwgt            3           5   4.9778756068666537E-006           8       84096           0
</event>
<event>
      5   9999  3.19816E-02  1.40152E+01 -1.00000E+00  1.80208E-01
      21    -1     0     0   502   501  0.000000000E+00  0.000000000E+00  4.198209438E+01  4.198209438E+01  0.000000000E+00  0.00000E+00  9.000E+00
       1    -1     0     0   501     0  0.000000000E+00  0.000000000E+00 -2.755948354E+03  2.755948354E+03  0.000000000E+00  0.00000E+00  9.000E+00
      25     1     1     2     0     0  6.318908888E+01  1.961455089E+02 -4.657006075E+02  5.243738908E+02  1.250000000E+02  0.00000E+00  9.000E+00
      25     1     1     2     0     0 -7.548335515E+01 -2.028743220E+02 -1.227360003E+03  1.252554712E+03  1.250000000E+02  0.00000E+00  9.000E+00
       1     1     1     2   502     0  1.229426627E+01  6.728813109E+00 -1.020905649E+03  1.021001846E+03  1.525878906E-05  0.00000E+00  9.000E+00
#rwgt            1           1   2.7526571388919768E-002           8       84115           0
</event>
<event>
      5   9999  3.19816E-02  1.20708E+02 -1.00000E+00  1.20260E-01
      21    -1     0     0   502   501  0.000000000E+00  0.000000000E+00  2.597179166E+03  2.597179166E+03  0.000000000E+00  0.00000E+00  9.000E+00
      21    -1     0     0   501   511  0.000000000E+00  0.000000000E+00 -2.388668215E+03  2.388668215E+03  0.000000000E+00  0.00000E+00  9.000E+00
      25     1     1     2     0     0 -6.800441205E+02  1.067836693E+03 -1.719357944E+03  2.138820223E+03  1.250000000E+02  0.00000E+00  9.000E+00
      25     1     1     2     0     0  6.041770511E+02 -1.161722681E+03  2.192132085E+03  2.556501041E+03  1.250000000E+02  0.00000E+00  9.000E+00
      21     1     1     2   502   511  7.586706936E+01  9.388598747E+01 -2.642631900E+02  2.905261166E+02  3.814697266E-06  0.00000E+00  9.000E+00
#rwgt            1           1   6.8530658911972022E-003           8       84304           0
</event>
<event>
      5   9999  3.19816E-02  2.15009E+01 -1.00000E+00  1.63817E-01
      21    -1     0     0   502   501  0.000000000E+00  0.000000000E+00  1.167508214E+02  1.167508214E+02  0.000000000E+00  0.00000E+00  9.000E+00
      21    -1     0     0   501   512  0.000000000E+00  0.000000000E+00 -2.221928840E+03  2.221928840E+03  0.000000000E+00  0.00000E+00  9.000E+00
      25     1     1     2     0     0 -2.475655768E+02  7.714221969E+01 -1.965057843E+03  1.986030454E+03  1.250000000E+02  0.00000E+00  9.000E+00
      25     1     1     2     0     0  2.347445899E+02 -9.440229583E+01 -8.695591782E+01  2.953017907E+02  1.250000000E+02  0.00000E+00  9.000E+00
      21     1     1     2   502   512  1.282098697E+01  1.726007615E+01 -5.316425787E+01  5.734741712E+01  0.000000000E+00  0.00000E+00  9.000E+00
#rwgt            1           1   3.6964254294781784E-002           8       84439           0
</event>
<event>
      5   9999  3.19816E-02  2.82405E+01 -1.00000E+00  1.54886E-01
      21    -1     0     0   502   501  0.000000000E+00  0.000000000E+00  1.194109220E+03  1.194109220E+03  0.000000000E+00  0.00000E+00  9.000E+00
      21    -1     0     0   501   511  0.000000000E+00  0.000000000E+00 -1.936585655E+02  1.936585655E+02  0.000000000E+00  0.00000E+00  9.000E+00
      25     1     1     2     0     0  1.052374226E+02 -1.793231822E+02  1.036650634E+03  1.064660160E+03  1.250000000E+02  0.00000E+00  9.000E+00
      25     1     1     2     0     0 -1.214990763E+02  2.024117551E+02  1.183034220E+01  2.673901665E+02  1.250000000E+02  0.00000E+00  9.000E+00
      21     1     1     2   502   511  1.626165371E+01 -2.308857297E+01 -4.803032111E+01  5.571745982E+01  9.536743164E-07  0.00000E+00  9.000E+00
#rwgt            1           1   3.0632308813668508E-002           8       84671           0
</event>
<event>
      5   9999  3.19816E-02  1.23769E+01 -1.00000E+00  1.85627E-01
      21    -1     0     0   502   501  0.000000000E+00  0.000000000E+00  7.681080729E+02  7.681080729E+02  0.000000000E+00  0.00000E+00  9.000E+00
      21    -1     0     0   501   512  0.000000000E+00  0.000000000E+00 -5.381580671E+01  5.381580671E+01  0.000000000E+00  0.00000E+00  9.000E+00
      25     1     1     2     0     0  6.273579160E+01 -7.980857663E+01  3.407662215E+02  3.768976070E+02  1.250000000E+02  0.00000E+00  9.000E+00
      25     1     1     2     0     0 -6.636661043E+01  9.164090875E+01  3.897292063E+02  4.246368300E+02  1.250000000E+02  0.00000E+00  9.000E+00
      21     1     1     2   502   512  3.630818834E+00 -1.183233212E+01 -1.620316154E+01  2.038944268E+01  0.000000000E+00  0.00000E+00  9.000E+00
#rwgt            1           1   2.9269905176827926E-002           8       84848           0
</event>
<event>
      5   9999  3.19816E-02  3.66141E+02 -1.00000E+00  1.02855E-01
      21    -1     0     0   502   501  0.000000000E+00  0.000000000E+00  4.818178027E+02  4.818178027E+02  0.000000000E+00  0.00000E+00  9.000E+00
      21    -1     0     0   511   502  0.000000000E+00  0.000000000E+00 -8.547987758E+02  8.547987758E+02  0.000000000E+00  0.00000E+00  9.000E+00
      25     1     1     2     0     0 -5.602312913E+01 -2.658443439E+02  3.056765259E+02  4.276388017E+02  1.250000000E+02  0.00000E+00  9.000E+00
      25     1     1     2     0     0 -1.750187480E+02 -1.819564362E+01 -1.386200937E+02  2.565212934E+02  1.250000000E+02  0.00000E+00  9.000E+00
      21     1     1     2   511   501  2.310418771E+02  2.840399875E+02 -5.400374054E+02  6.524564834E+02  0.000000000E+00  0.00000E+00  9.000E+00
#rwgt            2          11   3.7129352672121362E-003           8       85052           0
</event>
<event>
      5   9999  3.19816E-02  6.26154E+01 -1.00000E+00  1.33721E-01
      21    -1     0     0   502   501  0.000000000E+00  0.000000000E+00  1.756266713E+02  1.756266713E+02  0.000000000E+00  0.00000E+00  9.000E+00
      21    -1     0     0   501   512  0.000000000E+00  0.000000000E+00 -1.304819294E+03  1.304819294E+03  0.000000000E+00  0.00000E+00  9.000E+00
      25     1     1     2     0     0 -1.423212998E+02 -3.734690932E+01 -6.730770098E+02  7.002198263E+02  1.250000000E+02  0.00000E+00  9.000E+00
      25     1     1     2     0     0  1.034922387E+02 -1.177529318E+01  1.190820178E+02  2.016304242E+02  1.250000000E+02  0.00000E+00  9.000E+00
      21     1     1     2   502   512  3.882906113E+01  4.912220249E+01 -5.751976308E+02  5.785957149E+02  7.629394531E-06  0.00000E+00  9.000E+00
#rwgt            1           1   2.9798188847090762E-002           8       85072           0
</event>
<event>
      5   9999  3.19816E-02  7.69165E+01 -1.00000E+00  1.29181E-01
      21    -1     0     0   511   501  0.000000000E+00  0.000000000E+00  2.267974105E+03  2.267974105E+03  0.000000000E+00  0.00000E+00  9.000E+00
      21    -1     0     0   501   502  0.000000000E+00  0.000000000E+00 -4.067789682E+02  4.067789682E+02  0.000000000E+00  0.00000E+00  9.000E+00
      25     1     1     2     0     0 -7.142677124E+02 -3.036205103E+02  3.894987957E+02  8.773243933E+02  1.250000000E+02  0.00000E+00  9.000E+00
      25     1     1     2     0     0  7.504798175E+02  3.714794167E+02  9.601367198E+02  1.280118914E+03  1.250000000E+02  0.00000E+00  9.000E+00
      21     1     1     2   511   502 -3.621210511E+01 -6.785890645E+01  5.115596215E+02  5.173097661E+02  5.394796609E-06  0.00000E+00  9.000E+00
#rwgt            1           1   2.6253422774499942E-002           8       85161           0
</event>
<event>
      5   9999  3.19816E-02  2.18476E+01 -1.00000E+00  1.63264E-01
       2    -1     0     0   502     0  0.000000000E+00  0.000000000E+00  2.261638813E+03  2.261638813E+03  0.000000000E+00  0.00000E+00  9.000E+00
      21    -1     0     0   501   502  0.000000000E+00  0.000000000E+00 -1.457746053E+03  1.457746053E+03  0.000000000E+00  0.00000E+00  9.000E+00
      25     1     1     2     0     0  2.031523594E+02 -8.437489763E-02 -1.008369993E+03  1.036197824E+03  1.250000000E+02  0.00000E+00  9.000E+00
      25     1     1     2     0     0 -2.134001493E+02  1.937941457E+01 -4.000734440E+02  4.707429723E+02  1.250000000E+02  0.00000E+00  9.000E+00
       2     1     1     2   501     0  1.024778997E+01 -1.929503968E+01  2.212336197E+03  2.212444070E+03  4.315837288E-05  0.00000E+00  9.000E+00
#rwgt            1           1   3.1536031285257025E-002           8       85262           0
</event>
<event>
      5   9999  3.19816E-02  7.40925E+01 -1.00000E+00  1.29983E-01
      21    -1     0     0   502   511  0.000000000E+00  0.000000000E+00  6.160246257E+02  6.160246257E+02  0.000000000E+00  0.00000E+00  9.000E+00
      21    -1     0     0   501   502  0.000000000E+00  0.000000000E+00 -1.094127002E+02  1.094127002E+02  0.000000000E+00  0.00000E+00  9.000E+00
      25     1     1     2     0     0 -4.290569077E+01 -6.847591774E+00 -3.918942407E+01  1.380166612E+02  1.250000000E+02  0.00000E+00  9.000E+00
      25     1     1     2     0     0 -1.630994907E+01 -3.768559660E+01  2.503259552E+02  2.827972816E+02  1.250000000E+02  0.00000E+00  9.000E+00
      21     1     1     2   501   511  5.921563985E+01  4.453318838E+01  2.954753943E+02  3.046233831E+02  3.814697266E-06  0.00000E+00  9.000E+00
#rwgt            2          11   1.5731813508702084E-003           8       85440           0
</event>
<event>
      5   9999  3.19816E-02  1.96195E+01 -1.00000E+00  1.67060E-01
      -3    -1     0     0     0   501  0.000000000E+00  0.000000000E+00  1.987639070E+02  1.987639070E+02  0.000000000E+00  0.00000E+00  9.000E+00
      21    -1     0     0   501   502  0.000000000E+00  0.000000000E+00 -1.260498193E+03  1.260498193E+03  0.000000000E+00  0.00000E+00  9.000E+00
      25     1     1     2     0     0  1.377566602E+02 -3.969780369E+02 -6.333842748E+02  7.703045494E+02  1.250000000E+02  0.00000E+00  9.000E+00
      25     1     1     2     0     0 -1.293968888E+02  4.147274207E+02 -4.642831439E+02  6.480171495E+02  1.250000000E+02  0.00000E+00  9.000E+00
      -3     1     1     2     0   502 -8.359771405E+00 -1.774938376E+01  3.593313282E+01  4.094040102E+01  1.168007728E-06  0.00000E+00  9.000E+00
#rwgt            1           1   3.6506861826905657E-002           8       85460           0
</event>
<event>
      5   9999  3.19816E-02  9.78735E+01 -1.00000E+00  1.24249E-01
      21    -1     0     0   502   511  0.000000000E+00  0.000000000E+00  9.654485927E+02  9.654485927E+02  0.000000000E+00  0.00000E+00  9.000E+00
      21    -1     0     0   501   502  0.000000000E+00  0.000000000E+00 -1.803333831E+02  1.803333831E+02  0.000000000E+00  0.00000E+00  9.000E+00
      25     1     1     2     0     0 -2.659824876E+02 -8.439696439E+01  3.964463482E+02  5.006637977E+02  1.250000000E+02  0.00000E+00  9.000E+00
      25     1     1     2     0     0  1.709157902E+02  6.112587385E+01 -2.335601064E+01  2.216282541E+02  1.250000000E+02  0.00000E+00  9.000E+00
      21     1     1     2   501   511  9.506669737E+01  2.327109053E+01  4.120248720E+02  4.234899240E+02  5.394796609E-06  0.00000E+00  9.000E+00
#rwgt            1           1   2.5496733243091853E-002           8       85712           0
</event>
<event>
      5   9999  3.19816E-02  5.42265E+01 -1.00000E+00  1.37094E-01
      21    -1     0     0   502   501  0.000000000E+00  0.000000000E+00  5.261096379E+02  5.261096379E+02  0.000000000E+00  0.00000E+00  9.000E+00
      21    -1     0     0   501   512  0.000000000E+00  0.000000000E+00 -5.559726019E+02  5.559726019E+02  0.000000000E+00  0.00000E+00  9.000E+00
      25     1     1     2     0     0  6.657961854E+01  1.546184184E+02  3.329085507E+02  3.934371665E+02  1.250000000E+02  0.00000E+00  9.000E+00
      25     1     1     2     0     0 -3.763539867E+01 -1.087627711E+02  1.166914797E+02  2.061253625E+02  1.250000000E+02  0.00000E+00  9.000E+00
      21     1     1     2   502   512 -2.894421988E+01 -4.585564726E+01 -4.794629944E+02  4.825197108E+02  7.629394531E-06  0.00000E+00  9.000E+00
#rwgt            1           1   2.5745993066201442E-002           8       85786           0
</event>
<event>
      5   9999  3.19816E-02  4.12213E+02 -1.00000E+00  1.01294E-01
      21    -1     0     0   502   501  0.000000000E+00  0.000000000E+00  7.403102525E+02  7.403102525E+02  0.000000000E+00  0.00000E+00  9.000E+00
       2    -1     0     0   501     0  0.000000000E+00  0.000000000E+00 -1.311806206E+03  1.311806206E+03  0.000000000E+00  0.00000E+00  9.000E+00
      25     1     1     2     0     0  4.722550153E+02  8.120390633E+02 -1.742341801E+02  9.635428321E+02  1.250000000E+02  0.00000E+00  9.000E+00
      25     1     1     2     0     0 -1.464452125E+02 -5.595165492E+02 -3.069042702E+02  6.665734769E+02  1.250000000E+02  0.00000E+00  9.000E+00
       2     1     1     2   502     0 -3.258098028E+02 -2.525225141E+02 -9.035750299E+01  4.220001493E+02  2.697398305E-06  0.00000E+00  9.000E+00
#rwgt            2          13   6.0207557652275096E-004           8       85857           0
</event>
<event>
      5   9999  3.19816E-02  1.74987E+01 -1.00000E+00  1.71303E-01
      21    -1     0     0   502   501  0.000000000E+00  0.000000000E+00  6.188479927E+02  6.188479927E+02  0.000000000E+00  0.00000E+00  9.000E+00
      21    -1     0     0   511   502  0.000000000E+00  0.000000000E+00 -1.363473899E+02  1.363473899E+02  0.000000000E+00  0.00000E+00  9.000E+00
      25     1     1     2     0     0 -8.308107368E+01  7.181535346E+01  1.042456251E+01  1.667140705E+02  1.250000000E+02  0.00000E+00  9.000E+00
      25     1     1     2     0     0  6.998097733E+01 -8.341678476E+01  5.155879739E+02  5.415825478E+02  1.250000000E+02  0.00000E+00  9.000E+00
      21     1     1     2   511   501  1.310009635E+01  1.160143129E+01 -4.351193364E+01  4.689876439E+01  6.743495762E-07  0.00000E+00  9.000E+00
#rwgt            1           1   2.6525483724664279E-002           8       85936           0
</event>
<event>
      5   9999  3.19816E-02  4.06180E+02 -1.00000E+00  1.01485E-01
       2    -1     0     0   502     0  0.000000000E+00  0.000000000E+00  2.778236983E+03  2.778236983E+03  0.000000000E+00  0.00000E+00  9.000E+00
      21    -1     0     0   501   502  0.000000000E+00  0.000000000E+00 -4.150272550E+02  4.150272550E+02  0.000000000E+00  0.00000E+00  9.000E+00
      25     1     1     2     0     0 -2.209007348E+02  4.053860691E+02 -5.061458542E+00  4.783153960E+02  1.250000000E+02  0.00000E+00  9.000E+00
      25     1     1     2     0     0  6.130756759E+02 -2.996471591E+02  2.138655292E+03  2.248359772E+03  1.250000000E+02  0.00000E+00  9.000E+00
       2     1     1     2   501     0 -3.921749411E+02 -1.057389100E+02  2.296158942E+02  4.665890701E+02  1.009274029E-05  0.00000E+00  9.000E+00
#rwgt            2          18   1.7028553318385554E-003           8       86114           0
</event>
<event>
      5   9999  3.19816E-02  3.94687E+01 -1.00000E+00  1.45201E-01
      21    -1     0     0   502   501  0.000000000E+00  0.000000000E+00  7.277056237E+02  7.277056237E+02  0.000000000E+00  0.00000E+00  9.000E+00
      21    -1     0     0   511   502  0.000000000E+00  0.000000000E+00 -3.107657444E+02  3.107657444E+02  0.000000000E+00  0.00000E+00  9.000E+00
      25     1     1     2     0     0 -2.886437825E+02 -2.073301386E+02  3.442996188E+02  5.103608989E+02  1.250000000E+02  0.00000E+00  9.000E+00
      25     1     1     2     0     0  2.617211382E+02  2.361909462E+02  1.789963610E+02  4.146671129E+02  1.250000000E+02  0.00000E+00  9.000E+00
      21     1     1     2   511   501  2.692264433E+01 -2.886080754E+01 -1.063561006E+02  1.134433564E+02  1.348699152E-06  0.00000E+00  9.000E+00
#rwgt            1           1   2.7888369074697997E-002           8       86133           0
</event>
<event>
      5   9999  3.19816E-02  2.45148E+01 -1.00000E+00  1.59391E-01
      21    -1     0     0   502   501  0.000000000E+00  0.000000000E+00  1.374396636E+03  1.374396636E+03  0.000000000E+00  0.00000E+00  9.000E+00
      21    -1     0     0   512   502  0.000000000E+00  0.000000000E+00 -1.742282596E+02  1.742282596E+02  0.000000000E+00  0.00000E+00  9.000E+00
      25     1     1     2     0     0  1.512202535E+02  3.620730989E+02  6.088233008E+02  7.350206158E+02  1.250000000E+02  0.00000E+00  9.000E+00
      25     1     1     2     0     0 -1.267075844E+02 -3.617506924E+02  6.415616261E+02  7.577233634E+02  1.250000000E+02  0.00000E+00  9.000E+00
      21     1     1     2   512   501 -2.451266909E+01 -3.224065094E-01 -5.021655042E+01  5.588091649E+01  1.168007728E-06  0.00000E+00  9.000E+00
#rwgt            1           1   2.5828596939905992E-002           8       86270           0
</event>
<event>
      5   9999  3.19816E-02  6.01288E+01 -1.00000E+00  1.34654E-01
      21    -1     0     0   511   501  0.000000000E+00  0.000000000E+00  1.508323890E+02  1.508323890E+02  0.000000000E+00  0.00000E+00  9.000E+00
      21    -1     0     0   501   502  0.000000000E+00  0.000000000E+00 -8.430085981E+02  8.430085981E+02  0.000000000E+00  0.00000E+00  9.000E+00
      25     1     1     2     0     0 -3.215928493E+02 -1.408995885E+01 -3.883211846E+02  5.196526052E+02  1.250000000E+02  0.00000E+00  9.000E+00
      25     1     1     2     0     0  2.709800153E+02 -1.837250779E+01 -2.796002084E+02  4.093519198E+02  1.250000000E+02  0.00000E+00  9.000E+00
      21     1     1     2   511   502  5.061283402E+01  3.246246664E+01 -2.425481607E+01  6.483646205E+01  3.371747881E-07  0.00000E+00  9.000E+00
#rwgt            1           1   2.8941741831167697E-002           8       86386           0
</event>
<event>
      5   9999  3.19816E-02  4.95226E+02 -1.00000E+00  9.89705E-02
      21    -1     0     0   512   501  0.000000000E+00  0.000000000E+00  1.227157405E+03  1.227157405E+03  0.000000000E+00  0.00000E+00  9.000E+00
      21    -1     0     0   501   502  0.000000000E+00  0.000000000E+00 -5.785600200E+02  5.785600200E+02  0.000000000E+00  0.00000E+00  9.000E+00
      25     1     1     2     0     0  1.041830648E+00  3.347072707E+02  3.682263015E+02  5.130747037E+02  1.250000000E+02  0.00000E+00  9.000E+00
      25     1     1     2     0     0  2.091339579E+02  1.137067187E+02 -3.810569772E+02  4.663642891E+02  1.250000000E+02  0.00000E+00  9.000E+00
      21     1     1     2   512   502 -2.101757886E+02 -4.484139893E+02  6.614280605E+02  8.262784320E+02  1.078959322E-05  0.00000E+00  9.000E+00
#rwgt            2          11   2.0256738059862287E-003           8       86488           0
</event>
<event>
      5   9999  3.19816E-02  4.94719E+01 -1.00000E+00  1.39339E-01
      21    -1     0     0   502   501  0.000000000E+00  0.000000000E+00  4.492965378E+02  4.492965378E+02  0.000000000E+00  0.00000E+00  9.000E+00
      21    -1     0     0   501   511  0.000000000E+00  0.000000000E+00 -7.487525307E+02  7.487525307E+02  0.000000000E+00  0.00000E+00  9.000E+00
      25     1     1     2     0     0  4.675036670E+02  2.174302938E+02 -1.215839460E+02  5.442823415E+02  1.250000000E+02  0.00000E+00  9.000E+00
      25     1     1     2     0     0 -5.169283010E+02 -2.195933403E+02 -1.419553596E+02  5.926317808E+02  1.250000000E+02  0.00000E+00  9.000E+00
      21     1     1     2   502   511  4.942463393E+01  2.163046477E+00 -3.591668737E+01  6.113494615E+01  4.768371582E-07  0.00000E+00  9.000E+00
#rwgt            1           1   2.8342505022532313E-002           8       86508           0
</event>
<event>
      5   9999  3.61035E-02  5.96810E+01 -1.00000E+00  1.34827E-01
      21    -1     0     0   512   501  0.000000000E+00  0.000000000E+00  2.307298759E+03  2.307298759E+03  0.000000000E+00  0.00000E+00  9.000E+00
      21    -1     0     0   501   502  0.000000000E+00  0.000000000E+00 -8.420651894E+02  8.420651894E+02  0.000000000E+00  0.00000E+00  9.000E+00
      25     1     1     2     0     0 -7.203361571E+02 -1.776850110E+02  1.514278253E+03  1.690893187E+03  1.250000000E+02  0.00000E+00  9.000E+00
      25     1     1     2     0     0  7.415338735E+02  1.218953728E+02 -5.590848800E+02  9.449507239E+02  1.250000000E+02  0.00000E+00  9.000E+00
      21     1     1     2   512   502 -2.119771646E+01  5.578963819E+01  5.100401962E+02  5.135200372E+02  7.629394531E-06  0.00000E+00  9.000E+00
#rwgt            1           1   8.4064199109206802E-002           8       86687           0
</event>
<event>
      5   9999  3.19816E-02  2.46577E+01 -1.00000E+00  1.59201E-01
      21    -1     0     0   502   501  0.000000000E+00  0.000000000E+00  2.251313459E+01  2.251313459E+01  0.000000000E+00  0.00000E+00  9.000E+00
      21    -1     0     0   511   502  0.000000000E+00  0.000000000E+00 -1.795916720E+03  1.795916720E+03  0.000000000E+00  0.00000E+00  9.000E+00
      25     1     1     2     0     0  1.166935168E+01  1.194240059E+02 -1.227322217E+03  1.239493078E+03  1.250000000E+02  0.00000E+00  9.000E+00
      25     1     1     2     0     0 -1.230872055E+00 -9.708479105E+01 -3.895845285E+02  4.205093061E+02  1.250000000E+02  0.00000E+00  9.000E+00
      21     1     1     2   511   501 -1.043847963E+01 -2.233921487E+01 -1.564968409E+02  1.584274711E+02  1.907348633E-06  0.00000E+00  9.000E+00
#rwgt            1           1   1.3431640581479509E-002           8       86832           0
</event>
<event>
      5   9999  3.19816E-02  1.36871E+01 -1.00000E+00  1.81215E-01
      21    -1     0     0   502   501  0.000000000E+00  0.000000000E+00  9.668318613E+02  9.668318613E+02  0.000000000E+00  0.00000E+00  9.000E+00
      21    -1     0     0   501   512  0.000000000E+00  0.000000000E+00 -8.547239723E+02  8.547239723E+02  0.000000000E+00  0.00000E+00  9.000E+00
      25     1     1     2     0     0  1.779584447E+02  7.362032655E+02  3.869143418E+02  8.596465344E+02  1.250000000E+02  0.00000E+00  9.000E+00
      25     1     1     2     0     0 -1.914668784E+02 -7.339989956E+02 -8.710500927E+01  7.737094892E+02  1.250000000E+02  0.00000E+00  9.000E+00
      21     1     1     2   502   512  1.350843370E+01 -2.204269957E+00 -1.877014435E+02  1.881998100E+02  0.000000000E+00  0.00000E+00  9.000E+00
#rwgt            1           1   2.6438954911038429E-002           8       86919           0
</event>
<event>
      5   9999  3.19816E-02  2.44444E+01 -1.00000E+00  1.59485E-01
      21    -1     0     0   502   511  0.000000000E+00  0.000000000E+00  9.490850509E+02  9.490850509E+02  0.000000000E+00  0.00000E+00  9.000E+00
      21    -1     0     0   501   502  0.000000000E+00  0.000000000E+00 -6.254127021E+02  6.254127021E+02  0.000000000E+00  0.00000E+00  9.000E+00
      25     1     1     2     0     0  7.446492248E+01 -3.825413449E+01 -6.078407542E+02  6.261819113E+02  1.250000000E+02  0.00000E+00  9.000E+00
      25     1     1     2     0     0 -8.683566892E+01  1.717115144E+01  8.145576057E+02  8.288331405E+02  1.250000000E+02  0.00000E+00  9.000E+00
      21     1     1     2   501   511  1.237074644E+01  2.108298305E+01  1.169554973E+02  1.194827012E+02  2.336015456E-06  0.00000E+00  9.000E+00
#rwgt            1           1   3.1427211027573829E-002           8       87151           0
</event>
<event>
      5   9999  3.19816E-02  4.66070E+01 -1.00000E+00  1.40839E-01
      21    -1     0     0   502   501  0.000000000E+00  0.000000000E+00  5.409929084E+02  5.409929084E+02  0.000000000E+00  0.00000E+00  9.000E+00
       2    -1     0     0   501     0  0.000000000E+00  0.000000000E+00 -5.985868818E+02  5.985868818E+02  0.000000000E+00  0.00000E+00  9.000E+00
      25     1     1     2     0     0 -1.792392230E+02 -1.666174691E+02  1.170606773E+02  2.986909477E+02  1.250000000E+02  0.00000E+00  9.000E+00
      25     1     1     2     0     0  1.898349934E+02  1.212309065E+02  2.819511230E+02  3.819105827E+02  1.250000000E+02  0.00000E+00  9.000E+00
       2     1     1     2   502     0 -1.059577040E+01  4.538656262E+01 -4.566057737E+02  4.589782598E+02  7.629394531E-06  0.00000E+00  9.000E+00
#rwgt            1           1   2.8630342492279404E-002           8       87322           0
</event>
<event>
      5   9999  3.19816E-02  1.87807E+02 -1.00000E+00  1.12652E-01
      21    -1     0     0   502   501  0.000000000E+00  0.000000000E+00  3.297639101E+02  3.297639101E+02  0.000000000E+00  0.00000E+00  9.000E+00
      21    -1     0     0   511   502  0.000000000E+00  0.000000000E+00 -4.625423669E+02  4.625423669E+02  0.000000000E+00  0.00000E+00  9.000E+00
      25     1     1     2     0     0  2.888234123E+02 -9.124327497E+01  7.821918575E+01  3.368791174E+02  1.250000000E+02  0.00000E+00  9.000E+00
      25     1     1     2     0     0 -1.032934823E+02  6.208829110E+01 -9.179936120E-01  1.736385386E+02  1.250000000E+02  0.00000E+00  9.000E+00
      21     1     1     2   511   501 -1.855299299E+02  2.915498388E+01 -2.100796489E+02  2.817886209E+02  5.394796609E-06  0.00000E+00  9.000E+00
#rwgt            1           1   2.6141529215526326E-002           8       87479           0
</event>
<event>
      5   9999  3.19816E-02  5.71654E+01 -1.00000E+00  1.35836E-01
      21    -1     0     0   502   501  0.000000000E+00  0.000000000E+00  1.166240856E+03  1.166240856E+03  0.000000000E+00  0.00000E+00  9.000E+00
      21    -1     0     0   501   512  0.000000000E+00  0.000000000E+00 -1.130681325E+02  1.130681325E+02  0.000000000E+00  0.00000E+00  9.000E+00
      25     1     1     2     0     0 -2.346503288E+02  4.065085031E+01  8.827035706E+02  9.227696689E+02  1.250000000E+02  0.00000E+00  9.000E+00
      25     1     1     2     0     0  2.159001486E+02  1.335205033E+01  1.089344537E+02  2.725488335E+02  1.250000000E+02  0.00000E+00  9.000E+00
      21     1     1     2   502   512  1.875018016E+01 -5.400290064E+01  6.153469907E+01  8.399048591E+01  1.784161275E-06  0.00000E+00  9.000E+00
#rwgt            1           1   3.2064257741500998E-002           8       87509           0
</event>
<event>
      5   9999  3.19816E-02  1.47661E+01 -1.00000E+00  1.78029E-01
      21    -1     0     0   502   511  0.000000000E+00  0.000000000E+00  1.474572806E+02  1.474572806E+02  0.000000000E+00  0.00000E+00  9.000E+00
      21    -1     0     0   501   502  0.000000000E+00  0.000000000E+00 -1.208866717E+03  1.208866717E+03  0.000000000E+00  0.00000E+00  9.000E+00
      25     1     1     2     0     0  2.348745348E+02  1.095525042E+02 -2.987925188E+02  4.148129308E+02  1.250000000E+02  0.00000E+00  9.000E+00
      25     1     1     2     0     0 -2.495825924E+02 -1.108600398E+02 -8.247041679E+02  8.776920778E+02  1.250000000E+02  0.00000E+00  9.000E+00
      21     1     1     2   501   511  1.470805759E+01  1.307535559E+00  6.208725072E+01  6.381898863E+01  2.780414531E-06  0.00000E+00  9.000E+00
#rwgt            1           1   2.7012812349669305E-002           8       87645           0
</event>
<event>
      5   9999  3.19816E-02  1.18649E+01 -1.00000E+00  1.87547E-01
      21    -1     0     0   512   501  0.000000000E+00  0.000000000E+00  4.515676173E+02  4.515676173E+02  0.000000000E+00  0.00000E+00  9.000E+00
      21    -1     0     0   501   502  0.000000000E+00  0.000000000E+00 -2.165860979E+02  2.165860979E+02  0.000000000E+00  0.00000E+00  9.000E+00
      25     1     1     2     0     0  1.251108359E+02 -2.062025196E+02  4.329697353E+01  2.750851291E+02  1.250000000E+02  0.00000E+00  9.000E+00
      25     1     1     2     0     0 -1.249821774E+02  1.943383591E+02  7.144488741E+01  2.722449530E+02  1.250000000E+02  0.00000E+00  9.000E+00
      21     1     1     2   512   502 -1.286585497E-01  1.186416053E+01  1.202396584E+02  1.208236331E+02  1.907348633E-06  0.00000E+00  9.000E+00
#rwgt            1           1   2.8979529239956531E-002           8       87863           0
</event>
<event>
      5   9999  3.19816E-02  3.69394E+01 -1.00000E+00  1.47017E-01
      21    -1     0     0   502   501  0.000000000E+00  0.000000000E+00  2.836857871E+02  2.836857871E+02  0.000000000E+00  0.00000E+00  9.000E+00
      21    -1     0     0   501   511  0.000000000E+00  0.000000000E+00 -2.332020344E+02  2.332020344E+02  0.000000000E+00  0.00000E+00  9.000E+00
      25     1     1     2     0     0 -1.491187116E+02  4.358388738E+01  1.563282361E+02  2.533761291E+02  1.250000000E+02  0.00000E+00  9.000E+00
      25     1     1     2     0     0  1.403481440E+02 -7.946702981E+01 -9.447227974E+01  2.248613394E+02  1.250000000E+02  0.00000E+00  9.000E+00
      21     1     1     2   502   511  8.770567671E+00  3.588314243E+01 -1.137220372E+01  3.865035298E+01  6.529361695E-07  0.00000E+00  9.000E+00
#rwgt            1           1   2.9120219832952012E-002           8       88079           0
</event>
<event>
      5   9999  3.19816E-02  3.10453E+01 -1.00000E+00  1.52014E-01
      21    -1     0     0   502   501  0.000000000E+00  0.000000000E+00  4.117598248E+02  4.117598248E+02  0.000000000E+00  0.00000E+00  9.000E+00
      21    -1     0     0   512   502  0.000000000E+00  0.000000000E+00 -1.204519703E+03  1.204519703E+03  0.000000000E+00  0.00000E+00  9.000E+00
      25     1     1     2     0     0 -2.381790058E+02 -8.141725013E+01  2.369449688E+02  3.675947846E+02  1.250000000E+02  0.00000E+00  9.000E+00
      25     1     1     2     0     0  2.124159256E+02  9.873987258E+01 -5.208198349E+01  2.705690686E+02  1.250000000E+02  0.00000E+00  9.000E+00
      21     1     1     2   512   501  2.576308022E+01 -1.732262245E+01 -9.776228634E+02  9.781156745E+02  1.868812365E-05  0.00000E+00  9.000E+00
#rwgt            1           1   3.0112608942489794E-002           8       88211           0
</event>
<event>
      5   9999  3.19816E-02  3.42878E+01 -1.00000E+00  1.49116E-01
      21    -1     0     0   511   501  0.000000000E+00  0.000000000E+00  2.292887464E+03  2.292887464E+03  0.000000000E+00  0.00000E+00  9.000E+00
      21    -1     0     0   501   502  0.000000000E+00  0.000000000E+00 -1.150586713E+02  1.150586713E+02  0.000000000E+00  0.00000E+00  9.000E+00
      25     1     1     2     0     0  7.642690923E+01  1.333577524E+02  2.044213443E+03  2.053791363E+03  1.250000000E+02  0.00000E+00  9.000E+00
      25     1     1     2     0     0 -4.215129096E+01 -1.324427444E+02 -2.793507148E+01  1.890057674E+02  1.250000000E+02  0.00000E+00  9.000E+00
      21     1     1     2   511   502 -3.427561827E+01 -9.150080330E-01  1.615504213E+02  1.651490051E+02  1.907348633E-06  0.00000E+00  9.000E+00
#rwgt            1           1   3.0196324040697647E-002           8       88367           0
</event>
<event>
      5   9999  3.19816E-02  6.70960E+01 -1.00000E+00  1.32159E-01
      21    -1     0     0   502   501  0.000000000E+00  0.000000000E+00  3.200386445E+02  3.200386445E+02  0.000000000E+00  0.00000E+00  9.000E+00
      21    -1     0     0   512   502  0.000000000E+00  0.000000000E+00 -4.742813668E+02  4.742813668E+02  0.000000000E+00  0.00000E+00  9.000E+00
      25     1     1     2     0     0 -2.654690228E+02  4.392982339E+01 -1.083457947E+02  3.158598466E+02  1.250000000E+02  0.00000E+00  9.000E+00
      25     1     1     2     0     0  3.318077186E+02 -5.398192345E+01  4.926218639E+01  3.620251002E+02  1.250000000E+02  0.00000E+00  9.000E+00
      21     1     1     2   512   501 -6.633869578E+01  1.005210006E+01 -9.515911401E+01  1.164350645E+02  0.000000000E+00  0.00000E+00  9.000E+00
#rwgt            1           1   2.7887266006843329E-002           8       88527           0
</event>
<event>
      5   9999  3.81882E-02  3.33699E+01 -1.00000E+00  1.49897E-01
      21    -1     0     0   502   511  0.000000000E+00  0.000000000E+00  4.476424435E+02  4.476424435E+02  0.000000000E+00  0.00000E+00  9.000E+00
      21    -1     0     0   501   502  0.000000000E+00  0.000000000E+00 -9.355648630E+02  9.355648630E+02  0.000000000E+00  0.00000E+00  9.000E+00
      25     1     1     2     0     0 -3.552867997E+02 -3.495017864E+02 -5.118278462E+02  7.252399278E+02  1.250000000E+02  0.00000E+00  9.000E+00
      25     1     1     2     0     0  3.575203974E+02  3.827968031E+02 -8.400949840E+01  5.450108465E+02  1.250000000E+02  0.00000E+00  9.000E+00
      21     1     1     2   501   511 -2.233597683E+00 -3.329501672E+01  1.079149251E+02  1.129565321E+02  1.907348633E-06  0.00000E+00  9.000E+00
#rwgt            1           1   3.8547473346603960E-002           8       88613           0
</event>
<event>
      5   9999  3.19816E-02  1.43101E+02 -1.00000E+00  1.17210E-01
      21    -1     0     0   512   501  0.000000000E+00  0.000000000E+00  1.135415915E+03  1.135415915E+03  0.000000000E+00  0.00000E+00  9.000E+00
      21    -1     0     0   501   502  0.000000000E+00  0.000000000E+00 -2.907357307E+02  2.907357307E+02  0.000000000E+00  0.00000E+00  9.000E+00
      25     1     1     2     0     0 -3.653981405E+00 -3.898959001E+02  2.021083866E+02  4.566234383E+02  1.250000000E+02  0.00000E+00  9.000E+00
      25     1     1     2     0     0 -8.217432565E+01  5.044005224E+02  3.178560210E+02  6.146787428E+02  1.250000000E+02  0.00000E+00  9.000E+00
      21     1     1     2   512   502  8.582830706E+01 -1.145046223E+02  3.247157765E+02  3.548494643E+02  0.000000000E+00  0.00000E+00  9.000E+00
#rwgt            2          11   2.7351330284750472E-003           8       88863           0
</event>
<event>
      5   9999  3.19816E-02  2.29408E+02 -1.00000E+00  1.09521E-01
      21    -1     0     0   502   501  0.000000000E+00  0.000000000E+00  3.181004328E+02  3.181004328E+02  0.000000000E+00  0.00000E+00  9.000E+00
      21    -1     0     0   511   502  0.000000000E+00  0.000000000E+00 -4.373191800E+02  4.373191800E+02  0.000000000E+00  0.00000E+00  9.000E+00
      25     1     1     2     0     0 -5.567436296E+01  2.618001433E+02 -1.068251776E+02  3.141266755E+02  1.250000000E+02  0.00000E+00  9.000E+00
      25     1     1     2     0     0  1.528919970E+02 -5.400956537E+01  3.315640691E+01  2.074062275E+02  1.250000000E+02  0.00000E+00  9.000E+00
      21     1     1     2   511   501 -9.721763401E+01 -2.077905779E+02 -4.554997656E+01  2.338867097E+02  3.371747881E-06  0.00000E+00  9.000E+00
#rwgt            2          11   3.2174492525680245E-003           8       88883           0
</event>
<event>
      5   9999  3.19816E-02  5.52947E+02 -1.00000E+00  9.76258E-02
       2    -1     0     0   502     0  0.000000000E+00  0.000000000E+00  2.934918422E+03  2.934918422E+03  0.000000000E+00  0.00000E+00  9.000E+00
      21    -1     0     0   501   502  0.000000000E+00  0.000000000E+00 -4.795461809E+02  4.795461809E+02  0.000000000E+00  0.00000E+00  9.000E+00
      25     1     1     2     0     0 -6.264037969E+01  1.314952533E+02  4.039260814E+02  4.472092330E+02  1.250000000E+02  0.00000E+00  9.000E+00
      25     1     1     2     0     0  3.959282010E+02  3.097181280E+02 -2.677208363E+02  5.830813883E+02  1.250000000E+02  0.00000E+00  9.000E+00
       2     1     1     2   501     0 -3.332878213E+02 -4.412133812E+02  2.319166996E+03  2.384173981E+03  0.000000000E+00  0.00000E+00  9.000E+00
#rwgt            1           1   2.9817380906708352E-002           8       88903           0
</event>
<event>
      5   9999  3.19816E-02  2.89430E+01 -1.00000E+00  1.54130E-01
      21    -1     0     0   502   501  0.000000000E+00  0.000000000E+00  1.608146188E+03  1.608146188E+03  0.000000000E+00  0.00000E+00  9.000E+00
       1    -1     0     0   501     0  0.000000000E+00  0.000000000E+00 -4.068228248E+02  4.068228248E+02  0.000000000E+00  0.00000E+00  9.000E+00
      25     1     1     2     0     0  1.656149267E+02  3.593708074E+02  5.147223385E+02  6.611654610E+02  1.250000000E+02  0.00000E+00  9.000E+00
      25     1     1     2     0     0 -1.503455885E+02 -3.347833684E+02  9.826379865E+02  1.056355107E+03  1.250000000E+02  0.00000E+00  9.000E+00
       1     1     1     2   502     0 -1.526933821E+01 -2.458743895E+01 -2.960369615E+02  2.974484450E+02  6.607249480E-06  0.00000E+00  9.000E+00
#rwgt            1           1   2.6966499577762662E-002           8       88940           0
</event>
<event>
      5   9999  3.19816E-02  6.74975E+01 -1.00000E+00  1.32026E-01
      21    -1     0     0   502   501  0.000000000E+00  0.000000000E+00  4.926099237E+01  4.926099237E+01  0.000000000E+00  0.00000E+00  9.000E+00
      21    -1     0     0   501   511  0.000000000E+00  0.000000000E+00 -2.021347130E+03  2.021347130E+03  0.000000000E+00  0.00000E+00  9.000E+00
      25     1     1     2     0     0  3.317304177E+01  2.363905264E+01 -5.432082958E+01  1.422498086E+02  1.250000000E+02  0.00000E+00  9.000E+00
      25     1     1     2     0     0  2.275314652E+01  1.415207910E+01 -1.468074662E+03  1.473630280E+03  1.250000000E+02  0.00000E+00  9.000E+00
      21     1     1     2   502   511 -5.592618829E+01 -3.779113173E+01 -4.496906458E+02  4.547280342E+02  5.394796609E-06  0.00000E+00  9.000E+00
#rwgt            1           1   3.2392874005490166E-002           8       89079           0
</event>
<event>
      5   9999  3.19816E-02  2.82074E+01 -1.00000E+00  1.54922E-01
      21    -1     0     0   502   512  0.000000000E+00  0.000000000E+00  1.805488924E+03  1.805488924E+03  0.000000000E+00  0.00000E+00  9.000E+00
      21    -1     0     0   501   502  0.000000000E+00  0.000000000E+00 -3.177238454E+02  3.177238454E+02  0.000000000E+00  0.00000E+00  9.000E+00
      25     1     1     2     0     0  5.586256316E+02  2.746612863E+02  3.813671179E+02  7.406532908E+02  1.250000000E+02  0.00000E+00  9.000E+00
      25     1     1     2     0     0 -5.855889826E+02 -2.829459002E+02  6.590227425E+02  9.342958921E+02  1.250000000E+02  0.00000E+00  9.000E+00
      21     1     1     2   501   512  2.696335093E+01  8.284613855E+00  4.473752180E+02  4.482635863E+02  5.394796609E-06  0.00000E+00  9.000E+00
#rwgt            1           1   3.1611315434524973E-002           8       89144           0
</event>
<event>
      5   9999  3.19816E-02  3.20350E+00 -1.00000E+00  2.88479E-01
      21    -1     0     0   511   501  0.000000000E+00  0.000000000E+00  5.687227178E+01  5.687227178E+01  0.000000000E+00  0.00000E+00  9.000E+00
      21    -1     0     0   501   502  0.000000000E+00  0.000000000E+00 -4.826223282E+02  4.826223282E+02  0.000000000E+00  0.00000E+00  9.000E+00
      25     1     1     2     0     0  6.618846612E+01  2.693268264E+01 -8.656533339E+01  1.680024982E+02  1.250000000E+02  0.00000E+00  9.000E+00
      25     1     1     2     0     0 -6.692767727E+01 -2.381564079E+01 -3.390623511E+02  3.682862700E+02  1.250000000E+02  0.00000E+00  9.000E+00
      21     1     1     2   511   502  7.392111501E-01 -3.117041846E+00 -1.223719559E-01  3.205831857E+00  7.355679793E-08  0.00000E+00  9.000E+00
#rwgt            1           1   2.4300782894815791E-002           8       89275           0
</event>
<event>
      5   9999  3.19816E-02  9.14489E+00 -1.00000E+00  2.00355E-01
      21    -1     0     0   502   501  0.000000000E+00  0.000000000E+00  6.983792523E+02  6.983792523E+02  0.000000000E+00  0.00000E+00  9.000E+00
      21    -1     0     0   501   512  0.000000000E+00  0.000000000E+00 -1.597550680E+02  1.597550680E+02  0.000000000E+00  0.00000E+00  9.000E+00
      25     1     1     2     0     0 -2.178711581E+02  1.798322355E+02  4.032524466E+02  5.079813089E+02  1.250000000E+02  0.00000E+00  9.000E+00
      25     1     1     2     0     0  2.266726752E+02 -1.773498174E+02  1.314046000E+02  3.401846973E+02  1.250000000E+02  0.00000E+00  9.000E+00
      21     1     1     2   502   512 -8.801517109E+00 -2.482418165E+00  3.967137714E+00  9.968314050E+00  1.685873940E-07  0.00000E+00  9.000E+00
#rwgt            1           1   2.7310154879361784E-002           8       89660           0
</event>
<event>
      5   9999  3.19816E-02  4.48096E+01 -1.00000E+00  1.41847E-01
      21    -1     0     0   502   501  0.000000000E+00  0.000000000E+00  1.952499213E+02  1.952499213E+02  0.000000000E+00  0.00000E+00  9.000E+00
      21    -1     0     0   501   511  0.000000000E+00  0.000000000E+00 -2.699683838E+02  2.699683838E+02  0.000000000E+00  0.00000E+00  9.000E+00
      25     1     1     2     0     0 -3.403931782E+01 -5.045069254E+01  1.226020278E+02  1.853650581E+02  1.250000000E+02  0.00000E+00  9.000E+00
      25     1     1     2     0     0  6.768952166E+01  2.086078160E+01 -1.833094139E+02  2.329042395E+02  1.250000000E+02  0.00000E+00  9.000E+00
      21     1     1     2   502   511 -3.365020384E+01  2.958991094E+01 -1.401107636E+01  4.694900753E+01  1.250277577E-06  0.00000E+00  9.000E+00
#rwgt            1           1   2.6974131875287282E-002           8       89990           0
</event>
<event>
      5   9999  3.19816E-02  8.29768E+00 -1.00000E+00  2.05617E-01
      21    -1     0     0   502   501  0.000000000E+00  0.000000000E+00  9.446586512E+02  9.446586512E+02  0.000000000E+00  0.00000E+00  9.000E+00
      21    -1     0     0   501   512  0.000000000E+00  0.000000000E+00 -7.644972067E+01  7.644972067E+01  0.000000000E+00  0.00000E+00  9.000E+00
      25     1     1     2     0     0 -7.239675956E+01  1.252041976E+02  3.937168771E+02  4.376703796E+02  1.250000000E+02  0.00000E+00  9.000E+00
      25     1     1     2     0     0  8.062110886E+01 -1.241034495E+02  5.107447701E+02  5.462477914E+02  1.250000000E+02  0.00000E+00  9.000E+00
      21     1     1     2   502   512 -8.224349304E+00 -1.100748102E+00 -3.625271672E+01  3.719020083E+01  1.168007728E-06  0.00000E+00  9.000E+00
#rwgt            1           1   3.0482357319397489E-002           8       90055           0
</event>
<event>
      5   9999  3.19816E-02  4.20038E+01 -1.00000E+00  1.43536E-01
      21    -1     0     0   502   511  0.000000000E+00  0.000000000E+00  3.744837095E+02  3.744837095E+02  0.000000000E+00  0.00000E+00  9.000E+00
      21    -1     0     0   501   502  0.000000000E+00  0.000000000E+00 -1.023856868E+03  1.023856868E+03  0.000000000E+00  0.00000E+00  9.000E+00
      25     1     1     2     0     0 -5.370021183E+02 -1.393409018E+01 -2.477910155E+02  6.046410681E+02  1.250000000E+02  0.00000E+00  9.000E+00
      25     1     1     2     0     0  5.596806845E+02 -2.142126329E+01 -4.502452727E+02  7.294156187E+02  1.250000000E+02  0.00000E+00  9.000E+00
      21     1     1     2   501   511 -2.267856627E+01  3.535535347E+01  4.866312982E+01  6.428389061E+01  9.536743164E-07  0.00000E+00  9.000E+00
#rwgt            1           1   2.3593953645565994E-002           8       90206           0
</event>
<event>
      5   9999  3.19816E-02  8.09809E+01 -1.00000E+00  1.28094E-01
      21    -1     0     0   502   501  0.000000000E+00  0.000000000E+00  3.217197432E+02  3.217197432E+02  0.000000000E+00  0.00000E+00  9.000E+00
      21    -1     0     0   512   502  0.000000000E+00  0.000000000E+00 -1.086241403E+03  1.086241403E+03  0.000000000E+00  0.00000E+00  9.000E+00
      25     1     1     2     0     0  2.215165984E+02 -4.264289934E+02 -2.805552828E+02  5.703047927E+02  1.250000000E+02  0.00000E+00  9.000E+00
      25     1     1     2     0     0 -3.005805964E+02  4.439444673E+02 -2.787903911E+02  6.170773591E+02  1.250000000E+02  0.00000E+00  9.000E+00
      21     1     1     2   512   501  7.906399798E+01 -1.751547383E+01 -2.051759856E+02  2.205789941E+02  0.000000000E+00  0.00000E+00  9.000E+00
#rwgt            1           1   2.9120692405000467E-002           8       90367           0
</event>
<event>
      5   9999  3.19816E-02  2.29004E+02 -1.00000E+00  1.09548E-01
      21    -1     0     0   502   501  0.000000000E+00  0.000000000E+00  7.504354053E+02  7.504354053E+02  0.000000000E+00  0.00000E+00  9.000E+00
      21    -1     0     0   511   502  0.000000000E+00  0.000000000E+00 -4.275454257E+02  4.275454257E+02  0.000000000E+00  0.00000E+00  9.000E+00
      25     1     1     2     0     0  2.202399579E+02  9.792735466E+01 -1.676086310E+02  3.190815868E+02  1.250000000E+02  0.00000E+00  9.000E+00
      25     1     1     2     0     0 -3.123167924E+02  1.117496820E+02  5.186057744E+02  6.281772994E+02  1.250000000E+02  0.00000E+00  9.000E+00
      21     1     1     2   511   501  9.207683454E+01 -2.096770366E+02 -2.810716382E+01  2.307219448E+02  3.520208135E-06  0.00000E+00  9.000E+00
#rwgt            1           1   2.9455783507802299E-002           8       90525           0
</event>
<event>
      5   9999  3.19816E-02  2.29620E+02 -1.00000E+00  1.09507E-01
      21    -1     0     0   502   501  0.000000000E+00  0.000000000E+00  2.783097178E+03  2.783097178E+03  0.000000000E+00  0.00000E+00  9.000E+00
      21    -1     0     0   501   512  0.000000000E+00  0.000000000E+00 -2.088405686E+02  2.088405686E+02  0.000000000E+00  0.00000E+00  9.000E+00
      25     1     1     2     0     0 -5.695767829E+02 -2.371385490E+01  6.096127887E+02  8.439388667E+02  1.250000000E+02  0.00000E+00  9.000E+00
      25     1     1     2     0     0  3.839385080E+02  1.588580387E+02  1.832290119E+03  1.882964879E+03  1.250000000E+02  0.00000E+00  9.000E+00
      21     1     1     2   502   512  1.856382749E+02 -1.351441838E+02  1.323537019E+02  2.650340015E+02  4.264961200E-06  0.00000E+00  9.000E+00
#rwgt            1           1   2.2738260273573306E-002           8       90609           0
</event>
<event>
      5   9999  3.19816E-02  8.30091E+00 -1.00000E+00  2.05596E-01
      21    -1     0     0   502   501  0.000000000E+00  0.000000000E+00  2.776790042E+02  2.776790042E+02  0.000000000E+00  0.00000E+00  9.000E+00
      21    -1     0     0   511   502  0.000000000E+00  0.000000000E+00 -1.873383010E+02  1.873383010E+02  0.000000000E+00  0.00000E+00  9.000E+00
      25     1     1     2     0     0  1.132716764E+02  2.755738477E+01 -4.818832566E+01  1.775865897E+02  1.250000000E+02  0.00000E+00  9.000E+00
      25     1     1     2     0     0 -1.164589164E+02 -1.989274923E+01  1.777489038E+02  2.473420172E+02  1.250000000E+02  0.00000E+00  9.000E+00
      21     1     1     2   511   501  3.187240058E+00 -7.664635533E+00 -3.921987488E+01  4.008869819E+01  4.768371582E-07  0.00000E+00  9.000E+00
#rwgt            1           1   2.9221059792125036E-002           8       90665           0
</event>
<event>
      5   9999  3.19816E-02  2.57805E+01 -1.00000E+00  1.57757E-01
      21    -1     0     0   502   501  0.000000000E+00  0.000000000E+00  1.078261716E+02  1.078261716E+02  0.000000000E+00  0.00000E+00  9.000E+00
      21    -1     0     0   512   502  0.000000000E+00  0.000000000E+00 -5.646419057E+02  5.646419057E+02  0.000000000E+00  0.00000E+00  9.000E+00
      25     1     1     2     0     0  4.255685438E+01  1.106534177E+01 -3.962118917E+02  4.177827076E+02  1.250000000E+02  0.00000E+00  9.000E+00
      25     1     1     2     0     0 -3.329309187E+01 -3.512396768E+01  4.852358291E+01  1.425540640E+02  1.250000000E+02  0.00000E+00  9.000E+00
      21     1     1     2   512   501 -9.263762514E+00  2.405862592E+01 -1.091274253E+02  1.121313058E+02  0.000000000E+00  0.00000E+00  9.000E+00
#rwgt            1           1   2.9382576806059289E-002           8       90839           0
</event>
<event>
      5   9999  3.19816E-02  3.21775E+01 -1.00000E+00  1.50956E-01
      21    -1     0     0   502   511  0.000000000E+00  0.000000000E+00  2.599867585E+03  2.599867585E+03  0.000000000E+00  0.00000E+00  9.000E+00
      21    -1     0     0   501   502  0.000000000E+00  0.000000000E+00 -1.761573618E+01  1.761573618E+01  0.000000000E+00  0.00000E+00  9.000E+00
      25     1     1     2     0     0 -2.012396195E+01 -7.268626080E+01  3.681541544E+02  3.960438710E+02  1.250000000E+02  0.00000E+00  9.000E+00
      25     1     1     2     0     0  4.964127979E+01  5.987530562E+01  1.901172884E+03  1.906864610E+03  1.250000000E+02  0.00000E+00  9.000E+00
      21     1     1     2   501   511 -2.951731784E+01  1.281095518E+01  3.129248105E+02  3.145748395E+02  3.814697266E-06  0.00000E+00  9.000E+00
#rwgt            1           1   5.9582121466210849E-002           8       90972           0
</event>
<event>
      5   9999  3.19816E-02  1.51817E+02 -1.00000E+00  1.16187E-01
       2    -1     0     0   502     0  0.000000000E+00  0.000000000E+00  5.796153346E+02  5.796153346E+02  0.000000000E+00  0.00000E+00  9.000E+00
      21    -1     0     0   501   502  0.000000000E+00  0.000000000E+00 -9.939431464E+02  9.939431464E+02  0.000000000E+00  0.00000E+00  9.000E+00
      25     1     1     2     0     0  5.980363799E+02 -2.359242815E+02 -1.188234270E+02  6.656213526E+02  1.250000000E+02  0.00000E+00  9.000E+00
      25     1     1     2     0     0 -6.809205527E+02  1.087296899E+02 -2.007302953E+02  7.289668004E+02  1.250000000E+02  0.00000E+00  9.000E+00
       2     1     1     2   501     0  8.288417287E+01  1.271945916E+02 -9.477408951E+01  1.789703280E+02  1.348699152E-06  0.00000E+00  9.000E+00
#rwgt            1           1   2.3039312756383865E-002           8       91064           0
</event>
<event>
      5   9999  3.19816E-02  2.97798E+01 -1.00000E+00  1.53262E-01
      21    -1     0     0   511   501  0.000000000E+00  0.000000000E+00  5.991857588E+02  5.991857588E+02  0.000000000E+00  0.00000E+00  9.000E+00
      21    -1     0     0   501   502  0.000000000E+00  0.000000000E+00 -7.064873489E+02  7.064873489E+02  0.000000000E+00  0.00000E+00  9.000E+00
      25     1     1     2     0     0  3.083128878E+02  1.563009486E+02 -3.609287610E+02  5.151518163E+02  1.250000000E+02  0.00000E+00  9.000E+00
      25     1     1     2     0     0 -3.097777500E+02 -1.860446517E+02 -1.314265600E+02  4.043177061E+02  1.250000000E+02  0.00000E+00  9.000E+00
      21     1     1     2   511   502  1.464862124E+00  2.974370306E+01  3.850537308E+02  3.862035853E+02  0.000000000E+00  0.00000E+00  9.000E+00
#rwgt            1           1   2.8668294243203531E-002           8       91137           0
</event>
<event>
      5   9999  3.19816E-02  8.27214E+02 -1.00000E+00  9.30134E-02
      -3    -1     0     0     0   501  0.000000000E+00  0.000000000E+00  1.543282793E+03  1.543282793E+03  0.000000000E+00  0.00000E+00  9.000E+00
      21    -1     0     0   501   502  0.000000000E+00  0.000000000E+00 -7.588796364E+02  7.588796364E+02  0.000000000E+00  0.00000E+00  9.000E+00
      25     1     1     2     0     0 -9.381756070E+01 -1.457935922E+02  5.120864287E+01  2.197836011E+02  1.250000000E+02  0.00000E+00  9.000E+00
      25     1     1     2     0     0  1.674986091E+02  9.697199053E+02  2.320877588E+01  9.922580945E+02  1.250000000E+02  0.00000E+00  9.000E+00
      -3     1     1     2     0   502 -7.368104844E+01 -8.239263132E+02  7.099857382E+02  1.090120734E+03  1.078959322E-05  0.00000E+00  9.000E+00
#rwgt            2           3   2.2718675712341127E-005           8       91343           0
</event>
<event>
      5   9999  3.19816E-02  2.96438E+02 -1.00000E+00  1.05761E-01
      21    -1     0     0   502   501  0.000000000E+00  0.000000000E+00  1.131524995E+02  1.131524995E+02  0.000000000E+00  0.00000E+00  9.000E+00
       2    -1     0     0   501     0  0.000000000E+00  0.000000000E+00 -3.235528944E+03  3.235528944E+03  0.000000000E+00  0.00000E+00  9.000E+00
      25     1     1     2     0     0  8.821923458E+01 -1.560706536E+02 -5.529400848E+01  2.254398138E+02  1.250000000E+02  0.00000E+00  9.000E+00
      25     1     1     2     0     0 -2.315026086E+02 -1.034389499E+02 -1.791447531E+03  1.813615817E+03  1.250000000E+02  0.00000E+00  9.000E+00
       2     1     1     2   502     0  1.432833740E+02  2.595096034E+02 -1.275634904E+03  1.309625812E+03  1.525878906E-05  0.00000E+00  9.000E+00
#rwgt            2          13   1.6185909135531251E-003           8       91407           0
</event>
<event>
      5   9999  3.19816E-02  4.97759E+01 -1.00000E+00  1.39187E-01
      21    -1     0     0   502   501  0.000000000E+00  0.000000000E+00  8.211256879E+02  8.211256879E+02  0.000000000E+00  0.00000E+00  9.000E+00
      21    -1     0     0   501   511  0.000000000E+00  0.000000000E+00 -8.305519567E+01  8.305519567E+01  0.000000000E+00  0.00000E+00  9.000E+00
      25     1     1     2     0     0  1.683058439E+01 -1.364807602E+01  6.991094722E+00  1.270567352E+02  1.250000000E+02  0.00000E+00  9.000E+00
      25     1     1     2     0     0  2.706374844E+01 -9.823791254E+00  7.125617812E+02  7.240153626E+02  1.250000000E+02  0.00000E+00  9.000E+00
      21     1     1     2   502   511 -4.389433284E+01  2.347186727E+01  1.851761634E+01  5.310878575E+01  1.039242493E-06  0.00000E+00  9.000E+00
#rwgt            1           1   3.0599310030474842E-002           8       91426           0
</event>
<event>
      5   9999  3.19816E-02  6.39029E+01 -1.00000E+00  1.33257E-01
      21    -1     0     0   502   501  0.000000000E+00  0.000000000E+00  5.282817446E+02  5.282817446E+02  0.000000000E+00  0.00000E+00  9.000E+00
      21    -1     0     0   512   502  0.000000000E+00  0.000000000E+00 -1.188117782E+03  1.188117782E+03  0.000000000E+00  0.00000E+00  9.000E+00
      25     1     1     2     0     0 -2.496297198E+02  3.843115484E+02  2.753565502E+02  5.490506287E+02  1.250000000E+02  0.00000E+00  9.000E+00
      25     1     1     2     0     0  3.076008972E+02 -4.111987034E+02 -5.001968143E+02  7.276843674E+02  1.250000000E+02  0.00000E+00  9.000E+00
      21     1     1     2   512   501 -5.797117740E+01  2.688715501E+01 -4.349957734E+02  4.396645305E+02  0.000000000E+00  0.00000E+00  9.000E+00
#rwgt            1           1   3.0099497994626623E-002           8       91550           0
</event>
<event>
      5   9999  3.19816E-02  6.23372E+01 -1.00000E+00  1.33822E-01
      21    -1     0     0   511   501  0.000000000E+00  0.000000000E+00  1.286935268E+03  1.286935268E+03  0.000000000E+00  0.00000E+00  9.000E+00
      21    -1     0     0   501   502  0.000000000E+00  0.000000000E+00 -1.062962736E+03  1.062962736E+03  0.000000000E+00  0.00000E+00  9.000E+00
      25     1     1     2     0     0 -3.890602683E+02  3.749858701E+01 -9.746206095E+02  1.057489654E+03  1.250000000E+02  0.00000E+00  9.000E+00
      25     1     1     2     0     0  3.944373668E+02  2.460626287E+01  9.571391143E+02  1.043037194E+03  1.250000000E+02  0.00000E+00  9.000E+00
      21     1     1     2   511   502 -5.377098468E+00 -6.210484989E+01  2.414540279E+02  2.493711554E+02  2.697398305E-06  0.00000E+00  9.000E+00
#rwgt            1           1   3.3424850421589748E-002           8       91643           0
</event>
<event>
      5   9999  3.47598E-02  4.32521E+01 -1.00000E+00  1.42766E-01
      21    -1     0     0   502   501  0.000000000E+00  0.000000000E+00  1.771329542E+02  1.771329542E+02  0.000000000E+00  0.00000E+00  9.000E+00
      21    -1     0     0   512   502  0.000000000E+00  0.000000000E+00 -5.901299927E+02  5.901299927E+02  0.000000000E+00  0.00000E+00  9.000E+00
      25     1     1     2     0     0  6.676069238E+01  2.082037942E+02 -6.880525779E+00  2.519487083E+02  1.250000000E+02  0.00000E+00  9.000E+00
      25     1     1     2     0     0 -1.088745691E+02 -2.180612543E+02 -3.480147929E+02  4.428811111E+02  1.250000000E+02  0.00000E+00  9.000E+00
      21     1     1     2   512   501  4.211387675E+01  9.857460051E+00 -5.810171975E+01  7.243312758E+01  6.743495762E-07  0.00000E+00  9.000E+00
#rwgt            1           1   3.0884749453341180E-002           8       91790           0
</event>
<event>
      5   9999  3.19816E-02  3.17383E+01 -1.00000E+00  1.51360E-01
      21    -1     0     0   511   501  0.000000000E+00  0.000000000E+00  3.155774701E+02  3.155774701E+02  0.000000000E+00  0.00000E+00  9.000E+00
      21    -1     0     0   501   502  0.000000000E+00  0.000000000E+00 -4.132677240E+02  4.132677240E+02  0.000000000E+00  0.00000E+00  9.000E+00
      25     1     1     2     0     0  9.937015376E+01  2.138677784E+02  1.827879130E+02  3.234969478E+02  1.250000000E+02  0.00000E+00  9.000E+00
      25     1     1     2     0     0 -8.682347425E+01 -1.847147493E+02 -2.862128567E+02  3.730960381E+02  1.250000000E+02  0.00000E+00  9.000E+00
      21     1     1     2   511   502 -1.254667951E+01 -2.915302911E+01  5.734689754E+00  3.225220829E+01  4.042583694E-07  0.00000E+00  9.000E+00
#rwgt            1           1   2.9159951688153319E-002           8       91901           0
</event>
<event>
      5   9999  3.19816E-02  1.92942E+02 -1.00000E+00  1.12219E-01
      21    -1     0     0   502   501  0.000000000E+00  0.000000000E+00  2.734461097E+03  2.734461097E+03  0.000000000E+00  0.00000E+00  9.000E+00
      21    -1     0     0   512   502  0.000000000E+00  0.000000000E+00 -7.352753051E+01  7.352753051E+01  0.000000000E+00  0.00000E+00  9.000E+00
      25     1     1     2     0     0  1.236485291E+02  1.438978190E+02  5.650440698E+02  6.090117748E+02  1.250000000E+02  0.00000E+00  9.000E+00
      25     1     1     2     0     0 -4.978890699E+01 -3.221428392E+02  1.868167192E+03  1.900507459E+03  1.250000000E+02  0.00000E+00  9.000E+00
      21     1     1     2   512   501 -7.385962212E+01  1.782450202E+02  2.277223048E+02  2.984693939E+02  7.629394531E-06  0.00000E+00  9.000E+00
#rwgt            1           1   7.0382720695338089E-002           8       92027           0
</event>
<event>
      5   9999  3.19816E-02  1.47988E+02 -1.00000E+00  1.16626E-01
      21    -1     0     0   502   511  0.000000000E+00  0.000000000E+00  5.688095443E+02  5.688095443E+02  0.000000000E+00  0.00000E+00  9.000E+00
      21    -1     0     0   501   502  0.000000000E+00  0.000000000E+00 -6.932081170E+02  6.932081170E+02  0.000000000E+00  0.00000E+00  9.000E+00
      25     1     1     2     0     0  1.405076337E+02 -5.009690810E+01 -5.914727401E+02  6.226693325E+02  1.250000000E+02  0.00000E+00  9.000E+00
      25     1     1     2     0     0  5.500886046E+00  7.422278871E+01 -4.041990981E+00  1.455356307E+02  1.250000000E+02  0.00000E+00  9.000E+00
      21     1     1     2   501   511 -1.460085198E+02 -2.412588061E+01  4.711161585E+02  4.938126981E+02  7.629394531E-06  0.00000E+00  9.000E+00
#rwgt            1           1   2.8838189679963051E-002           8       92080           0
</event>
<event>
      5   9999  3.19816E-02  4.16427E+01 -1.00000E+00  1.43764E-01
       2    -1     0     0   502     0  0.000000000E+00  0.000000000E+00  3.228427173E+02  3.228427173E+02  0.000000000E+00  0.00000E+00  9.000E+00
      21    -1     0     0   501   502  0.000000000E+00  0.000000000E+00 -1.700833151E+02  1.700833151E+02  0.000000000E+00  0.00000E+00  9.000E+00
      25     1     1     2     0     0 -9.544545837E+01  6.301397612E+01  1.689798501E+02  2.392901721E+02  1.250000000E+02  0.00000E+00  9.000E+00
      25     1     1     2     0     0  1.147332893E+02 -2.610737083E+01 -7.019343972E+01  1.854654724E+02  1.250000000E+02  0.00000E+00  9.000E+00
       2     1     1     2   501     0 -1.928783090E+01 -3.690660528E+01  5.397299193E+01  6.817038794E+01  1.168007728E-06  0.00000E+00  9.000E+00
#rwgt            1           1   2.6365608313635679E-002           8       92162           0
</event>
<event>
      5   9999  3.19816E-02  5.41725E+01 -1.00000E+00  1.37118E-01
      21    -1     0     0   502   511  0.000000000E+00  0.000000000E+00  2.843344152E+03  2.843344152E+03  0.000000000E+00  0.00000E+00  9.000E+00
      21    -1     0     0   501   502  0.000000000E+00  0.000000000E+00 -3.639857555E+02  3.639857555E+02  0.000000000E+00  0.00000E+00  9.000E+00
      25     1     1     2     0     0 -2.621677216E+02 -3.962267264E+02 -1.540128353E+02  5.148519073E+02  1.250000000E+02  0.00000E+00  9.000E+00
      25     1     1     2     0     0  2.217721565E+02  4.323218335E+02  2.247105830E+03  2.302432337E+03  1.250000000E+02  0.00000E+00  9.000E+00
      21     1     1     2   501   511  4.039556506E+01 -3.609510709E+01  3.862654023E+02  3.900456633E+02  5.394796609E-06  0.00000E+00  9.000E+00
#rwgt            1           1   2.5020180666687389E-002           8       92257           0
</event>
<event>
      5   9999  3.19816E-02  3.87327E+01 -1.00000E+00  1.45713E-01
      21    -1     0     0   502   501  0.000000000E+00  0.000000000E+00  7.876158724E+02  7.876158724E+02  0.000000000E+00  0.00000E+00  9.000E+00
      21    -1     0     0   501   512  0.000000000E+00  0.000000000E+00 -2.623684371E+02  2.623684371E+02  0.000000000E+00  0.00000E+00  9.000E+00
      25     1     1     2     0     0 -1.357456098E+02  2.368623187E+02 -2.898516706E+01  3.016550489E+02  1.250000000E+02  0.00000E+00  9.000E+00
      25     1     1     2     0     0  1.743087787E+02 -2.404827668E+02  6.044069568E+02  6.849439983E+02  1.250000000E+02  0.00000E+00  9.000E+00
      21     1     1     2   502   512 -3.856316892E+01  3.620448114E+00 -5.017435441E+01  6.338526234E+01  1.507891493E-06  0.00000E+00  9.000E+00
#rwgt            1           1   2.4829242377576419E-002           8       92374           0
</event>
<event>
      5   9999  3.19816E-02  9.22165E+01 -1.00000E+00  1.25432E-01
      21    -1     0     0   502   501  0.000000000E+00  0.000000000E+00  1.003257431E+03  1.003257431E+03  0.000000000E+00  0.00000E+00  9.000E+00
      21    -1     0     0   501   511  0.000000000E+00  0.000000000E+00 -4.863155541E+02  4.863155541E+02  0.000000000E+00  0.00000E+00  9.000E+00
      25     1     1     2     0     0  3.030463608E+02 -2.451409961E+02  4.445995962E+02  6.043384861E+02  1.250000000E+02  0.00000E+00  9.000E+00
      25     1     1     2     0     0 -2.827525311E+02  1.551851759E+02  4.092950618E+02  5.358907354E+02  1.250000000E+02  0.00000E+00  9.000E+00
      21     1     1     2   502   511 -2.029382975E+01  8.995582021E+01 -3.369527807E+02  3.493437641E+02  0.000000000E+00  0.00000E+00  9.000E+00
#rwgt            1           1   3.1126553889062415E-002           8       92484           0
</event>
<event>
      5   9999  3.19816E-02  4.04255E+01 -1.00000E+00  1.44556E-01
      21    -1     0     0   502   501  0.000000000E+00  0.000000000E+00  5.219387545E+02  5.219387545E+02  0.000000000E+00  0.00000E+00  9.000E+00
      21    -1     0     0   501   512  0.000000000E+00  0.000000000E+00 -8.472922347E+01  8.472922347E+01  0.000000000E+00  0.00000E+00  9.000E+00
      25     1     1     2     0     0 -9.256655173E+01  6.291501824E+01  1.850479882E+02  2.497891590E+02  1.250000000E+02  0.00000E+00  9.000E+00
      25     1     1     2     0     0  1.044517331E+02 -2.427609239E+01  2.670892325E+02  3.137851993E+02  1.250000000E+02  0.00000E+00  9.000E+00
      21     1     1     2   502   512 -1.188518139E+01 -3.863892585E+01 -1.492768972E+01  4.309361958E+01  1.316709640E-06  0.00000E+00  9.000E+00
#rwgt            1           1   2.8079253142445120E-002           8       92553           0
</event>
<event>
      5   9999  3.19816E-02  2.92702E+01 -1.00000E+00  1.53786E-01
      21    -1     0     0   502   511  0.000000000E+00  0.000000000E+00  8.344028517E+02  8.344028517E+02  0.000000000E+00  0.00000E+00  9.000E+00
      21    -1     0     0   501   502  0.000000000E+00  0.000000000E+00 -4.141945467E+02  4.141945467E+02  0.000000000E+00  0.00000E+00  9.000E+00
      25     1     1     2     0     0  2.697662971E+01 -1.734665298E+01  7.127126634E+01  1.474219737E+02  1.250000000E+02  0.00000E+00  9.000E+00
      25     1     1     2     0     0 -5.209670743E+01  3.237088241E+01 -3.629219561E+02  3.887149176E+02  1.250000000E+02  0.00000E+00  9.000E+00
      21     1     1     2   501   511  2.512007771E+01 -1.502422943E+01  7.118589948E+02  7.124605072E+02  1.525878906E-05  0.00000E+00  9.000E+00
#rwgt            1           1   2.6938388983164550E-002           8       92634           0
</event>
<event>
      5   9999  3.19816E-02  1.14223E+02 -1.00000E+00  1.21285E-01
      21    -1     0     0   502   501  0.000000000E+00  0.000000000E+00  8.125944884E+02  8.125944884E+02  0.000000000E+00  0.00000E+00  9.000E+00
       2    -1     0     0   501     0  0.000000000E+00  0.000000000E+00 -9.983657206E+02  9.983657206E+02  0.000000000E+00  0.00000E+00  9.000E+00
      25     1     1     2     0     0 -5.109829865E+02 -2.050081134E+02 -2.498234861E+02  6.173886242E+02  1.250000000E+02  0.00000E+00  9.000E+00
      25     1     1     2     0     0  5.112802990E+02  3.192309210E+02  4.683209595E+02  7.734762092E+02  1.250000000E+02  0.00000E+00  9.000E+00
       2     1     1     2   502     0 -2.973124577E-01 -1.142228076E+02 -4.042687056E+02  4.200953755E+02  5.394796609E-06  0.00000E+00  9.000E+00
#rwgt            1           1   2.4022022517562344E-002           8       92728           0
</event>
<event>
      5   9999  3.19816E-02  1.93822E+02 -1.00000E+00  1.12146E-01
      21    -1     0     0   511   501  0.000000000E+00  0.000000000E+00  4.285733846E+02  4.285733846E+02  0.000000000E+00  0.00000E+00  9.000E+00
      21    -1     0     0   501   502  0.000000000E+00  0.000000000E+00 -7.731130404E+02  7.731130404E+02  0.000000000E+00  0.00000E+00  9.000E+00
      25     1     1     2     0     0  4.485760429E+02  6.623611225E+01 -3.534269563E+02  5.883394448E+02  1.250000000E+02  0.00000E+00  9.000E+00
      25     1     1     2     0     0 -3.003882723E+02  5.869314064E+01 -1.496910546E+02  3.629192896E+02  1.250000000E+02  0.00000E+00  9.000E+00
      21     1     1     2   511   502 -1.481877706E+02 -1.249292529E+02  1.585783550E+02  2.504276907E+02  2.697398305E-06  0.00000E+00  9.000E+00
#rwgt            1           1   2.9342703843543021E-002           8       92842           0
</event>
<event>
      5   9999  3.19816E-02  1.60916E+01 -1.00000E+00  1.74557E-01
      21    -1     0     0   502   501  0.000000000E+00  0.000000000E+00  2.301944237E+02  2.301944237E+02  0.000000000E+00  0.00000E+00  9.000E+00
       2    -1     0     0   501     0  0.000000000E+00  0.000000000E+00 -8.677012280E+02  8.677012280E+02  0.000000000E+00  0.00000E+00  9.000E+00
      25     1     1     2     0     0  3.760902705E+01  1.523206057E+02  1.263093538E+02  2.370549697E+02  1.250000000E+02  0.00000E+00  9.000E+00
      25     1     1     2     0     0 -2.213514797E+01 -1.479050124E+02 -1.477974085E+02  2.446117974E+02  1.250000000E+02  0.00000E+00  9.000E+00
       2     1     1     2   502     0 -1.547387908E+01 -4.415593261E+00 -6.160187496E+02  6.162288846E+02  1.525878906E-05  0.00000E+00  9.000E+00
#rwgt            1           1   2.9995186307263017E-002           8       92886           0
</event>
<event>
      5   9999  3.19816E-02  5.14987E+01 -1.00000E+00  1.38348E-01
      21    -1     0     0   502   501  0.000000000E+00  0.000000000E+00  2.069935058E+02  2.069935058E+02  0.000000000E+00  0.00000E+00  9.000E+00
      21    -1     0     0   501   511  0.000000000E+00  0.000000000E+00 -8.302262126E+02  8.302262126E+02  0.000000000E+00  0.00000E+00  9.000E+00
      25     1     1     2     0     0 -9.800430832E+01  2.159094696E+02  4.798809121E+01  2.723042424E+02  1.250000000E+02  0.00000E+00  9.000E+00
      25     1     1     2     0     0  1.494819238E+02 -2.173816576E+02 -4.400658704E+02  5.280933638E+02  1.250000000E+02  0.00000E+00  9.000E+00
      21     1     1     2   502   511 -5.147761544E+01  1.472188006E+00 -2.311549277E+02  2.368221122E+02  2.697398305E-06  0.00000E+00  9.000E+00
#rwgt            1           1   2.8491292769484904E-002           8       93071           0
</event>
<event>
      5   9999  3.19816E-02  7.91892E+00 -1.00000E+00  2.08251E-01
      21    -1     0     0   502   512  0.000000000E+00  0.000000000E+00  2.963394288E+02  2.963394288E+02  0.000000000E+00  0.00000E+00  9.000E+00
      21    -1     0     0   501   502  0.000000000E+00  0.000000000E+00 -2.013262441E+02  2.013262441E+02  0.000000000E+00  0.00000E+00  9.000E+00
      25     1     1     2     0     0  3.855663636E+01  1.934490268E+02  1.249939436E+01  2.338597337E+02  1.250000000E+02  0.00000E+00  9.000E+00
      25     1     1     2     0     0 -4.346316328E+01 -1.872332993E+02  5.584352232E+01  2.359848595E+02  1.250000000E+02  0.00000E+00  9.000E+00
      21     1     1     2   501   512  4.906526921E+00 -6.215727518E+00  2.667026808E+01  2.782107968E+01  3.371747881E-07  0.00000E+00  9.000E+00
#rwgt            1           1   2.9948683415047327E-002           8       93178           0
</event>
<event>
      5   9999  3.19816E-02  7.48479E+01 -1.00000E+00  1.29765E-01
      21    -1     0     0   502   501  0.000000000E+00  0.000000000E+00  3.923807171E+02  3.923807171E+02  0.000000000E+00  0.00000E+00  9.000E+00
      21    -1     0     0   511   502  0.000000000E+00  0.000000000E+00 -2.933533319E+02  2.933533319E+02  0.000000000E+00  0.00000E+00  9.000E+00
      25     1     1     2     0     0  2.384668686E+02  5.324132440E+00  1.246164940E+01  2.695831718E+02  1.250000000E+02  0.00000E+00  9.000E+00
      25     1     1     2     0     0 -2.787108398E+02 -6.843218245E+01  1.185889567E+02  3.347402522E+02  1.250000000E+02  0.00000E+00  9.000E+00
      21     1     1     2   511   501  4.024397124E+01  6.310805001E+01 -3.202322090E+01  8.141062507E+01  1.066240300E-06  0.00000E+00  9.000E+00
#rwgt            1           1   2.5154807943776083E-002           8       93406           0
</event>
<event>
      5   9999  3.19816E-02  5.22755E+01 -1.00000E+00  1.37982E-01
      21    -1     0     0   502   501  0.000000000E+00  0.000000000E+00  1.124178327E+03  1.124178327E+03  0.000000000E+00  0.00000E+00  9.000E+00
      21    -1     0     0   512   502  0.000000000E+00  0.000000000E+00 -7.778974761E+02  7.778974761E+02  0.000000000E+00  0.00000E+00  9.000E+00
      25     1     1     2     0     0 -6.770068788E+01  6.112029088E+01  1.073132745E+03  1.084231508E+03  1.250000000E+02  0.00000E+00  9.000E+00
      25     1     1     2     0     0  1.072379848E+02 -9.531864080E+01 -1.600862477E+02  2.486729486E+02  1.250000000E+02  0.00000E+00  9.000E+00
      21     1     1     2   512   501 -3.953729688E+01  3.419834992E+01 -5.667656461E+02  5.691713473E+02  1.078959322E-05  0.00000E+00  9.000E+00
#rwgt            1           1   3.0406930342360111E-002           8       93480           0
</event>
<event>
      5   9999  3.19816E-02  2.70439E+01 -1.00000E+00  1.56236E-01
       1    -1     0     0   502     0  0.000000000E+00  0.000000000E+00  2.232847443E+03  2.232847443E+03  0.000000000E+00  0.00000E+00  9.000E+00
      21    -1     0     0   501   502  0.000000000E+00  0.000000000E+00 -8.984228061E+02  8.984228061E+02  0.000000000E+00  0.00000E+00  9.000E+00
      25     1     1     2     0     0  5.953224494E+02 -3.247384818E+02 -2.420391000E+02  7.308021800E+02  1.250000000E+02  0.00000E+00  9.000E+00
      25     1     1     2     0     0 -6.128610166E+02  3.453241653E+02 -1.020602854E+02  7.217261993E+02  1.250000000E+02  0.00000E+00  9.000E+00
       1     1     1     2   501     0  1.753856716E+01 -2.058568351E+01  1.678524023E+03  1.678741870E+03  2.157918644E-05  0.00000E+00  9.000E+00
#rwgt            1           1   2.8160155981729138E-002           8       93557           0
</event>
<event>
      5   9999  3.19816E-02  1.76842E+02 -1.00000E+00  1.13629E-01
      21    -1     0     0   511   501  0.000000000E+00  0.000000000E+00  3.856018705E+02  3.856018705E+02  0.000000000E+00  0.00000E+00  9.000E+00
      21    -1     0     0   501   502  0.000000000E+00  0.000000000E+00 -4.763936058E+02  4.763936058E+02  0.000000000E+00  0.00000E+00  9.000E+00
      25     1     1     2     0     0 -6.116449823E+01 -3.021681008E+02 -6.072658207E+01  3.381706297E+02  1.250000000E+02  0.00000E+00  9.000E+00
      25     1     1     2     0     0 -7.101650901E+01  1.846886387E+02 -1.773738485E+02  2.936660007E+02  1.250000000E+02  0.00000E+00  9.000E+00
      21     1     1     2   511   502  1.321810072E+02  1.174794621E+02  1.473086952E+02  2.301588460E+02  1.907348633E-06  0.00000E+00  9.000E+00
#rwgt            2          11   3.4621303316012242E-003           8       93698           0
</event>
<event>
      5   9999  3.19816E-02  2.17878E+02 -1.00000E+00  1.10311E-01
      21    -1     0     0   502   501  0.000000000E+00  0.000000000E+00  4.578504593E+02  4.578504593E+02  0.000000000E+00  0.00000E+00  9.000E+00
      21    -1     0     0   512   502  0.000000000E+00  0.000000000E+00 -6.414197976E+02  6.414197976E+02  0.000000000E+00  0.00000E+00  9.000E+00
      25     1     1     2     0     0 -2.561164317E+02 -1.938895852E+01 -3.749314403E+02  4.713492794E+02  1.250000000E+02  0.00000E+00  9.000E+00
      25     1     1     2     0     0  4.837160960E+01 -4.628334146E+01  3.371575705E+02  3.657624744E+02  1.250000000E+02  0.00000E+00  9.000E+00
      21     1     1     2   512   501  2.077448221E+02  6.567229997E+01 -1.457954686E+02  2.621585031E+02  0.000000000E+00  0.00000E+00  9.000E+00
#rwgt            1           1   2.8246048612500272E-002           8       93718           0
</event>
<event>
      5   9999  3.19816E-02  3.89274E+01 -1.00000E+00  1.45576E-01
      21    -1     0     0   511   501  0.000000000E+00  0.000000000E+00  1.034888408E+03  1.034888408E+03  0.000000000E+00  0.00000E+00  9.000E+00
      21    -1     0     0   501   502  0.000000000E+00  0.000000000E+00 -1.140413551E+02  1.140413551E+02  0.000000000E+00  0.00000E+00  9.000E+00
      25     1     1     2     0     0  2.462713133E+02 -1.167527653E+02  3.738873274E+02  4.792676722E+02  1.250000000E+02  0.00000E+00  9.000E+00
      25     1     1     2     0     0 -2.174278114E+02  1.428945271E+02  2.878597091E+02  4.076541563E+02  1.250000000E+02  0.00000E+00  9.000E+00
      21     1     1     2   511   502 -2.884350189E+01 -2.614176175E+01  2.591000166E+02  2.620079348E+02  0.000000000E+00  0.00000E+00  9.000E+00
#rwgt            1           1   2.8185698515909238E-002           8       93792           0
</event>
<event>
      5   9999  3.19816E-02  2.75002E+01 -1.00000E+00  1.55711E-01
      -1    -1     0     0     0   501  0.000000000E+00  0.000000000E+00  5.324314296E+03  5.324314296E+03  0.000000000E+00  0.00000E+00  9.000E+00
      21    -1     0     0   501   502  0.000000000E+00  0.000000000E+00 -1.726280500E+01  1.726280500E+01  0.000000000E+00  0.00000E+00  9.000E+00
      25     1     1     2     0     0  9.851861069E+01 -1.401184184E+01  4.010812437E+02  4.317330337E+02  1.250000000E+02  0.00000E+00  9.000E+00
      25     1     1     2     0     0 -8.156739912E+01 -7.642633435E+00  3.040353750E+03  3.044024898E+03  1.250000000E+02  0.00000E+00  9.000E+00
      -1     1     1     2     0   502 -1.695121157E+01  2.165447527E+01  1.865616497E+03  1.865819169E+03  0.000000000E+00  0.00000E+00  9.000E+00
#rwgt            1           1   1.3144326711225191E-002           8       93898           0
</event>
<event>
      5   9999  3.19816E-02  3.18145E+02 -1.00000E+00  1.04770E-01
      21    -1     0     0   502   501  0.000000000E+00  0.000000000E+00  6.778090618E+02  6.778090618E+02  0.000000000E+00  0.00000E+00  9.000E+00
      21    -1     0     0   501   511  0.000000000E+00  0.000000000E+00 -7.144427691E+02  7.144427691E+02  0.000000000E+00  0.00000E+00  9.000E+00
      25     1     1     2     0     0 -2.602528046E+02 -3.688140310E+02  3.429791861E+02  5.805299595E+02  1.250000000E+02  0.00000E+00  9.000E+00
      25     1     1     2     0     0  3.205092526E+02  5.642731918E+01 -3.470518977E+02  4.919148738E+02  1.250000000E+02  0.00000E+00  9.000E+00
      21     1     1     2   502   511 -6.025644801E+01  3.123867118E+02 -3.256099570E+01  3.198069976E+02  5.436780096E-06  0.00000E+00  9.000E+00
#rwgt            1           1   3.2433620998540302E-002           8       94061           0
</event>
<event>
      5   9999  3.19816E-02  3.64976E+01 -1.00000E+00  1.47352E-01
       2    -1     0     0   502     0  0.000000000E+00  0.000000000E+00  1.333091067E+03  1.333091067E+03  0.000000000E+00  0.00000E+00  9.000E+00
      21    -1     0     0   501   502  0.000000000E+00  0.000000000E+00 -1.073982100E+02  1.073982100E+02  0.000000000E+00  0.00000E+00  9.000E+00
      25     1     1     2     0     0  1.330585237E+02  1.625317967E+02  7.584418587E+02  7.968564542E+02  1.250000000E+02  0.00000E+00  9.000E+00
      25     1     1     2     0     0 -1.691485038E+02 -1.679712783E+02  1.204007393E+02  2.948676054E+02  1.250000000E+02  0.00000E+00  9.000E+00
       2     1     1     2   501     0  3.608998012E+01  5.439481654E+00  3.468502595E+02  3.487652178E+02  3.814697266E-06  0.00000E+00  9.000E+00
#rwgt            1           1   1.3433107446980329E-002           8       94122           0
</event>
<event>
      5   9999  3.19816E-02  7.08545E+01 -1.00000E+00  1.30954E-01
      21    -1     0     0   511   501  0.000000000E+00  0.000000000E+00  8.152080789E+02  8.152080789E+02  0.000000000E+00  0.00000E+00  9.000E+00
      21    -1     0     0   501   502  0.000000000E+00  0.000000000E+00 -2.321272441E+02  2.321272441E+02  0.000000000E+00  0.00000E+00  9.000E+00
      25     1     1     2     0     0 -2.124083107E+02  3.284161989E+02  3.360964485E+02  5.306225710E+02  1.250000000E+02  0.00000E+00  9.000E+00
      25     1     1     2     0     0  1.736836373E+02 -2.690801585E+02  1.074095783E+02  3.601832243E+02  1.250000000E+02  0.00000E+00  9.000E+00
      21     1     1     2   511   502  3.872467341E+01 -5.933604040E+01  1.395748080E+02  1.565295277E+02  0.000000000E+00  0.00000E+00  9.000E+00
#rwgt            1           1   2.7494234159980140E-002           8       94245           0
</event>
<event>
      5   9999  3.19816E-02  1.04015E+02 -1.00000E+00  1.23064E-01
      21    -1     0     0   502   512  0.000000000E+00  0.000000000E+00  1.383941961E+03  1.383941961E+03  0.000000000E+00  0.00000E+00  9.000E+00
      21    -1     0     0   501   502  0.000000000E+00  0.000000000E+00 -7.893600773E+01  7.893600773E+01  0.000000000E+00  0.00000E+00  9.000E+00
      25     1     1     2     0     0 -2.295313545E+02 -1.176513573E+01  7.036519647E+02  7.507157575E+02  1.250000000E+02  0.00000E+00  9.000E+00
      25     1     1     2     0     0  2.087941412E+02  1.136918295E+02  3.584090891E+02  4.478871517E+02  1.250000000E+02  0.00000E+00  9.000E+00
      21     1     1     2   501   512  2.073721331E+01 -1.019266938E+02  2.429448994E+02  2.642750595E+02  3.814697266E-06  0.00000E+00  9.000E+00
#rwgt            1           1   2.3893291365448734E-002           8       94299           0
</event>
<event>
      5   9999  3.19816E-02  8.49113E+01 -1.00000E+00  1.27109E-01
      21    -1     0     0   511   501  0.000000000E+00  0.000000000E+00  1.180219241E+03  1.180219241E+03  0.000000000E+00  0.00000E+00  9.000E+00
      21    -1     0     0   501   502  0.000000000E+00  0.000000000E+00 -8.765014601E+01  8.765014601E+01  0.000000000E+00  0.00000E+00  9.000E+00
      25     1     1     2     0     0 -2.232738150E+01  1.464803403E+02  1.083058996E+02  2.220589335E+02  1.250000000E+02  0.00000E+00  9.000E+00
      25     1     1     2     0     0 -3.539474666E+00 -2.273557958E+02  8.313658244E+02  8.709175160E+02  1.250000000E+02  0.00000E+00  9.000E+00
      21     1     1     2   511   502  2.586685617E+01  8.087545549E+01  1.528973714E+02  1.748929380E+02  2.697398305E-06  0.00000E+00  9.000E+00
#rwgt            1           1   2.9641393884984903E-002           8       94368           0
</event>
<event>
      5   9999  3.19816E-02  2.88303E+02 -1.00000E+00  1.06156E-01
      21    -1     0     0   502   501  0.000000000E+00  0.000000000E+00  5.896524859E+02  5.896524859E+02  0.000000000E+00  0.00000E+00  9.000E+00
      21    -1     0     0   501   512  0.000000000E+00  0.000000000E+00 -2.398276478E+03  2.398276478E+03  0.000000000E+00  0.00000E+00  9.000E+00
      25     1     1     2     0     0  1.681658856E+02  6.904101513E+02 -4.709080643E+02  8.615830472E+02  1.250000000E+02  0.00000E+00  9.000E+00
      25     1     1     2     0     0 -3.329119504E+01 -9.452192212E+02 -2.295039591E+02  9.812465272E+02  1.250000000E+02  0.00000E+00  9.000E+00
      21     1     1     2   502   512 -1.348746906E+02  2.548090699E+02 -1.108211968E+03  1.145099389E+03  1.525878906E-05  0.00000E+00  9.000E+00
#rwgt            1           1   2.3356272051439631E-002           8       94461           0
</event>
<event>
      5   9999  3.19816E-02  1.64738E+02 -1.00000E+00  1.14803E-01
      21    -1     0     0   511   501  0.000000000E+00  0.000000000E+00  2.438625204E+03  2.438625204E+03  0.000000000E+00  0.00000E+00  9.000E+00
      21    -1     0     0   501   502  0.000000000E+00  0.000000000E+00 -5.217927875E+02  5.217927875E+02  0.000000000E+00  0.00000E+00  9.000E+00
      25     1     1     2     0     0 -1.182970486E+02 -4.132491638E+02  1.829746665E+03  1.883710944E+03  1.250000000E+02  0.00000E+00  9.000E+00
      25     1     1     2     0     0 -3.410782326E+01  3.507083920E+02 -4.089102717E+02  5.540688857E+02  1.250000000E+02  0.00000E+00  9.000E+00
      21     1     1     2   511   502  1.524048718E+02  6.254077183E+01  4.959960241E+02  5.226381626E+02  0.000000000E+00  0.00000E+00  9.000E+00
#rwgt            1           1   3.2259159581163641E-002           8       94519           0
</event>
<event>
      5   9999  3.19816E-02  2.31637E+01 -1.00000E+00  1.61273E-01
      21    -1     0     0   512   501  0.000000000E+00  0.000000000E+00  4.031064619E+02  4.031064619E+02  0.000000000E+00  0.00000E+00  9.000E+00
      21    -1     0     0   501   502  0.000000000E+00  0.000000000E+00 -2.170281819E+02  2.170281819E+02  0.000000000E+00  0.00000E+00  9.000E+00
      25     1     1     2     0     0 -3.240392618E+01 -5.942586061E+01 -1.710387081E+02  2.223975877E+02  1.250000000E+02  0.00000E+00  9.000E+00
      25     1     1     2     0     0  3.522091691E+01  3.643405649E+01  3.473119042E+02  3.725835641E+02  1.250000000E+02  0.00000E+00  9.000E+00
      21     1     1     2   512   502 -2.816990728E+00  2.299180412E+01  9.805083923E+00  2.515349209E+01  4.298152060E-07  0.00000E+00  9.000E+00
#rwgt            1           1   2.6813154376755858E-002           8       94593           0
</event>
<event>
      5   9999  3.19816E-02  5.29332E+01 -1.00000E+00  1.37677E-01
      21    -1     0     0   502   501  0.000000000E+00  0.000000000E+00  6.636759826E+02  6.636759826E+02  0.000000000E+00  0.00000E+00  9.000E+00
      21    -1     0     0   511   502  0.000000000E+00  0.000000000E+00 -1.345964011E+02  1.345964011E+02  0.000000000E+00  0.00000E+00  9.000E+00
      25     1     1     2     0     0  7.666709187E+00  1.405038882E+02  7.033095414E+01  2.009267631E+02  1.250000000E+02  0.00000E+00  9.000E+00
      25     1     1     2     0     0  4.462284080E+01 -1.322744405E+02  4.975816456E+02  5.316956080E+02  1.250000000E+02  0.00000E+00  9.000E+00
      21     1     1     2   511   501 -5.228954998E+01 -8.229447710E+00 -3.883301821E+01  6.565001257E+01  1.430511475E-06  0.00000E+00  9.000E+00
#rwgt            1           1   2.9131623438772309E-002           8       94745           0
</event>
<event>
      5   9999  3.19816E-02  1.30209E+02 -1.00000E+00  1.18882E-01
      21    -1     0     0   502   501  0.000000000E+00  0.000000000E+00  1.977580382E+02  1.977580382E+02  0.000000000E+00  0.00000E+00  9.000E+00
      21    -1     0     0   501   512  0.000000000E+00  0.000000000E+00 -3.771198587E+02  3.771198587E+02  0.000000000E+00  0.00000E+00  9.000E+00
      25     1     1     2     0     0  2.531669255E+01 -1.017826090E+02 -4.863096867E+01  1.702662783E+02  1.250000000E+02  0.00000E+00  9.000E+00
      25     1     1     2     0     0  5.485160287E+01  2.043857782E+02 -4.822984354E+01  2.504662901E+02  1.250000000E+02  0.00000E+00  9.000E+00
      21     1     1     2   502   512 -8.016829542E+01 -1.026031693E+02 -8.250100828E+01  1.541453285E+02  3.015782986E-06  0.00000E+00  9.000E+00
#rwgt            2          11   2.9765709528803770E-003           8       94835           0
</event>
<event>
      5   9999  3.19816E-02  2.02068E+02 -1.00000E+00  1.11486E-01
      21    -1     0     0   502   511  0.000000000E+00  0.000000000E+00  1.220234318E+03  1.220234318E+03  0.000000000E+00  0.00000E+00  9.000E+00
      21    -1     0     0   501   502  0.000000000E+00  0.000000000E+00 -3.441640685E+02  3.441640685E+02  0.000000000E+00  0.00000E+00  9.000E+00
      25     1     1     2     0     0  4.262321924E+02 -1.424272008E+02  3.375460851E+01  4.676791239E+02  1.250000000E+02  0.00000E+00  9.000E+00
      25     1     1     2     0     0 -3.353396711E+02  3.228987350E+02  6.986098651E+02  8.487620584E+02  1.250000000E+02  0.00000E+00  9.000E+00
      21     1     1     2   501   511 -9.089252129E+01 -1.804715343E+02  1.437057760E+02  2.479572043E+02  2.697398305E-06  0.00000E+00  9.000E+00
#rwgt            1           1   2.9968257144198058E-002           8       94900           0
</event>
<event>
      5   9999  3.19816E-02  2.07969E+01 -1.00000E+00  1.64981E-01
      21    -1     0     0   502   501  0.000000000E+00  0.000000000E+00  6.945053441E+02  6.945053441E+02  0.000000000E+00  0.00000E+00  9.000E+00
      21    -1     0     0   501   512  0.000000000E+00  0.000000000E+00 -4.208477485E+02  4.208477485E+02  0.000000000E+00  0.00000E+00  9.000E+00
      25     1     1     2     0     0 -4.162106434E+02 -5.305203449E+01  4.512403126E+02  6.287198405E+02  1.250000000E+02  0.00000E+00  9.000E+00
      25     1     1     2     0     0  3.955259287E+02  5.520921806E+01 -1.357803250E+02  4.399433085E+02  1.250000000E+02  0.00000E+00  9.000E+00
      21     1     1     2   502   512  2.068471472E+01 -2.157183574E+00 -4.180239198E+01  4.668994366E+01  4.768371582E-07  0.00000E+00  9.000E+00
#rwgt            1           1   2.9335552505081564E-002           8       94958           0
</event>
<event>
      5   9999  3.19816E-02  6.83626E+01 -1.00000E+00  1.31743E-01
      21    -1     0     0   502   501  0.000000000E+00  0.000000000E+00  4.615009264E+02  4.615009264E+02  0.000000000E+00  0.00000E+00  9.000E+00
      21    -1     0     0   501   511  0.000000000E+00  0.000000000E+00 -2.539712129E+02  2.539712129E+02  0.000000000E+00  0.00000E+00  9.000E+00
      25     1     1     2     0     0 -1.234377127E+02 -5.444219047E+01  3.359116259E+02  3.829653267E+02  1.250000000E+02  0.00000E+00  9.000E+00
      25     1     1     2     0     0  5.651831646E+01  4.046923182E+01  4.187966783E+01  1.490335043E+02  1.250000000E+02  0.00000E+00  9.000E+00
      21     1     1     2   502   511  6.691939621E+01  1.397295866E+01 -1.702615803E+02  1.834733084E+02  0.000000000E+00  0.00000E+00  9.000E+00
#rwgt            1           1   2.6218493787062192E-002           8       95204           0
</event>
<event>
      5   9999  3.19816E-02  7.44176E+01 -1.00000E+00  1.29889E-01
      21    -1     0     0   512   501  0.000000000E+00  0.000000000E+00  1.460859425E+03  1.460859425E+03  0.000000000E+00  0.00000E+00  9.000E+00
      21    -1     0     0   501   502  0.000000000E+00  0.000000000E+00 -4.268749725E+01  4.268749725E+01  0.000000000E+00  0.00000E+00  9.000E+00
      25     1     1     2     0     0 -4.660739379E+01 -1.178214330E+02  5.820494471E+02  6.086548267E+02  1.250000000E+02  0.00000E+00  9.000E+00
      25     1     1     2     0     0  3.200947366E+01  1.907932431E+02  4.981197698E+02  5.487941081E+02  1.250000000E+02  0.00000E+00  9.000E+00
      21     1     1     2   512   502  1.459792013E+01 -7.297181012E+01  3.380027110E+02  3.460979876E+02  0.000000000E+00  0.00000E+00  9.000E+00
#rwgt            1           1   4.4193745335428990E-002           8       95268           0
</event>
<event>
      5   9999  3.19816E-02  9.93876E+00 -1.00000E+00  1.96066E-01
      21    -1     0     0   502   501  0.000000000E+00  0.000000000E+00  2.895130167E+03  2.895130167E+03  0.000000000E+00  0.00000E+00  9.000E+00
      21    -1     0     0   511   502  0.000000000E+00  0.000000000E+00 -6.009050942E+01  6.009050942E+01  0.000000000E+00  0.00000E+00  9.000E+00
      25     1     1     2     0     0 -1.477779609E+02 -2.285600082E+02  4.780404704E+02  5.641149656E+02  1.250000000E+02  0.00000E+00  9.000E+00
      25     1     1     2     0     0  1.401713228E+02  2.221632834E+02  2.362091589E+03  2.379938277E+03  1.250000000E+02  0.00000E+00  9.000E+00
      21     1     1     2   511   501  7.606638078E+00  6.396724789E+00 -5.092402015E+00  1.116743431E+01  4.915124924E-07  0.00000E+00  9.000E+00
#rwgt            1           1   4.3622800369678104E-002           8       95350           0
</event>
<event>
      5   9999  3.19816E-02  2.04684E+02 -1.00000E+00  1.11283E-01
      21    -1     0     0   502   501  0.000000000E+00  0.000000000E+00  2.399902940E+02  2.399902940E+02  0.000000000E+00  0.00000E+00  9.000E+00
       1    -1     0     0   501     0  0.000000000E+00  0.000000000E+00 -9.336053180E+02  9.336053180E+02  0.000000000E+00  0.00000E+00  9.000E+00
      25     1     1     2     0     0 -2.876614490E+02  6.467975495E+01 -6.346637859E+02  7.108837466E+02  1.250000000E+02  0.00000E+00  9.000E+00
      25     1     1     2     0     0  1.517869477E+02  8.840092727E+01  6.280527555E+01  2.245517848E+02  1.250000000E+02  0.00000E+00  9.000E+00
       1     1     1     2   502     0  1.358745014E+02 -1.530806822E+02 -1.217565136E+02  2.381600806E+02  4.862803949E-06  0.00000E+00  9.000E+00
#rwgt            1           1   3.3194419888718581E-002           8       95560           0
</event>
<event>
      5   9999  3.19816E-02  3.56621E+01 -1.00000E+00  1.48001E-01
      21    -1     0     0   502   511  0.000000000E+00  0.000000000E+00  7.978059026E+02  7.978059026E+02  0.000000000E+00  0.00000E+00  9.000E+00
      21    -1     0     0   501   502  0.000000000E+00  0.000000000E+00 -1.137626308E+03  1.137626308E+03  0.000000000E+00  0.00000E+00  9.000E+00
      25     1     1     2     0     0  7.836830454E+02 -1.507193178E+02  3.154336158E+02  8.671786404E+02  1.250000000E+02  0.00000E+00  9.000E+00
      25     1     1     2     0     0 -7.583063048E+02  1.757754508E+02 -6.648773364E+02  1.031315826E+03  1.250000000E+02  0.00000E+00  9.000E+00
      21     1     1     2   501   511 -2.537674062E+01 -2.505613304E+01  9.623314873E+00  3.693774434E+01  2.384185791E-07  0.00000E+00  9.000E+00
#rwgt            1           1   1.9139848097198105E-002           8       95595           0
</event>
<event>
      5   9999  3.19816E-02  7.30851E+01 -1.00000E+00  1.30279E-01
      21    -1     0     0   502   501  0.000000000E+00  0.000000000E+00  2.556025592E+02  2.556025592E+02  0.000000000E+00  0.00000E+00  9.000E+00
      21    -1     0     0   501   512  0.000000000E+00  0.000000000E+00 -7.543125435E+02  7.543125435E+02  0.000000000E+00  0.00000E+00  9.000E+00
      25     1     1     2     0     0 -5.474955073E+01  1.049837682E+02  1.896448511E+02  2.561430741E+02  1.250000000E+02  0.00000E+00  9.000E+00
      25     1     1     2     0     0  1.188151950E+02 -6.981234113E+01 -6.391193175E+02  6.656495441E+02  1.250000000E+02  0.00000E+00  9.000E+00
      21     1     1     2   502   512 -6.406564425E+01 -3.517142704E+01 -4.923551785E+01  8.812248448E+01  9.536743164E-07  0.00000E+00  9.000E+00
#rwgt            1           1   2.4349653793028156E-002           8       95775           0
</event>
<event>
      5   9999  3.19816E-02  4.98810E+01 -1.00000E+00  1.39135E-01
      21    -1     0     0   511   501  0.000000000E+00  0.000000000E+00  5.134772966E+02  5.134772966E+02  0.000000000E+00  0.00000E+00  9.000E+00
      21    -1     0     0   501   502  0.000000000E+00  0.000000000E+00 -3.337891276E+02  3.337891276E+02  0.000000000E+00  0.00000E+00  9.000E+00
      25     1     1     2     0     0 -2.173676601E+02  1.127403534E+02  1.719155889E+02  3.242515330E+02  1.250000000E+02  0.00000E+00  9.000E+00
      25     1     1     2     0     0  1.916703012E+02 -6.998805613E+01 -1.984316891E+02  3.108632619E+02  1.250000000E+02  0.00000E+00  9.000E+00
      21     1     1     2   511   502  2.569735887E+01 -4.275229728E+01  2.062042692E+02  2.121516293E+02  2.697398305E-06  0.00000E+00  9.000E+00
#rwgt            1           1   2.8284380175697985E-002           8       95839           0
</event>
<event>
      5   9999  3.19816E-02  6.83072E+01 -1.00000E+00  1.31761E-01
      21    -1     0     0   502   501  0.000000000E+00  0.000000000E+00  4.232652075E+02  4.232652075E+02  0.000000000E+00  0.00000E+00  9.000E+00
      21    -1     0     0   512   502  0.000000000E+00  0.000000000E+00 -2.075610510E+02  2.075610510E+02  0.000000000E+00  0.00000E+00  9.000E+00
      25     1     1     2     0     0 -1.409816927E+02  5.889781754E+01  8.424162860E+01  2.146309451E+02  1.250000000E+02  0.00000E+00  9.000E+00
      25     1     1     2     0     0  9.769721223E+01 -1.117402997E+02  2.270715060E+02  2.986923311E+02  1.250000000E+02  0.00000E+00  9.000E+00
      21     1     1     2   512   501  4.328448049E+01  5.284248211E+01 -9.560897812E+01  1.175029824E+02  1.348699152E-06  0.00000E+00  9.000E+00
#rwgt            1           1   2.8543943928640517E-002           8       95944           0
</event>
<event>
      5   9999  3.19816E-02  8.14224E+01 -1.00000E+00  1.27980E-01
      21    -1     0     0   502   501  0.000000000E+00  0.000000000E+00  1.476186632E+03  1.476186632E+03  0.000000000E+00  0.00000E+00  9.000E+00
       1    -1     0     0   501     0  0.000000000E+00  0.000000000E+00 -8.739543343E+02  8.739543343E+02  0.000000000E+00  0.00000E+00  9.000E+00
      25     1     1     2     0     0  3.344148391E+01  8.282857607E+01  1.000597967E+02  1.833463083E+02  1.250000000E+02  0.00000E+00  9.000E+00
      25     1     1     2     0     0 -9.518723056E+01 -1.359047187E+02  1.324375770E+03  1.340569611E+03  1.250000000E+02  0.00000E+00  9.000E+00
       1     1     1     2   502     0  6.174574665E+01  5.307614263E+01 -8.222032686E+02  8.262250474E+02  1.868812365E-05  0.00000E+00  9.000E+00
#rwgt            1           1   2.7246028126473514E-002           8       96025           0
</event>
<event>
      5   9999  3.19816E-02  4.18530E+01 -1.00000E+00  1.43631E-01
      21    -1     0     0   502   501  0.000000000E+00  0.000000000E+00  3.968781824E+03  3.968781824E+03  0.000000000E+00  0.00000E+00  9.000E+00
      21    -1     0     0   501   511  0.000000000E+00  0.000000000E+00 -3.699256129E+01  3.699256129E+01  0.000000000E+00  0.00000E+00  9.000E+00
      25     1     1     2     0     0 -2.812262415E+02 -7.225331191E+01  2.667438669E+03  2.686105506E+03  1.250000000E+02  0.00000E+00  9.000E+00
      25     1     1     2     0     0  2.898857470E+02  1.132006961E+02  1.093883190E+03  1.144138793E+03  1.250000000E+02  0.00000E+00  9.000E+00
      21     1     1     2   502   511 -8.659505481E+00 -4.094738417E+01  1.704674039E+02  1.755300860E+02  1.907348633E-06  0.00000E+00  9.000E+00
#rwgt            1           1   1.0161934241763735E-002           8       96102           0
</event>
<event>
      5   9999  3.19816E-02  2.12163E+01 -1.00000E+00  1.64281E-01
      21    -1     0     0   502   501  0.000000000E+00  0.000000000E+00  8.915757322E+01  8.915757322E+01  0.000000000E+00  0.00000E+00  9.000E+00
      21    -1     0     0   512   502  0.000000000E+00  0.000000000E+00 -1.341118869E+03  1.341118869E+03  0.000000000E+00  0.00000E+00  9.000E+00
      25     1     1     2     0     0 -2.364646883E+02  1.880809917E+01 -2.052588882E+02  3.376766272E+02  1.250000000E+02  0.00000E+00  9.000E+00
      25     1     1     2     0     0  2.537135576E+02 -6.454650412E+00 -8.751799885E+02  9.197702126E+02  1.250000000E+02  0.00000E+00  9.000E+00
      21     1     1     2   512   501 -1.724886930E+01 -1.235344876E+01 -1.715224192E+02  1.728296025E+02  2.697398305E-06  0.00000E+00  9.000E+00
#rwgt            1           1   3.3031050463631570E-002           8       96226           0
</event>
<event>
      5   9999  3.19816E-02  9.37542E+01 -1.00000E+00  1.25101E-01
      21    -1     0     0   502   501  0.000000000E+00  0.000000000E+00  1.000973795E+03  1.000973795E+03  0.000000000E+00  0.00000E+00  9.000E+00
       2    -1     0     0   501     0  0.000000000E+00  0.000000000E+00 -1.180060534E+02  1.180060534E+02  0.000000000E+00  0.00000E+00  9.000E+00
      25     1     1     2     0     0 -2.988852766E+02  2.252877530E+01  5.547651191E+02  6.428291310E+02  1.250000000E+02  0.00000E+00  9.000E+00
      25     1     1     2     0     0  2.062612874E+02 -8.015224455E+00  2.834618861E+02  3.722681875E+02  1.250000000E+02  0.00000E+00  9.000E+00
       2     1     1     2   502     0  9.262398920E+01 -1.451355085E+01  4.474073634E+01  1.038825299E+02  1.784161275E-06  0.00000E+00  9.000E+00
#rwgt            1           1   2.6341205061474453E-002           8       96438           0
</event>
<event>
      5   9999  3.19816E-02  4.53239E+02 -1.00000E+00  1.00079E-01
      21    -1     0     0   502   511  0.000000000E+00  0.000000000E+00  8.862078538E+02  8.862078538E+02  0.000000000E+00  0.00000E+00  9.000E+00
      21    -1     0     0   501   502  0.000000000E+00  0.000000000E+00 -4.024717537E+02  4.024717537E+02  0.000000000E+00  0.00000E+00  9.000E+00
      25     1     1     2     0     0 -1.485779776E+02 -4.858748326E+02  1.943240167E+00  5.232385159E+02  1.250000000E+02  0.00000E+00  9.000E+00
      25     1     1     2     0     0  8.794502830E+00  5.472966392E+01  1.548829378E+02  2.066068823E+02  1.250000000E+02  0.00000E+00  9.000E+00
      21     1     1     2   501   511  1.397834748E+02  4.311451686E+02  3.269099221E+02  5.588342093E+02  3.814697266E-06  0.00000E+00  9.000E+00
#rwgt            2          11   2.7052239514825755E-003           8       96590           0
</event>
<event>
      5   9999  3.19816E-02  6.45751E+02 -1.00000E+00  9.57952E-02
      21    -1     0     0   502   501  0.000000000E+00  0.000000000E+00  3.666846616E+02  3.666846616E+02  0.000000000E+00  0.00000E+00  9.000E+00
       2    -1     0     0   501     0  0.000000000E+00  0.000000000E+00 -2.893940498E+03  2.893940498E+03  0.000000000E+00  0.00000E+00  9.000E+00
      25     1     1     2     0     0 -3.280833070E+01  3.291334666E+02  5.195976437E+01  3.573934002E+02  1.250000000E+02  0.00000E+00  9.000E+00
      25     1     1     2     0     0 -6.091826019E+02 -2.595473180E+02 -1.520300230E+03  1.662951004E+03  1.250000000E+02  0.00000E+00  9.000E+00
       2     1     1     2   502     0  6.419909326E+02 -6.958614860E+01 -1.058915372E+03  1.240280756E+03  1.525878906E-05  0.00000E+00  9.000E+00
#rwgt            2          13   1.1941553125625118E-003           8       96730           0
</event>
<event>
      5   9999  3.19816E-02  1.48962E+02 -1.00000E+00  1.16513E-01
      21    -1     0     0   502   511  0.000000000E+00  0.000000000E+00  3.624843655E+02  3.624843655E+02  0.000000000E+00  0.00000E+00  9.000E+00
      21    -1     0     0   501   502  0.000000000E+00  0.000000000E+00 -3.160499572E+02  3.160499572E+02  0.000000000E+00  0.00000E+00  9.000E+00
      25     1     1     2     0     0 -9.662051153E+00 -2.164204031E+02 -1.707861922E+02  3.028598183E+02  1.250000000E+02  0.00000E+00  9.000E+00
      25     1     1     2     0     0  5.751635861E+01  7.535419732E+01  9.904994504E+01  1.855324181E+02  1.250000000E+02  0.00000E+00  9.000E+00
      21     1     1     2   501   511 -4.785430746E+01  1.410662058E+02  1.181706554E+02  1.901420863E+02  1.907348633E-06  0.00000E+00  9.000E+00
#rwgt            1           1   2.9847287054075518E-002           8       96749           0
</event>
<event>
      5   9999  3.19816E-02  1.31249E+02 -1.00000E+00  1.18739E-01
      21    -1     0     0   502   501  0.000000000E+00  0.000000000E+00  1.551659645E+02  1.551659645E+02  0.000000000E+00  0.00000E+00  9.000E+00
      -1    -1     0     0     0   502  0.000000000E+00  0.000000000E+00 -6.934818544E+02  6.934818544E+02  0.000000000E+00  0.00000E+00  9.000E+00
      25     1     1     2     0     0  1.677433148E+02  1.120214446E+01 -6.051768162E+01  2.180612242E+02  1.250000000E+02  0.00000E+00  9.000E+00
      25     1     1     2     0     0 -2.011815961E+02 -1.381204814E+02 -2.699828748E+02  3.847948216E+02  1.250000000E+02  0.00000E+00  9.000E+00
      -1     1     1     2     0   501  3.343828130E+01  1.269183370E+02 -2.078153334E+02  2.457917731E+02  0.000000000E+00  0.00000E+00  9.000E+00
#rwgt            1           1   2.6655714144717315E-002           8       96815           0
</event>
<event>
      5   9999  3.19816E-02  4.80720E+02 -1.00000E+00  9.93396E-02
      21    -1     0     0   502   511  0.000000000E+00  0.000000000E+00  1.084869431E+03  1.084869431E+03  0.000000000E+00  0.00000E+00  9.000E+00
      21    -1     0     0   501   502  0.000000000E+00  0.000000000E+00 -8.294310824E+02  8.294310824E+02  0.000000000E+00  0.00000E+00  9.000E+00
      25     1     1     2     0     0 -5.635472398E+02  1.075696332E+02  3.112296715E+02  6.645642376E+02  1.250000000E+02  0.00000E+00  9.000E+00
      25     1     1     2     0     0  3.224257383E+02 -5.234448591E+02 -3.167137152E+02  7.027698447E+02  1.250000000E+02  0.00000E+00  9.000E+00
      21     1     1     2   501   511  2.411215015E+02  4.158752259E+02  2.609223926E+02  5.469664313E+02  7.629394531E-06  0.00000E+00  9.000E+00
#rwgt            2          11   2.5083481566643656E-003           8       97000           0
</event>
<event>
      5   9999  3.19816E-02  4.63086E+01 -1.00000E+00  1.41003E-01
      21    -1     0     0   502   512  0.000000000E+00  0.000000000E+00  1.232054324E+03  1.232054324E+03  0.000000000E+00  0.00000E+00  9.000E+00
      21    -1     0     0   501   502  0.000000000E+00  0.000000000E+00 -2.132850548E+02  2.132850548E+02  0.000000000E+00  0.00000E+00  9.000E+00
      25     1     1     2     0     0 -2.078143193E+02  3.498957802E+02  8.670816873E+02  9.659552271E+02  1.250000000E+02  0.00000E+00  9.000E+00
      25     1     1     2     0     0  2.180311483E+02 -3.047282835E+02  9.513636957E+01  4.062915668E+02  1.250000000E+02  0.00000E+00  9.000E+00
      21     1     1     2   501   512 -1.021682900E+01 -4.516749666E+01  5.655121202E+01  7.309258465E+01  1.168007728E-06  0.00000E+00  9.000E+00
#rwgt            1           1   3.1489512396662839E-002           8       97050           0
</event>
<event>
      5   9999  3.19816E-02  1.93089E+02 -1.00000E+00  1.12207E-01
      21    -1     0     0   502   501  0.000000000E+00  0.000000000E+00  9.061672260E+02  9.061672260E+02  0.000000000E+00  0.00000E+00  9.000E+00
      21    -1     0     0   511   502  0.000000000E+00  0.000000000E+00 -1.453454796E+03  1.453454796E+03  0.000000000E+00  0.00000E+00  9.000E+00
      25     1     1     2     0     0 -3.406320078E+00  1.292809976E+02  5.175913155E+02  5.479515939E+02  1.250000000E+02  0.00000E+00  9.000E+00
      25     1     1     2     0     0 -8.173087557E+01 -3.025874533E+02  2.888849628E+02  4.442056108E+02  1.250000000E+02  0.00000E+00  9.000E+00
      21     1     1     2   511   501  8.513719565E+01  1.733064558E+02 -1.353763848E+03  1.367464817E+03  2.157918644E-05  0.00000E+00  9.000E+00
#rwgt            1           1   3.0302984153131172E-002           8       97187           0
</event>
<event>
      5   9999  3.19816E-02  1.05409E+01 -1.00000E+00  1.93149E-01
      21    -1     0     0   502   512  0.000000000E+00  0.000000000E+00  1.169873232E+03  1.169873232E+03  0.000000000E+00  0.00000E+00  9.000E+00
      21    -1     0     0   501   502  0.000000000E+00  0.000000000E+00 -3.111315313E+02  3.111315313E+02  0.000000000E+00  0.00000E+00  9.000E+00
      25     1     1     2     0     0 -2.865392106E+01 -6.948164312E+01 -8.016527884E+01  1.664338242E+02  1.250000000E+02  0.00000E+00  9.000E+00
      25     1     1     2     0     0  1.886562885E+01  7.339320384E+01 -1.593632464E+02  2.162501298E+02  1.250000000E+02  0.00000E+00  9.000E+00
      21     1     1     2   501   512  9.788292206E+00 -3.911560720E+00  1.098270226E+03  1.098320810E+03  0.000000000E+00  0.00000E+00  9.000E+00
#rwgt            1           1   5.4991596014580854E-002           8       97240           0
</event>
<event>
      5   9999  3.19816E-02  2.62756E+01 -1.00000E+00  1.57149E-01
      21    -1     0     0   502   501  0.000000000E+00  0.000000000E+00  3.998359378E+03  3.998359378E+03  0.000000000E+00  0.00000E+00  9.000E+00
      21    -1     0     0   511   502  0.000000000E+00  0.000000000E+00 -3.785395607E+02  3.785395607E+02  0.000000000E+00  0.00000E+00  9.000E+00
      25     1     1     2     0     0 -9.689336142E+01 -7.427717488E+02  2.623424885E+03  2.731131875E+03  1.250000000E+02  0.00000E+00  9.000E+00
      25     1     1     2     0     0  8.929007660E+01  7.176202582E+02  1.218326483E+03  1.422285475E+03  1.250000000E+02  0.00000E+00  9.000E+00
      21     1     1     2   511   501  7.603284826E+00  2.515149061E+01 -2.219315504E+02  2.234815887E+02  8.092194914E-06  0.00000E+00  9.000E+00
#rwgt            1           1   1.7378043097126233E-002           8       97371           0
</event>
<event>
      5   9999  3.19816E-02  8.42015E+01 -1.00000E+00  1.27283E-01
      21    -1     0     0   512   501  0.000000000E+00  0.000000000E+00  3.091669508E+02  3.091669508E+02  0.000000000E+00  0.00000E+00  9.000E+00
      21    -1     0     0   501   502  0.000000000E+00  0.000000000E+00 -1.216029871E+03  1.216029871E+03  0.000000000E+00  0.00000E+00  9.000E+00
      25     1     1     2     0     0 -2.875012011E+02  1.061739969E+02  1.453163311E+02  3.614853999E+02  1.250000000E+02  0.00000E+00  9.000E+00
      25     1     1     2     0     0  2.418021873E+02 -3.545270578E+01 -1.043572914E+03  1.079071183E+03  1.250000000E+02  0.00000E+00  9.000E+00
      21     1     1     2   512   502  4.569901381E+01 -7.072129108E+01 -8.606336907E+00  8.464023813E+01  1.369610464E-06  0.00000E+00  9.000E+00
#rwgt            1           1   2.4132456226687186E-002           8       97610           0
</event>
<event>
      5   9999  3.19816E-02  1.52147E+02 -1.00000E+00  1.16149E-01
      21    -1     0     0   511   501  0.000000000E+00  0.000000000E+00  5.536999585E+02  5.536999585E+02  0.000000000E+00  0.00000E+00  9.000E+00
      21    -1     0     0   501   502  0.000000000E+00  0.000000000E+00 -5.608003750E+02  5.608003750E+02  0.000000000E+00  0.00000E+00  9.000E+00
      25     1     1     2     0     0  9.697318633E+01 -3.755084977E+02  7.704989034E+01  4.146952089E+02  1.250000000E+02  0.00000E+00  9.000E+00
      25     1     1     2     0     0 -2.453294653E+01  5.093038096E+02 -1.300962982E+02  5.408717803E+02  1.250000000E+02  0.00000E+00  9.000E+00
      21     1     1     2   511   502 -7.244023980E+01 -1.337953119E+02  4.594599136E+01  1.589333444E+02  1.348699152E-06  0.00000E+00  9.000E+00
#rwgt            2          11   4.9419311684796123E-003           8       97742           0
</event>
<event>
      5   9999  3.19816E-02  2.27892E+02 -1.00000E+00  1.09622E-01
      21    -1     0     0   502   501  0.000000000E+00  0.000000000E+00  1.450925773E+02  1.450925773E+02  0.000000000E+00  0.00000E+00  9.000E+00
      21    -1     0     0   512   502  0.000000000E+00  0.000000000E+00 -1.797307697E+03  1.797307697E+03  0.000000000E+00  0.00000E+00  9.000E+00
      25     1     1     2     0     0  1.583070443E+02 -2.517893885E+02 -1.037908021E+02  3.389049233E+02  1.250000000E+02  0.00000E+00  9.000E+00
      25     1     1     2     0     0 -1.087507039E+01  7.801172075E+01 -9.802417141E+02  9.913137312E+02  1.250000000E+02  0.00000E+00  9.000E+00
      21     1     1     2   512   501 -1.474319739E+02  1.737776677E+02 -5.681826037E+02  6.121816200E+02  7.629394531E-06  0.00000E+00  9.000E+00
#rwgt            1           1   2.8062097829410042E-002           8       97762           0
</event>
<event>
      5   9999  3.19816E-02  1.37770E+02 -1.00000E+00  1.17877E-01
      21    -1     0     0   502   511  0.000000000E+00  0.000000000E+00  9.362417442E+02  9.362417442E+02  0.000000000E+00  0.00000E+00  9.000E+00
      21    -1     0     0   501   502  0.000000000E+00  0.000000000E+00 -1.338968813E+02  1.338968813E+02  0.000000000E+00  0.00000E+00  9.000E+00
      25     1     1     2     0     0 -4.659164675E+01 -1.386293019E+02  1.852597317E+00  1.923987968E+02  1.250000000E+02  0.00000E+00  9.000E+00
      25     1     1     2     0     0  1.614264570E+02  6.251461283E+01  5.764867233E+02  6.147589121E+02  1.250000000E+02  0.00000E+00  9.000E+00
      21     1     1     2   501   511 -1.148348102E+02  7.611468908E+01  2.240055422E+02  2.629809165E+02  0.000000000E+00  0.00000E+00  9.000E+00
#rwgt            1           1   2.6701208748326120E-002           8       97822           0
</event>
<event>
      5   9999  3.19816E-02  1.61790E+02 -1.00000E+00  1.15106E-01
      21    -1     0     0   512   501  0.000000000E+00  0.000000000E+00  1.787975449E+02  1.787975449E+02  0.000000000E+00  0.00000E+00  9.000E+00
      21    -1     0     0   501   502  0.000000000E+00  0.000000000E+00 -9.992934582E+02  9.992934582E+02  0.000000000E+00  0.00000E+00  9.000E+00
      25     1     1     2     0     0 -2.889473411E+02 -1.459545510E+02 -5.316151219E+02  6.348487495E+02  1.250000000E+02  0.00000E+00  9.000E+00
      25     1     1     2     0     0  1.871873026E+02  2.017278828E+01 -3.061591228E+02  3.805317807E+02  1.250000000E+02  0.00000E+00  9.000E+00
      21     1     1     2   512   502  1.017600385E+02  1.257817627E+02  1.727833137E+01  1.627104730E+02  2.431401974E-06  0.00000E+00  9.000E+00
#rwgt            2          11   3.6718754022383162E-003           8       97876           0
</event>
<event>
      5   9999  3.19816E-02  1.39841E+02 -1.00000E+00  1.17614E-01
      21    -1     0     0   502   501  0.000000000E+00  0.000000000E+00  1.684489589E+02  1.684489589E+02  0.000000000E+00  0.00000E+00  9.000E+00
      21    -1     0     0   511   502  0.000000000E+00  0.000000000E+00 -1.194687440E+03  1.194687440E+03  0.000000000E+00  0.00000E+00  9.000E+00
      25     1     1     2     0     0  1.280898825E+02  2.193785888E+02 -5.630006105E+02  6.301814585E+02  1.250000000E+02  0.00000E+00  9.000E+00
      25     1     1     2     0     0 -2.498666087E+02 -2.881241065E+02 -2.344139209E+02  4.647835079E+02  1.250000000E+02  0.00000E+00  9.000E+00
      21     1     1     2   511   501  1.217767261E+02  6.874551775E+01 -2.288239498E+02  2.681714326E+02  6.031565972E-06  0.00000E+00  9.000E+00
#rwgt            1           1   3.2083534063567544E-002           8       97896           0
</event>
<event>
      5   9999  3.19816E-02  6.81370E+01 -1.00000E+00  1.31817E-01
      21    -1     0     0   502   501  0.000000000E+00  0.000000000E+00  3.354037762E+02  3.354037762E+02  0.000000000E+00  0.00000E+00  9.000E+00
      21    -1     0     0   512   502  0.000000000E+00  0.000000000E+00 -1.822630799E+03  1.822630799E+03  0.000000000E+00  0.00000E+00  9.000E+00
      25     1     1     2     0     0 -6.234465922E+02  2.999196267E+02 -5.325514995E+02  8.819713915E+02  1.250000000E+02  0.00000E+00  9.000E+00
      25     1     1     2     0     0  5.803761057E+02 -3.527171987E+02 -5.997070556E+02  9.146143443E+02  1.250000000E+02  0.00000E+00  9.000E+00
      21     1     1     2   512   501  4.307048653E+01  5.279757196E+01 -3.549684673E+02  3.614488390E+02  7.629394531E-06  0.00000E+00  9.000E+00
#rwgt            1           1   2.7508480827296473E-002           8       97947           0
</event>
<event>
      5   9999  3.19816E-02  9.28672E+01 -1.00000E+00  1.25291E-01
      -2    -1     0     0     0   501  0.000000000E+00  0.000000000E+00  8.396390058E+02  8.396390058E+02  0.000000000E+00  0.00000E+00  9.000E+00
      21    -1     0     0   501   502  0.000000000E+00  0.000000000E+00 -9.747517132E+02  9.747517132E+02  0.000000000E+00  0.00000E+00  9.000E+00
      25     1     1     2     0     0 -3.973265459E+01  5.524555664E+01  3.098638802E+02  3.409858936E+02  1.250000000E+02  0.00000E+00  9.000E+00
      25     1     1     2     0     0  2.445215127E+01 -1.468470255E+02 -9.450227457E+02  9.648082434E+02  1.250000000E+02  0.00000E+00  9.000E+00
      -2     1     1     2     0   502  1.528050333E+01  9.160146888E+01  5.000461582E+02  5.085965819E+02  7.629394531E-06  0.00000E+00  9.000E+00
#rwgt            1           1   3.0714114986678000E-002           8       98100           0
</event>
<event>
      5   9999  3.19816E-02  5.33498E+00 -1.00000E+00  2.33699E-01
      21    -1     0     0   502   501  0.000000000E+00  0.000000000E+00  4.688592429E+02  4.688592429E+02  0.000000000E+00  0.00000E+00  9.000E+00
      21    -1     0     0   511   502  0.000000000E+00  0.000000000E+00 -5.423068758E+02  5.423068758E+02  0.000000000E+00  0.00000E+00  9.000E+00
      25     1     1     2     0     0  3.515551099E+02 -3.217574201E+02  6.391914243E+01  4.968193731E+02  1.250000000E+02  0.00000E+00  9.000E+00
      25     1     1     2     0     0 -3.464524337E+02  3.233145632E+02 -1.341497086E+02  5.081168566E+02  1.250000000E+02  0.00000E+00  9.000E+00
      21     1     1     2   511   501 -5.102676232E+00 -1.557143122E+00 -3.217066684E+00  6.229889042E+00  1.332800375E-07  0.00000E+00  9.000E+00
#rwgt            1           1   2.6388762757153357E-002           8       98191           0
</event>
<event>
      5   9999  3.19816E-02  5.01346E+01 -1.00000E+00  1.39009E-01
      21    -1     0     0   502   501  0.000000000E+00  0.000000000E+00  1.370654367E+02  1.370654367E+02  0.000000000E+00  0.00000E+00  9.000E+00
      21    -1     0     0   512   502  0.000000000E+00  0.000000000E+00 -2.196666234E+03  2.196666234E+03  0.000000000E+00  0.00000E+00  9.000E+00
      25     1     1     2     0     0  4.123244868E+02 -2.542460154E+02 -5.598711859E+02  7.508217256E+02  1.250000000E+02  0.00000E+00  9.000E+00
      25     1     1     2     0     0 -3.831449256E+02  2.134779827E+02 -1.338460373E+03  1.414027600E+03  1.250000000E+02  0.00000E+00  9.000E+00
      21     1     1     2   512   501 -2.917956115E+01  4.076803272E+01 -1.612692383E+02  1.688823452E+02  1.907348633E-06  0.00000E+00  9.000E+00
#rwgt            1           1   2.5891897580633840E-002           8       98584           0
</event>
<event>
      5   9999  3.19816E-02  2.37133E+02 -1.00000E+00  1.09020E-01
      21    -1     0     0   502   501  0.000000000E+00  0.000000000E+00  3.496389888E+02  3.496389888E+02  0.000000000E+00  0.00000E+00  9.000E+00
       2    -1     0     0   501     0  0.000000000E+00  0.000000000E+00 -5.302939389E+02  5.302939389E+02  0.000000000E+00  0.00000E+00  9.000E+00
      25     1     1     2     0     0 -1.327473033E+02  2.966003965E+02 -3.824994133E+01  3.502594749E+02  1.250000000E+02  0.00000E+00  9.000E+00
      25     1     1     2     0     0 -8.708322859E+01 -2.076819668E+02 -9.291032326E+00  2.577336053E+02  1.250000000E+02  0.00000E+00  9.000E+00
       2     1     1     2   502     0  2.198305318E+02 -8.891842974E+01 -1.331139765E+02  2.719398474E+02  2.697398305E-06  0.00000E+00  9.000E+00
#rwgt            1           1   2.7010272848657930E-002           8       98747           0
</event>
<event>
      5   9999  3.19816E-02  1.36363E+01 -1.00000E+00  1.81374E-01
      21    -1     0     0   502   511  0.000000000E+00  0.000000000E+00  1.755795313E+02  1.755795313E+02  0.000000000E+00  0.00000E+00  9.000E+00
      21    -1     0     0   501   502  0.000000000E+00  0.000000000E+00 -4.045028650E+02  4.045028650E+02  0.000000000E+00  0.00000E+00  9.000E+00
      25     1     1     2     0     0 -1.653037274E+02  1.018359606E+01 -2.232892578E+01  2.086926181E+02  1.250000000E+02  0.00000E+00  9.000E+00
      25     1     1     2     0     0  1.592807586E+02  2.050446810E+00 -2.524089136E+02  3.235889739E+02  1.250000000E+02  0.00000E+00  9.000E+00
      21     1     1     2   501   511  6.022968877E+00 -1.223404287E+01  4.581450569E+01  4.780080429E+01  6.743495762E-07  0.00000E+00  9.000E+00
#rwgt            1           1   2.4866526105991386E-002           8       98821           0
</event>
<event>
      5   9999  3.19816E-02  7.12813E+01 -1.00000E+00  1.30823E-01
      21    -1     0     0   502   501  0.000000000E+00  0.000000000E+00  1.305519756E+02  1.305519756E+02  0.000000000E+00  0.00000E+00  9.000E+00
      21    -1     0     0   501   512  0.000000000E+00  0.000000000E+00 -5.643094152E+02  5.643094152E+02  0.000000000E+00  0.00000E+00  9.000E+00
      25     1     1     2     0     0 -1.636413337E+02 -1.320339272E+02 -2.602962274E+02  3.571982223E+02  1.250000000E+02  0.00000E+00  9.000E+00
      25     1     1     2     0     0  9.873461686E+01  1.025697807E+02 -5.138887462E+01  1.963030843E+02  1.250000000E+02  0.00000E+00  9.000E+00
      21     1     1     2   502   512  6.490671680E+01  2.946414642E+01 -1.220723376E+02  1.413600843E+02  2.336015456E-06  0.00000E+00  9.000E+00
#rwgt            1           1   2.7735237960149921E-002           8       99011           0
</event>
<event>
      5   9999  3.19816E-02  2.34677E+02 -1.00000E+00  1.09177E-01
      21    -1     0     0   502   501  0.000000000E+00  0.000000000E+00  1.447026409E+03  1.447026409E+03  0.000000000E+00  0.00000E+00  9.000E+00
       2    -1     0     0   501     0  0.000000000E+00  0.000000000E+00 -2.717937020E+02  2.717937020E+02  0.000000000E+00  0.00000E+00  9.000E+00
      25     1     1     2     0     0 -1.453287135E+02  3.984533301E+02  5.992450493E+02  7.447181483E+02  1.250000000E+02  0.00000E+00  9.000E+00
      25     1     1     2     0     0  3.486854000E+02 -2.813242715E+02  1.517163466E+02  4.892521883E+02  1.250000000E+02  0.00000E+00  9.000E+00
       2     1     1     2   502     0 -2.033566865E+02 -1.171290586E+02  4.242713116E+02  4.848497748E+02  5.394796609E-06  0.00000E+00  9.000E+00
#rwgt            1           1   2.9452104624716032E-002           8       99115           0
</event>
<event>
      5   9999  3.19816E-02  6.23286E+01 -1.00000E+00  1.33826E-01
      21    -1     0     0   502   511  0.000000000E+00  0.000000000E+00  4.777729996E+02  4.777729996E+02  0.000000000E+00  0.00000E+00  9.000E+00
      21    -1     0     0   501   502  0.000000000E+00  0.000000000E+00 -4.534279412E+02  4.534279412E+02  0.000000000E+00  0.00000E+00  9.000E+00
      25     1     1     2     0     0  2.223743763E+02 -2.806727764E+02  2.253296012E+02  4.411643682E+02  1.250000000E+02  0.00000E+00  9.000E+00
      25     1     1     2     0     0 -2.222448185E+02  2.183442825E+02 -2.433944536E+02  4.146478568E+02  1.250000000E+02  0.00000E+00  9.000E+00
      21     1     1     2   501   511 -1.295578250E-01  6.232849388E+01  4.240991085E+01  7.538871582E+01  9.536743164E-07  0.00000E+00  9.000E+00
#rwgt            1           1   2.8822326886375989E-002           8       99164           0
</event>
<event>
      5   9999  3.19816E-02  1.19697E+02 -1.00000E+00  1.20415E-01
      21    -1     0     0   502   501  0.000000000E+00  0.000000000E+00  2.176121503E+02  2.176121503E+02  0.000000000E+00  0.00000E+00  9.000E+00
       5    -1     0     0   501     0  0.000000000E+00  0.000000000E+00 -4.060072898E+02  4.060072898E+02  0.000000000E+00  0.00000E+00  9.000E+00
      25     1     1     2     0     0  8.120218434E+01 -2.208089411E+01  1.228227716E+02  1.944011158E+02  1.250000000E+02  0.00000E+00  9.000E+00
      25     1     1     2     0     0 -1.113318243E+01  1.191259702E+02 -1.541301230E+02  2.317240586E+02  1.250000000E+02  0.00000E+00  9.000E+00
       5     1     1     2   502     0 -7.006900191E+01 -9.704507610E+01 -1.570877880E+02  1.974942657E+02  2.697398305E-06  0.00000E+00  9.000E+00
#rwgt            1           1   2.5257125403395492E-002           8       99238           0
</event>
<event>
      5   9999  3.19816E-02  3.95127E+01 -1.00000E+00  1.45171E-01
      21    -1     0     0   511   501  0.000000000E+00  0.000000000E+00  1.433842907E+02  1.433842907E+02  0.000000000E+00  0.00000E+00  9.000E+00
      21    -1     0     0   501   502  0.000000000E+00  0.000000000E+00 -5.308156494E+02  5.308156494E+02  0.000000000E+00  0.00000E+00  9.000E+00
      25     1     1     2     0     0  1.087907148E+02  1.215637418E+02 -3.772203967E+02  4.295734985E+02  1.250000000E+02  0.00000E+00  9.000E+00
      25     1     1     2     0     0 -1.226166866E+02 -8.454897201E+01 -3.557789608E+01  1.976718675E+02  1.250000000E+02  0.00000E+00  9.000E+00
      21     1     1     2   511   502  1.382597180E+01 -3.701476980E+01  2.536693414E+01  4.695457408E+01  1.011524364E-06  0.00000E+00  9.000E+00
#rwgt            2          11   1.5397899514405580E-003           8       99325           0
</event>
<event>
      5   9999  3.19816E-02  4.07183E+02 -1.00000E+00  1.01453E-01
      21    -1     0     0   502   501  0.000000000E+00  0.000000000E+00  3.102839334E+02  3.102839334E+02  0.000000000E+00  0.00000E+00  9.000E+00
       2    -1     0     0   501     0  0.000000000E+00  0.000000000E+00 -1.312317677E+03  1.312317677E+03  0.000000000E+00  0.00000E+00  9.000E+00
      25     1     1     2     0     0  6.656742199E+01 -3.857974876E+02  7.353928246E+01  4.174972445E+02  1.250000000E+02  0.00000E+00  9.000E+00
      25     1     1     2     0     0  2.642325113E+01 -1.062526558E+01 -3.550368386E+02  3.774748220E+02  1.250000000E+02  0.00000E+00  9.000E+00
       2     1     1     2   502     0 -9.299067312E+01  3.964227532E+02 -7.205361879E+02  8.276295443E+02  7.629394531E-06  0.00000E+00  9.000E+00
#rwgt            2          13   1.1602240595639834E-003           8       99345           0
</event>
<event>
      5   9999  3.19816E-02  9.65187E+01 -1.00000E+00  1.24524E-01
      21    -1     0     0   502   501  0.000000000E+00  0.000000000E+00  2.310875240E+02  2.310875240E+02  0.000000000E+00  0.00000E+00  9.000E+00
      21    -1     0     0   511   502  0.000000000E+00  0.000000000E+00 -1.054759436E+03  1.054759436E+03  0.000000000E+00  0.00000E+00  9.000E+00
      25     1     1     2     0     0  2.329455169E+02  6.650876277E+01  7.544503539E+01  2.828497530E+02  1.250000000E+02  0.00000E+00  9.000E+00
      25     1     1     2     0     0 -2.896866701E+02 -1.445875325E+02 -7.292920645E+02  8.076607189E+02  1.250000000E+02  0.00000E+00  9.000E+00
      21     1     1     2   511   501  5.674115320E+01  7.807876974E+01 -1.698248826E+02  1.953364879E+02  2.697398305E-06  0.00000E+00  9.000E+00
#rwgt            1           1   3.0016717644277078E-002           8       99394           0
</event>
<event>
      5   9999  3.19816E-02  1.30595E+02 -1.00000E+00  1.18829E-01
      21    -1     0     0   502   501  0.000000000E+00  0.000000000E+00  2.416971365E+02  2.416971365E+02  0.000000000E+00  0.00000E+00  9.000E+00
       2    -1     0     0   501     0  0.000000000E+00  0.000000000E+00 -3.095209814E+02  3.095209814E+02  0.000000000E+00  0.00000E+00  9.000E+00
      25     1     1     2     0     0 -1.077599389E+02  1.085575046E+02 -6.692916393E+01  2.085700103E+02  1.250000000E+02  0.00000E+00  9.000E+00
      25     1     1     2     0     0 -3.030478774E+00 -3.941671185E+01  1.101434678E+02  1.712292162E+02  1.250000000E+02  0.00000E+00  9.000E+00
       2     1     1     2   502     0  1.107904177E+02 -6.914079273E+01 -1.110381487E+02  1.714188914E+02  2.336015456E-06  0.00000E+00  9.000E+00
#rwgt            1           1   2.8190362783357646E-002           8       99508           0
</event>
<event>
      5   9999  3.19816E-02  2.57775E+02 -1.00000E+00  1.07778E-01
      21    -1     0     0   502   511  0.000000000E+00  0.000000000E+00  3.419351631E+02  3.419351631E+02  0.000000000E+00  0.00000E+00  9.000E+00
      21    -1     0     0   501   502  0.000000000E+00  0.000000000E+00 -9.375331845E+02  9.375331845E+02  0.000000000E+00  0.00000E+00  9.000E+00
      25     1     1     2     0     0 -3.245089375E+01 -7.184168733E+01 -5.237090085E+02  5.441602835E+02  1.250000000E+02  0.00000E+00  9.000E+00
      25     1     1     2     0     0  2.260499298E+02  2.420397912E+02 -2.398945517E+02  4.276169164E+02  1.250000000E+02  0.00000E+00  9.000E+00
      21     1     1     2   501   511 -1.935990360E+02 -1.701981038E+02  1.680055388E+02  3.076911477E+02  3.303624740E-06  0.00000E+00  9.000E+00
#rwgt            1           1   2.8772678731975473E-002           8       99631           0
</event>
<event>
      5   9999  3.19816E-02  7.93250E+01 -1.00000E+00  1.28528E-01
      21    -1     0     0   512   501  0.000000000E+00  0.000000000E+00  8.914872382E+02  8.914872382E+02  0.000000000E+00  0.00000E+00  9.000E+00
      21    -1     0     0   501   502  0.000000000E+00  0.000000000E+00 -4.604418788E+02  4.604418788E+02  0.000000000E+00  0.00000E+00  9.000E+00
      25     1     1     2     0     0  3.176975146E+02 -2.115785313E+02 -1.691831190E+02  4.358269306E+02  1.250000000E+02  0.00000E+00  9.000E+00
      25     1     1     2     0     0 -3.224223176E+02  1.323943272E+02  6.612582180E+01  3.761409750E+02  1.250000000E+02  0.00000E+00  9.000E+00
      21     1     1     2   512   502  4.724802988E+00  7.918420409E+01  5.341026566E+02  5.399612114E+02  7.629394531E-06  0.00000E+00  9.000E+00
#rwgt            1           1   2.7354493506006276E-002           8       99670           0
</event>
<event>
      5   9999  3.19816E-02  8.75035E+01 -1.00000E+00  1.26493E-01
      21    -1     0     0   502   501  0.000000000E+00  0.000000000E+00  8.140089024E+02  8.140089024E+02  0.000000000E+00  0.00000E+00  9.000E+00
      21    -1     0     0   511   502  0.000000000E+00  0.000000000E+00 -8.618688555E+01  8.618688555E+01  0.000000000E+00  0.00000E+00  9.000E+00
      25     1     1     2     0     0  8.162008066E+00 -5.081553085E+01  5.397374347E+02  5.564084246E+02  1.250000000E+02  0.00000E+00  9.000E+00
      25     1     1     2     0     0 -9.559440967E+01  5.434163314E+01  1.945341076E+02  2.560465256E+02  1.250000000E+02  0.00000E+00  9.000E+00
      21     1     1     2   511   501  8.743240160E+01 -3.526102284E+00 -6.449525353E+00  8.774083784E+01  1.221531721E-06  0.00000E+00  9.000E+00
#rwgt            1           1   2.8993443651215828E-002           8       99744           0
</event>
<event>
      5   9999  3.19816E-02  4.03312E+01 -1.00000E+00  1.44618E-01
      21    -1     0     0   502   501  0.000000000E+00  0.000000000E+00  7.112468044E+02  7.112468044E+02  0.000000000E+00  0.00000E+00  9.000E+00
      21    -1     0     0   512   502  0.000000000E+00  0.000000000E+00 -9.609763611E+02  9.609763611E+02  0.000000000E+00  0.00000E+00  9.000E+00
      25     1     1     2     0     0  3.696643866E+02  1.332996585E+02 -2.511701022E+02  4.828374239E+02  1.250000000E+02  0.00000E+00  9.000E+00
      25     1     1     2     0     0 -3.718539025E+02 -1.735713525E+02  5.172549307E+02  6.719970257E+02  1.250000000E+02  0.00000E+00  9.000E+00
      21     1     1     2   512   501  2.189515918E+00  4.027169396E+01 -5.158143852E+02  5.173887158E+02  1.078959322E-05  0.00000E+00  9.000E+00
#rwgt            2          11   2.6395517489811206E-003           8       99853           0
</event>
<event>
      5   9999  3.24182E-02  2.43239E+01 -1.00000E+00  1.59648E-01
      21    -1     0     0   502   511  0.000000000E+00  0.000000000E+00  1.163192027E+02  1.163192027E+02  0.000000000E+00  0.00000E+00  9.000E+00
      21    -1     0     0   501   502  0.000000000E+00  0.000000000E+00 -1.350685166E+03  1.350685166E+03  0.000000000E+00  0.00000E+00  9.000E+00
      25     1     1     2     0     0 -3.660915731E+01 -2.292831875E+02 -7.231621670E+02  7.697399108E+02  1.250000000E+02  0.00000E+00  9.000E+00
      25     1     1     2     0     0  1.729539936E+01  2.144969992E+02 -5.763185518E+02  6.277548619E+02  1.250000000E+02  0.00000E+00  9.000E+00
      21     1     1     2   501   511  1.931375795E+01  1.478618828E+01  6.511475526E+01  6.950959619E+01  2.336015456E-06  0.00000E+00  9.000E+00
#rwgt            1           1   3.1805765735774399E-002           8       99903           0
</event>
<event>
      5   9999  3.19816E-02  6.03782E+02 -1.00000E+00  9.65794E-02
       1    -1     0     0   502     0  0.000000000E+00  0.000000000E+00  2.170272555E+03  2.170272555E+03  0.000000000E+00  0.00000E+00  9.000E+00
      21    -1     0     0   501   502  0.000000000E+00  0.000000000E+00 -3.289563146E+02  3.289563146E+02  0.000000000E+00  0.00000E+00  9.000E+00
      25     1     1     2     0     0 -5.864038551E+01  7.155046214E+01 -7.294139571E+01  1.717661511E+02  1.250000000E+02  0.00000E+00  9.000E+00
      25     1     1     2     0     0 -4.894719833E+01 -6.656695622E+02  1.296928611E+03  1.463953762E+03  1.250000000E+02  0.00000E+00  9.000E+00
       1     1     1     2   501     0  1.075875838E+02  5.941191001E+02  6.173290248E+02  8.635089566E+02  1.078959322E-05  0.00000E+00  9.000E+00
#rwgt            2          17   3.7767060995328377E-004           8      100160           0
</event>
<event>
      5   9999  3.19816E-02  1.52556E+02 -1.00000E+00  1.16104E-01
      21    -1     0     0   502   501  0.000000000E+00  0.000000000E+00  1.302700564E+03  1.302700564E+03  0.000000000E+00  0.00000E+00  9.000E+00
      21    -1     0     0   511   502  0.000000000E+00  0.000000000E+00 -4.318822859E+02  4.318822859E+02  0.000000000E+00  0.00000E+00  9.000E+00
      25     1     1     2     0     0  2.240889417E+02 -4.176390710E+02  1.069866698E+03  1.176808395E+03  1.250000000E+02  0.00000E+00  9.000E+00
      25     1     1     2     0     0 -2.093114753E+02  2.658006463E+02 -9.455468366E+01  3.728630653E+02  1.250000000E+02  0.00000E+00  9.000E+00
      21     1     1     2   511   501 -1.477746640E+01  1.518384247E+02 -1.044937367E+02  1.849113889E+02  0.000000000E+00  0.00000E+00  9.000E+00
#rwgt            1           1   2.4068383817474542E-002           8      100179           0
</event>
<event>
      5   9999  3.19816E-02  1.02129E+02 -1.00000E+00  1.23418E-01
      21    -1     0     0   502   512  0.000000000E+00  0.000000000E+00  3.799410061E+02  3.799410061E+02  0.000000000E+00  0.00000E+00  9.000E+00
      21    -1     0     0   501   502  0.000000000E+00  0.000000000E+00 -9.204197117E+02  9.204197117E+02  0.000000000E+00  0.00000E+00  9.000E+00
      25     1     1     2     0     0  1.075808669E+02 -2.212037741E+02  2.369420122E+02  3.636911736E+02  1.250000000E+02  0.00000E+00  9.000E+00
      25     1     1     2     0     0 -1.971528338E+02  2.702671430E+02 -7.503685477E+02  8.310183667E+02  1.250000000E+02  0.00000E+00  9.000E+00
      21     1     1     2   501   512  8.957196688E+01 -4.906336888E+01 -2.705217005E+01  1.056511776E+02  1.118282261E-06  0.00000E+00  9.000E+00
#rwgt            1           1   3.3141278174378487E-002           8      100265           0
</event>
<event>
      5   9999  3.19816E-02  5.16512E+01 -1.00000E+00  1.38275E-01
      21    -1     0     0   502   501  0.000000000E+00  0.000000000E+00  2.891682926E+02  2.891682926E+02  0.000000000E+00  0.00000E+00  9.000E+00
      21    -1     0     0   511   502  0.000000000E+00  0.000000000E+00 -2.748965046E+02  2.748965046E+02  0.000000000E+00  0.00000E+00  9.000E+00
      25     1     1     2     0     0 -4.460007461E+01 -1.191217486E+02  5.214307189E+01  1.858038148E+02  1.250000000E+02  0.00000E+00  9.000E+00
      25     1     1     2     0     0  1.791145537E+01  7.490002261E+01  1.340125234E+02  1.987842802E+02  1.250000000E+02  0.00000E+00  9.000E+00
      21     1     1     2   511   501  2.668861924E+01  4.422172599E+01 -1.718838072E+02  1.794767022E+02  0.000000000E+00  0.00000E+00  9.000E+00
#rwgt            1           1   2.9230962822707568E-002           8      100364           0
</event>
<event>
      5   9999  3.19816E-02  4.94330E+01 -1.00000E+00  1.39359E-01
      21    -1     0     0   502   512  0.000000000E+00  0.000000000E+00  6.806943618E+01  6.806943618E+01  0.000000000E+00  0.00000E+00  9.000E+00
      21    -1     0     0   501   502  0.000000000E+00  0.000000000E+00 -1.742022108E+03  1.742022108E+03  0.000000000E+00  0.00000E+00  9.000E+00
      25     1     1     2     0     0  1.300336814E+01 -2.071805800E+01 -1.594688740E+03  1.599767328E+03  1.250000000E+02  0.00000E+00  9.000E+00
      25     1     1     2     0     0 -1.185085678E+01  7.013765648E+01 -7.030466165E+01  1.600858492E+02  1.250000000E+02  0.00000E+00  9.000E+00
      21     1     1     2   501   512 -1.152511364E+00 -4.941959848E+01 -8.959269902E+00  5.023836694E+01  1.535904256E-06  0.00000E+00  9.000E+00
#rwgt            1           1   3.0646388688103390E-002           8      100522           0
</event>
<event>
      5   9999  3.19816E-02  1.55841E+01 -1.00000E+00  1.75835E-01
       2    -1     0     0   502     0  0.000000000E+00  0.000000000E+00  8.911277206E+02  8.911277206E+02  0.000000000E+00  0.00000E+00  9.000E+00
      21    -1     0     0   501   502  0.000000000E+00  0.000000000E+00 -1.045459737E+02  1.045459737E+02  0.000000000E+00  0.00000E+00  9.000E+00
      25     1     1     2     0     0  2.402178214E+00 -1.920597943E+02  2.184620102E+02  3.166123576E+02  1.250000000E+02  0.00000E+00  9.000E+00
      25     1     1     2     0     0  1.249557907E+01  1.874859214E+02  1.748686576E+02  2.855015896E+02  1.250000000E+02  0.00000E+00  9.000E+00
       2     1     1     2   501     0 -1.489775728E+01  4.573872897E+00  3.932510790E+02  3.935597472E+02  0.000000000E+00  0.00000E+00  9.000E+00
#rwgt            1           1   2.5169690706554657E-002           8      100636           0
</event>
<event>
      5   9999  3.19816E-02  9.94258E+01 -1.00000E+00  1.23941E-01
      21    -1     0     0   502   501  0.000000000E+00  0.000000000E+00  4.582296721E+02  4.582296721E+02  0.000000000E+00  0.00000E+00  9.000E+00
      21    -1     0     0   511   502  0.000000000E+00  0.000000000E+00 -5.031159615E+02  5.031159615E+02  0.000000000E+00  0.00000E+00  9.000E+00
      25     1     1     2     0     0  2.505574031E+02  2.813903656E+02 -5.218343466E+01  4.003843915E+02  1.250000000E+02  0.00000E+00  9.000E+00
      25     1     1     2     0     0 -3.453910952E+02 -2.515230215E+02  5.870352996E+01  4.490322298E+02  1.250000000E+02  0.00000E+00  9.000E+00
      21     1     1     2   511   501  9.483369209E+01 -2.986734407E+01 -5.140638475E+01  1.119290123E+02  1.348699152E-06  0.00000E+00  9.000E+00
#rwgt            1           1   2.9131656616790937E-002           8      100825           0
</event>
<event>
      5   9999  3.19816E-02  7.09307E+00 -1.00000E+00  2.14746E-01
      21    -1     0     0   502   501  0.000000000E+00  0.000000000E+00  5.356520561E+02  5.356520561E+02  0.000000000E+00  0.00000E+00  9.000E+00
      21    -1     0     0   512   502  0.000000000E+00  0.000000000E+00 -1.832488736E+02  1.832488736E+02  0.000000000E+00  0.00000E+00  9.000E+00
      25     1     1     2     0     0 -2.052388631E+02  1.883672642E+02  1.205759139E+02  3.282815380E+02  1.250000000E+02  0.00000E+00  9.000E+00
      25     1     1     2     0     0  2.018451756E+02 -1.945957886E+02  2.290083192E+02  3.829866919E+02  1.250000000E+02  0.00000E+00  9.000E+00
      21     1     1     2   512   501  3.393687494E+00  6.228524390E+00  2.818949396E+00  7.632699823E+00  9.424321831E-08  0.00000E+00  9.000E+00
#rwgt            1           1   2.4260406838403505E-002           8      100928           0
</event>
<event>
      5   9999  3.19816E-02  7.31169E+01 -1.00000E+00  1.30270E-01
      -2    -1     0     0     0   501  0.000000000E+00  0.000000000E+00  2.985974556E+02  2.985974556E+02  0.000000000E+00  0.00000E+00  9.000E+00
      21    -1     0     0   501   502  0.000000000E+00  0.000000000E+00 -1.656631807E+02  1.656631807E+02  0.000000000E+00  0.00000E+00  9.000E+00
      25     1     1     2     0     0 -6.818675350E+01  1.033011532E+02  1.012357754E+02  2.029636515E+02  1.250000000E+02  0.00000E+00  9.000E+00
      25     1     1     2     0     0 -4.007840682E+00 -1.148780356E+02 -2.108044542E+01  1.711210420E+02  1.250000000E+02  0.00000E+00  9.000E+00
      -2     1     1     2     0   502  7.219459418E+01  1.157688234E+01  5.277894494E+01  9.017594281E+01  6.743495762E-07  0.00000E+00  9.000E+00
#rwgt            1           1   2.7747366928402881E-002           8      101194           0
</event>
<event>
      5   9999  3.19816E-02  8.53496E+01 -1.00000E+00  1.27003E-01
      21    -1     0     0   502   501  0.000000000E+00  0.000000000E+00  2.186381117E+02  2.186381117E+02  0.000000000E+00  0.00000E+00  9.000E+00
      21    -1     0     0   501   511  0.000000000E+00  0.000000000E+00 -5.627790515E+02  5.627790515E+02  0.000000000E+00  0.00000E+00  9.000E+00
      25     1     1     2     0     0  2.177488479E+02 -1.737834338E+01 -3.284365239E+02  4.137778605E+02  1.250000000E+02  0.00000E+00  9.000E+00
      25     1     1     2     0     0 -1.945834877E+02 -6.476736833E+01  6.642868910E+01  2.491893184E+02  1.250000000E+02  0.00000E+00  9.000E+00
      21     1     1     2   502   511 -2.316536019E+01  8.214571171E+01 -8.213310499E+01  1.184499844E+02  1.651812370E-06  0.00000E+00  9.000E+00
#rwgt            1           1   2.6372408308835367E-002           8      101248           0
</event>
<event>
      5   9999  3.19816E-02  1.72913E+01 -1.00000E+00  1.71758E-01
      21    -1     0     0   502   501  0.000000000E+00  0.000000000E+00  2.132494147E+03  2.132494147E+03  0.000000000E+00  0.00000E+00  9.000E+00
      21    -1     0     0   501   512  0.000000000E+00  0.000000000E+00 -3.975848146E+01  3.975848146E+01  0.000000000E+00  0.00000E+00  9.000E+00
      25     1     1     2     0     0  4.574632775E+01  5.305220651E+01  1.942669706E+03  1.947947086E+03  1.250000000E+02  0.00000E+00  9.000E+00
      25     1     1     2     0     0 -4.180546553E+01 -6.988845982E+01  1.306843576E+02  1.983317803E+02  1.250000000E+02  0.00000E+00  9.000E+00
      21     1     1     2   502   512 -3.940862220E+00  1.683625330E+01  1.938160143E+01  2.597376165E+01  4.129530925E-07  0.00000E+00  9.000E+00
#rwgt            1           1   8.5200603540068628E-002           8      101312           0
</event>
<event>
      5   9999  3.19816E-02  7.53133E+01 -1.00000E+00  1.29631E-01
      21    -1     0     0   502   501  0.000000000E+00  0.000000000E+00  2.213425033E+03  2.213425033E+03  0.000000000E+00  0.00000E+00  9.000E+00
      21    -1     0     0   511   502  0.000000000E+00  0.000000000E+00 -1.031208209E+03  1.031208209E+03  0.000000000E+00  0.00000E+00  9.000E+00
      25     1     1     2     0     0 -1.086704507E+03  8.472509727E+02  1.169231729E+03  1.811487988E+03  1.250000000E+02  0.00000E+00  9.000E+00
      25     1     1     2     0     0  1.020701768E+03 -8.835240300E+02  2.935744417E+01  1.356072885E+03  1.250000000E+02  0.00000E+00  9.000E+00
      21     1     1     2   511   501  6.600273895E+01  3.627305729E+01 -1.637234969E+01  7.707236903E+01  1.092571186E-06  0.00000E+00  9.000E+00
#rwgt            1           1   3.5488582375137134E-002           8      101457           0
</event>
<event>
      5   9999  3.19816E-02  4.57169E+01 -1.00000E+00  1.41332E-01
      21    -1     0     0   502   501  0.000000000E+00  0.000000000E+00  6.093718420E+02  6.093718420E+02  0.000000000E+00  0.00000E+00  9.000E+00
      -3    -1     0     0     0   502  0.000000000E+00  0.000000000E+00 -3.847932473E+02  3.847932473E+02  0.000000000E+00  0.00000E+00  9.000E+00
      25     1     1     2     0     0  1.965153333E+00  3.857913202E+02  1.526702936E+02  4.333266933E+02  1.250000000E+02  0.00000E+00  9.000E+00
      25     1     1     2     0     0  1.302946350E+01 -4.289792852E+02  1.490183048E+02  4.711947041E+02  1.250000000E+02  0.00000E+00  9.000E+00
      -3     1     1     2     0   501 -1.499461683E+01  4.318796497E+01 -7.711000365E+01  8.964369200E+01  1.651812370E-06  0.00000E+00  9.000E+00
#rwgt            1           1   2.5888591334774266E-002           8      101620           0
</event>
<event>
      5   9999  3.19816E-02  1.28781E+02 -1.00000E+00  1.19081E-01
      21    -1     0     0   502   501  0.000000000E+00  0.000000000E+00  1.482592195E+02  1.482592195E+02  0.000000000E+00  0.00000E+00  9.000E+00
      21    -1     0     0   501   511  0.000000000E+00  0.000000000E+00 -9.954730292E+02  9.954730292E+02  0.000000000E+00  0.00000E+00  9.000E+00
      25     1     1     2     0     0  3.232883171E+01 -1.554471635E+02  2.368191587E+01  2.034571383E+02  1.250000000E+02  0.00000E+00  9.000E+00
      25     1     1     2     0     0 -1.341684890E+02  7.662367706E+01 -6.911587345E+02  7.191646318E+02  1.250000000E+02  0.00000E+00  9.000E+00
      21     1     1     2   502   511  1.018396573E+02  7.882348640E+01 -1.797369910E+02  2.211104786E+02  3.303624740E-06  0.00000E+00  9.000E+00
#rwgt            1           1   3.0846152646284649E-002           8      101723           0
</event>
<event>
      5   9999  3.19816E-02  1.36091E+01 -1.00000E+00  1.81460E-01
       2    -1     0     0   502     0  0.000000000E+00  0.000000000E+00  7.165975571E+02  7.165975571E+02  0.000000000E+00  0.00000E+00  9.000E+00
      21    -1     0     0   501   502  0.000000000E+00  0.000000000E+00 -4.055618120E+02  4.055618120E+02  0.000000000E+00  0.00000E+00  9.000E+00
      25     1     1     2     0     0 -1.099337140E+01  5.748785205E+01 -3.775563069E+02  4.019943684E+02  1.250000000E+02  0.00000E+00  9.000E+00
      25     1     1     2     0     0  2.213596576E+01 -4.967434807E+01  2.807374968E+02  3.120834567E+02  1.250000000E+02  0.00000E+00  9.000E+00
       2     1     1     2   501     0 -1.114259436E+01 -7.813503979E+00  4.078545552E+02  4.080815439E+02  5.394796609E-06  0.00000E+00  9.000E+00
#rwgt            1           1   2.5539071896741570E-002           8      101769           0
</event>
<event>
      5   9999  3.19816E-02  1.40409E+02 -1.00000E+00  1.17542E-01
      21    -1     0     0   502   501  0.000000000E+00  0.000000000E+00  1.839975858E+03  1.839975858E+03  0.000000000E+00  0.00000E+00  9.000E+00
      21    -1     0     0   501   511  0.000000000E+00  0.000000000E+00 -1.212023527E+03  1.212023527E+03  0.000000000E+00  0.00000E+00  9.000E+00
      25     1     1     2     0     0 -9.174043288E+02  9.907190583E+02  3.007880932E+02  1.388975677E+03  1.250000000E+02  0.00000E+00  9.000E+00
      25     1     1     2     0     0  8.168982268E+02 -8.926715978E+02  5.998364004E+02  1.356323708E+03  1.250000000E+02  0.00000E+00  9.000E+00
      21     1     1     2   502   511  1.005061020E+02 -9.804746050E+01 -2.726721632E+02  3.066999994E+02  3.814697266E-06  0.00000E+00  9.000E+00
#rwgt            1           1   5.1048228486826365E-002           8      101959           0
</event>
<event>
      5   9999  3.19816E-02  1.76807E+02 -1.00000E+00  1.13632E-01
      21    -1     0     0   502   501  0.000000000E+00  0.000000000E+00  5.767808829E+02  5.767808829E+02  0.000000000E+00  0.00000E+00  9.000E+00
      21    -1     0     0   512   502  0.000000000E+00  0.000000000E+00 -8.109963670E+02  8.109963670E+02  0.000000000E+00  0.00000E+00  9.000E+00
      25     1     1     2     0     0 -2.236299069E+02  5.237130925E+02 -1.349107471E+02  5.984243044E+02  1.250000000E+02  0.00000E+00  9.000E+00
      25     1     1     2     0     0  4.983615053E+01 -5.562142556E+02  2.567001028E+01  5.728367040E+02  1.250000000E+02  0.00000E+00  9.000E+00
      21     1     1     2   512   501  1.737937563E+02  3.250116316E+01 -1.249747474E+02  2.165162415E+02  1.348699152E-06  0.00000E+00  9.000E+00
#rwgt            1           1   3.5098292307472793E-002           8      102044           0
</event>
<event>
      5   9999  3.19816E-02  5.11258E+01 -1.00000E+00  1.38526E-01
      21    -1     0     0   502   511  0.000000000E+00  0.000000000E+00  2.819811560E+02  2.819811560E+02  0.000000000E+00  0.00000E+00  9.000E+00
      21    -1     0     0   501   502  0.000000000E+00  0.000000000E+00 -2.700881633E+02  2.700881633E+02  0.000000000E+00  0.00000E+00  9.000E+00
      25     1     1     2     0     0 -8.901271940E+01  5.184970784E+01  3.442670736E+01  1.655954546E+02  1.250000000E+02  0.00000E+00  9.000E+00
      25     1     1     2     0     0  5.752491514E+01 -1.157106816E+01 -1.765819606E+02  2.241633206E+02  1.250000000E+02  0.00000E+00  9.000E+00
      21     1     1     2   501   511  3.148780426E+01 -4.027863968E+01  1.540482459E+02  1.623105440E+02  2.697398305E-06  0.00000E+00  9.000E+00
#rwgt            1           1   3.0937797164768029E-002           8      102132           0
</event>
<event>
      5   9999  3.19816E-02  1.12021E+02 -1.00000E+00  1.21650E-01
      21    -1     0     0   502   501  0.000000000E+00  0.000000000E+00  5.772086690E+02  5.772086690E+02  0.000000000E+00  0.00000E+00  9.000E+00
      21    -1     0     0   512   502  0.000000000E+00  0.000000000E+00 -1.458199299E+02  1.458199299E+02  0.000000000E+00  0.00000E+00  9.000E+00
      25     1     1     2     0     0 -6.558218825E+01  1.497501569E+02  2.197464506E+02  3.010641717E+02  1.250000000E+02  0.00000E+00  9.000E+00
      25     1     1     2     0     0 -2.404045607E+01 -2.169553808E+02  1.636878146E+02  3.001104488E+02  1.250000000E+02  0.00000E+00  9.000E+00
      21     1     1     2   512   501  8.962264432E+01  6.720522394E+01  4.795447386E+01  1.218539784E+02  6.743495762E-07  0.00000E+00  9.000E+00
#rwgt            1           1   2.7892536180026916E-002           8      102231           0
</event>
<event>
      5   9999  3.19816E-02  1.47400E+02 -1.00000E+00  1.16695E-01
      21    -1     0     0   502   501  0.000000000E+00  0.000000000E+00  4.136950912E+02  4.136950912E+02  0.000000000E+00  0.00000E+00  9.000E+00
      21    -1     0     0   501   511  0.000000000E+00  0.000000000E+00 -2.691001045E+02  2.691001045E+02  0.000000000E+00  0.00000E+00  9.000E+00
      25     1     1     2     0     0 -4.926308442E+01 -2.095844315E+02  9.090130001E+01  2.650293036E+02  1.250000000E+02  0.00000E+00  9.000E+00
      25     1     1     2     0     0 -9.675315701E+01  1.894376748E+02  9.548469453E+01  2.645564834E+02  1.250000000E+02  0.00000E+00  9.000E+00
      21     1     1     2   502   511  1.460162414E+02  2.014675675E+01 -4.179100787E+01  1.532094087E+02  2.523185073E-06  0.00000E+00  9.000E+00
#rwgt            1           1   2.9423447422296994E-002           8      102351           0
</event>
<event>
      5   9999  3.19816E-02  2.21543E+01 -1.00000E+00  1.62785E-01
      21    -1     0     0   502   501  0.000000000E+00  0.000000000E+00  6.272212599E+02  6.272212599E+02  0.000000000E+00  0.00000E+00  9.000E+00
       2    -1     0     0   501     0  0.000000000E+00  0.000000000E+00 -8.340336105E+02  8.340336105E+02  0.000000000E+00  0.00000E+00  9.000E+00
      25     1     1     2     0     0 -2.462993570E+02  1.533162552E+02  1.093913807E+01  3.160916198E+02  1.250000000E+02  0.00000E+00  9.000E+00
      25     1     1     2     0     0  2.684311439E+02 -1.543137768E+02  4.033730106E+02  5.236437781E+02  1.250000000E+02  0.00000E+00  9.000E+00
       2     1     1     2   502     0 -2.213178687E+01  9.975216072E-01 -6.211244993E+02  6.215194725E+02  7.629394531E-06  0.00000E+00  9.000E+00
#rwgt            1           1   2.8553981339835499E-002           8      102469           0
</event>
<event>
      5   9999  3.19816E-02  1.10641E+02 -1.00000E+00  1.21884E-01
      21    -1     0     0   511   501  0.000000000E+00  0.000000000E+00  4.832391987E+02  4.832391987E+02  0.000000000E+00  0.00000E+00  9.000E+00
      21    -1     0     0   501   502  0.000000000E+00  0.000000000E+00 -3.417848202E+02  3.417848202E+02  0.000000000E+00  0.00000E+00  9.000E+00
      25     1     1     2     0     0  2.156063922E+02 -3.848363492E+01  5.223662333E+01  2.575281952E+02  1.250000000E+02  0.00000E+00  9.000E+00
      25     1     1     2     0     0 -2.206648571E+02 -7.204139047E+01 -1.504296546E+02  3.035408080E+02  1.250000000E+02  0.00000E+00  9.000E+00
      21     1     1     2   511   502  5.058464897E+00  1.105250254E+02  2.396474098E+02  2.639550158E+02  0.000000000E+00  0.00000E+00  9.000E+00
#rwgt            1           1   2.9220339202029329E-002           8      102615           0
</event>
<event>
      5   9999  3.19816E-02  2.05225E+01 -1.00000E+00  1.65450E-01
      21    -1     0     0   512   501  0.000000000E+00  0.000000000E+00  2.090403543E+02  2.090403543E+02  0.000000000E+00  0.00000E+00  9.000E+00
      21    -1     0     0   501   502  0.000000000E+00  0.000000000E+00 -2.315008174E+02  2.315008174E+02  0.000000000E+00  0.00000E+00  9.000E+00
      25     1     1     2     0     0 -1.963256106E+01  1.063392126E+02 -9.775876616E+01  1.920292737E+02  1.250000000E+02  0.00000E+00  9.000E+00
      25     1     1     2     0     0  5.865577269E+00 -1.215590156E+02  4.198681987E+00  1.745096794E+02  1.250000000E+02  0.00000E+00  9.000E+00
      21     1     1     2   512   502  1.376698380E+01  1.521980299E+01  7.109962106E+01  7.400221862E+01  9.536743164E-07  0.00000E+00  9.000E+00
#rwgt            1           1   2.6850431430353365E-002           8      102653           0
</event>
<event>
      5   9999  3.19816E-02  2.63650E+02 -1.00000E+00  1.07447E-01
       2    -1     0     0   502     0  0.000000000E+00  0.000000000E+00  1.908166874E+03  1.908166874E+03  0.000000000E+00  0.00000E+00  9.000E+00
      21    -1     0     0   501   502  0.000000000E+00  0.000000000E+00 -2.611136197E+02  2.611136197E+02  0.000000000E+00  0.00000E+00  9.000E+00
      25     1     1     2     0     0 -2.077841410E+02  1.592389671E+01  1.096567226E+03  1.123170735E+03  1.250000000E+02  0.00000E+00  9.000E+00
      25     1     1     2     0     0  4.079791763E+02  1.556379224E+02  2.108042204E+01  4.546862164E+02  1.250000000E+02  0.00000E+00  9.000E+00
       2     1     1     2   501     0 -2.001950353E+02 -1.715618191E+02  5.294056071E+02  5.914235426E+02  1.078959322E-05  0.00000E+00  9.000E+00
#rwgt            2          18   1.3860645655884331E-003           8      102906           0
</event>
<event>
      5   9999  3.19816E-02  1.94522E+02 -1.00000E+00  1.12089E-01
      21    -1     0     0   511   501  0.000000000E+00  0.000000000E+00  1.352604591E+03  1.352604591E+03  0.000000000E+00  0.00000E+00  9.000E+00
      21    -1     0     0   501   502  0.000000000E+00  0.000000000E+00 -6.819600035E+02  6.819600035E+02  0.000000000E+00  0.00000E+00  9.000E+00
      25     1     1     2     0     0  3.670460849E+02  3.029543444E+02  5.390406988E+02  7.298589166E+02  1.250000000E+02  0.00000E+00  9.000E+00
      25     1     1     2     0     0 -4.715431907E+02 -4.670252331E+02 -3.676232815E+02  7.689196487E+02  1.250000000E+02  0.00000E+00  9.000E+00
      21     1     1     2   511   502  1.044971059E+02  1.640708887E+02  4.992271706E+02  5.357860296E+02  9.344061824E-06  0.00000E+00  9.000E+00
#rwgt            1           1   2.9574675256566239E-002           8      102925           0
</event>
<event>
      5   9999  3.19816E-02  2.82864E+01 -1.00000E+00  1.54835E-01
      21    -1     0     0   512   501  0.000000000E+00  0.000000000E+00  3.769555671E+02  3.769555671E+02  0.000000000E+00  0.00000E+00  9.000E+00
      21    -1     0     0   501   502  0.000000000E+00  0.000000000E+00 -3.513644974E+02  3.513644974E+02  0.000000000E+00  0.00000E+00  9.000E+00
      25     1     1     2     0     0  1.062740644E+02  2.056682923E+02  2.022838134E+02  3.318694990E+02  1.250000000E+02  0.00000E+00  9.000E+00
      25     1     1     2     0     0 -1.225288375E+02 -1.825187735E+02 -2.262925202E+02  3.393519168E+02  1.250000000E+02  0.00000E+00  9.000E+00
      21     1     1     2   512   502  1.625477316E+01 -2.314951871E+01  4.959977650E+01  5.709864881E+01  9.536743164E-07  0.00000E+00  9.000E+00
#rwgt            1           1   3.0639818672221361E-002           8      103065           0
</event>
<event>
      5   9999  3.19816E-02  4.14566E+01 -1.00000E+00  1.43883E-01
       1    -1     0     0   502     0  0.000000000E+00  0.000000000E+00  1.676524428E+03  1.676524428E+03  0.000000000E+00  0.00000E+00  9.000E+00
      21    -1     0     0   501   502  0.000000000E+00  0.000000000E+00 -7.360528672E+01  7.360528672E+01  0.000000000E+00  0.00000E+00  9.000E+00
      25     1     1     2     0     0  2.185261074E+02 -5.194629744E+01  5.185996523E+02  5.788114346E+02  1.250000000E+02  0.00000E+00  9.000E+00
      25     1     1     2     0     0 -1.872003736E+02  2.479211615E+01  2.553079754E+02  3.412708473E+02  1.250000000E+02  0.00000E+00  9.000E+00
       1     1     1     2   501     0 -3.132573373E+01  2.715418129E+01  8.290115133E+02  8.300474326E+02  0.000000000E+00  0.00000E+00  9.000E+00
#rwgt            1           1   3.0474992035561171E-002           8      103179           0
</event>
<event>
      5   9999  3.19816E-02  3.57418E+01 -1.00000E+00  1.47938E-01
      21    -1     0     0   502   501  0.000000000E+00  0.000000000E+00  1.287042404E+03  1.287042404E+03  0.000000000E+00  0.00000E+00  9.000E+00
      21    -1     0     0   511   502  0.000000000E+00  0.000000000E+00 -5.069245858E+01  5.069245858E+01  0.000000000E+00  0.00000E+00  9.000E+00
      25     1     1     2     0     0  5.900359674E+01 -8.206283454E+01  3.046975256E+02  3.445015462E+02  1.250000000E+02  0.00000E+00  9.000E+00
      25     1     1     2     0     0 -3.262622708E+01  5.794417782E+01  9.446497851E+02  9.552016619E+02  1.250000000E+02  0.00000E+00  9.000E+00
      21     1     1     2   511   501 -2.637736966E+01  2.411865672E+01 -1.299736531E+01  3.803165441E+01  1.011524364E-06  0.00000E+00  9.000E+00
#rwgt            1           1   3.5062425156263316E-002           8      103270           0
</event>
<event>
      5   9999  3.19816E-02  7.94143E+01 -1.00000E+00  1.28504E-01
      21    -1     0     0   502   501  0.000000000E+00  0.000000000E+00  2.174686286E+03  2.174686286E+03  0.000000000E+00  0.00000E+00  9.000E+00
      21    -1     0     0   501   512  0.000000000E+00  0.000000000E+00 -5.537385045E+02  5.537385045E+02  0.000000000E+00  0.00000E+00  9.000E+00
      25     1     1     2     0     0  2.359280104E+02 -6.102402075E+02  1.803738853E+03  1.922798478E+03  1.250000000E+02  0.00000E+00  9.000E+00
      25     1     1     2     0     0 -1.608098164E+02  6.360062848E+02 -7.540739008E+01  6.720677539E+02  1.250000000E+02  0.00000E+00  9.000E+00
      21     1     1     2   502   512 -7.511819401E+01 -2.576607725E+01 -1.073836809E+02  1.335585592E+02  2.336015456E-06  0.00000E+00  9.000E+00
#rwgt            1           1   4.2030678398252599E-002           8      103353           0
</event>
<event>
      5   9999  3.19816E-02  1.47566E+02 -1.00000E+00  1.16676E-01
      21    -1     0     0   502   501  0.000000000E+00  0.000000000E+00  4.261838199E+02  4.261838199E+02  0.000000000E+00  0.00000E+00  9.000E+00
      21    -1     0     0   501   511  0.000000000E+00  0.000000000E+00 -5.933797396E+02  5.933797396E+02  0.000000000E+00  0.00000E+00  9.000E+00
      25     1     1     2     0     0  2.108762962E+02  3.832616803E+02  8.943684485E+01  4.636618133E+02  1.250000000E+02  0.00000E+00  9.000E+00
      25     1     1     2     0     0 -1.995245767E+02 -2.361331687E+02 -1.188306506E+02  3.539980983E+02  1.250000000E+02  0.00000E+00  9.000E+00
      21     1     1     2   502   511 -1.135171953E+01 -1.471285116E+02 -1.378021139E+02  2.019036480E+02  2.697398305E-06  0.00000E+00  9.000E+00
#rwgt            2          11   3.5373509152861957E-003           8      103441           0
</event>
<event>
      5   9999  3.19816E-02  6.51665E+01 -1.00000E+00  1.32814E-01
      21    -1     0     0   502   512  0.000000000E+00  0.000000000E+00  4.727343054E+02  4.727343054E+02  0.000000000E+00  0.00000E+00  9.000E+00
      21    -1     0     0   501   502  0.000000000E+00  0.000000000E+00 -3.905401637E+02  3.905401637E+02  0.000000000E+00  0.00000E+00  9.000E+00
      25     1     1     2     0     0 -1.776513364E+02  3.618169476E+01  1.427120831E+02  2.624135115E+02  1.250000000E+02  0.00000E+00  9.000E+00
      25     1     1     2     0     0  1.708316478E+02 -1.009904065E+02 -2.838534164E+02  3.682122704E+02  1.250000000E+02  0.00000E+00  9.000E+00
      21     1     1     2   501   512  6.819688613E+00  6.480871176E+01  2.233354750E+02  2.326486872E+02  0.000000000E+00  0.00000E+00  9.000E+00
#rwgt            2          11   1.8468982772065678E-003           8      103506           0
</event>
<event>
      5   9999  3.19816E-02  3.96124E+01 -1.00000E+00  1.45103E-01
      21    -1     0     0   511   501  0.000000000E+00  0.000000000E+00  1.004706448E+03  1.004706448E+03  0.000000000E+00  0.00000E+00  9.000E+00
      21    -1     0     0   501   502  0.000000000E+00  0.000000000E+00 -1.739257588E+02  1.739257588E+02  0.000000000E+00  0.00000E+00  9.000E+00
      25     1     1     2     0     0  1.178407986E+02 -3.322713879E+02  4.327813388E+02  5.720274611E+02  1.250000000E+02  0.00000E+00  9.000E+00
      25     1     1     2     0     0 -1.306424501E+02  3.697581844E+02  3.285335750E+02  5.266382768E+02  1.250000000E+02  0.00000E+00  9.000E+00
      21     1     1     2   511   502  1.280165142E+01 -3.748679651E+01  6.946577568E+01  7.996646912E+01  1.651812370E-06  0.00000E+00  9.000E+00
#rwgt            1           1   2.8587553318063712E-002           8      103526           0
</event>
<event>
      5   9999  3.19816E-02  3.80780E+01 -1.00000E+00  1.46179E-01
       2    -1     0     0   502     0  0.000000000E+00  0.000000000E+00  5.921009192E+02  5.921009192E+02  0.000000000E+00  0.00000E+00  9.000E+00
      21    -1     0     0   501   502  0.000000000E+00  0.000000000E+00 -4.251471532E+02  4.251471532E+02  0.000000000E+00  0.00000E+00  9.000E+00
      25     1     1     2     0     0 -1.405674254E+02 -3.786071328E+02  3.523593899E+01  4.242276906E+02  1.250000000E+02  0.00000E+00  9.000E+00
      25     1     1     2     0     0  1.315812232E+02  3.416046281E+02 -6.535244450E+01  3.923050882E+02  1.250000000E+02  0.00000E+00  9.000E+00
       2     1     1     2   501     0  8.986202158E+00  3.700250471E+01  1.970702715E+02  2.007152936E+02  2.697398305E-06  0.00000E+00  9.000E+00
#rwgt            1           1   2.8517666712598977E-002           8      103652           0
</event>
<event>
      5   9999  3.19816E-02  3.83618E+02 -1.00000E+00  1.02235E-01
      21    -1     0     0   502   501  0.000000000E+00  0.000000000E+00  3.859476139E+02  3.859476139E+02  0.000000000E+00  0.00000E+00  9.000E+00
      21    -1     0     0   501   511  0.000000000E+00  0.000000000E+00 -7.422342100E+02  7.422342100E+02  0.000000000E+00  0.00000E+00  9.000E+00
      25     1     1     2     0     0 -1.692589970E+02  5.560275184E+01  7.558198922E+01  2.303864388E+02  1.250000000E+02  0.00000E+00  9.000E+00
      25     1     1     2     0     0 -4.304840280E+01 -3.751158965E+02 -2.739309380E+02  4.829371176E+02  1.250000000E+02  0.00000E+00  9.000E+00
      21     1     1     2   502   511  2.123073998E+02  3.195131447E+02 -1.579376473E+02  4.148582674E+02  2.697398305E-06  0.00000E+00  9.000E+00
#rwgt            2          11   3.0417847584583270E-003           8      103751           0
</event>
<event>
      5   9999  3.19816E-02  4.50844E+01 -1.00000E+00  1.41689E-01
      21    -1     0     0   502   512  0.000000000E+00  0.000000000E+00  3.411626327E+02  3.411626327E+02  0.000000000E+00  0.00000E+00  9.000E+00
      21    -1     0     0   501   502  0.000000000E+00  0.000000000E+00 -2.742330206E+02  2.742330206E+02  0.000000000E+00  0.00000E+00  9.000E+00
      25     1     1     2     0     0 -1.507882595E+02  1.712212900E+02 -1.082768522E+02  2.817848578E+02  1.250000000E+02  0.00000E+00  9.000E+00
      25     1     1     2     0     0  1.584583107E+02 -1.267940808E+02  1.401526558E+02  2.765023365E+02  1.250000000E+02  0.00000E+00  9.000E+00
      21     1     1     2   501   512 -7.670051225E+00 -4.442720925E+01  3.505380853E+01  5.710845909E+01  8.259061849E-07  0.00000E+00  9.000E+00
#rwgt            1           1   2.9204954935421062E-002           8      103786           0
</event>
<event>
      5   9999  3.19816E-02  3.63392E+01 -1.00000E+00  1.47474E-01
      21    -1     0     0   502   501  0.000000000E+00  0.000000000E+00  1.853153756E+03  1.853153756E+03  0.000000000E+00  0.00000E+00  9.000E+00
      21    -1     0     0   501   511  0.000000000E+00  0.000000000E+00 -1.458068264E+02  1.458068264E+02  0.000000000E+00  0.00000E+00  9.000E+00
      25     1     1     2     0     0 -3.828733837E+02 -2.698960572E+02  7.247432572E+02  8.719596886E+02  1.250000000E+02  0.00000E+00  9.000E+00
      25     1     1     2     0     0  3.769654992E+02  3.057517504E+02  9.632086962E+02  1.085809888E+03  1.250000000E+02  0.00000E+00  9.000E+00
      21     1     1     2   502   511  5.907884532E+00 -3.585569321E+01  1.939497585E+01  4.119100537E+01  5.331201500E-07  0.00000E+00  9.000E+00
#rwgt            1           1   2.7938090811969182E-002           8      103889           0
</event>
<event>
      5   9999  3.19816E-02  1.05416E+02 -1.00000E+00  1.22806E-01
      21    -1     0     0   502   501  0.000000000E+00  0.000000000E+00  1.273271537E+03  1.273271537E+03  0.000000000E+00  0.00000E+00  9.000E+00
      21    -1     0     0   512   502  0.000000000E+00  0.000000000E+00 -8.422122919E+02  8.422122919E+02  0.000000000E+00  0.00000E+00  9.000E+00
      25     1     1     2     0     0  9.004392313E+02 -1.757136583E+02  2.983534476E+02  9.727825444E+02  1.250000000E+02  0.00000E+00  9.000E+00
      25     1     1     2     0     0 -1.005816226E+03  1.785633147E+02  1.116259804E+02  1.035198772E+03  1.250000000E+02  0.00000E+00  9.000E+00
      21     1     1     2   512   501  1.053769947E+02 -2.849656419E+00  2.107981719E+01  1.075025128E+02  6.307962682E-07  0.00000E+00  9.000E+00
#rwgt            1           1   3.5479404375789961E-002           8      104007           0
</event>
<event>
      5   9999  3.19816E-02  8.61344E+01 -1.00000E+00  1.26815E-01
      21    -1     0     0   511   501  0.000000000E+00  0.000000000E+00  1.266809387E+03  1.266809387E+03  0.000000000E+00  0.00000E+00  9.000E+00
      21    -1     0     0   501   502  0.000000000E+00  0.000000000E+00 -1.812966374E+02  1.812966374E+02  0.000000000E+00  0.00000E+00  9.000E+00
      25     1     1     2     0     0 -5.103580809E+01 -1.538769435E+02 -4.087080899E+01  2.087538993E+02  1.250000000E+02  0.00000E+00  9.000E+00
      25     1     1     2     0     0  1.371438881E+02  1.517485971E+02  2.092798022E+02  3.182123794E+02  1.250000000E+02  0.00000E+00  9.000E+00
      21     1     1     2   511   502 -8.610808005E+01  2.128346353E+00  9.171037567E+02  9.211397461E+02  1.078959322E-05  0.00000E+00  9.000E+00
#rwgt            1           1   2.6714428795276857E-002           8      104156           0
</event>
<event>
      5   9999  3.19816E-02  9.76854E+01 -1.00000E+00  1.24287E-01
      21    -1     0     0   512   501  0.000000000E+00  0.000000000E+00  7.327781447E+02  7.327781447E+02  0.000000000E+00  0.00000E+00  9.000E+00
      21    -1     0     0   501   502  0.000000000E+00  0.000000000E+00 -9.360519954E+02  9.360519954E+02  0.000000000E+00  0.00000E+00  9.000E+00
      25     1     1     2     0     0 -4.696594812E+02  9.676092320E+01 -6.852249540E+02  8.456364125E+02  1.250000000E+02  0.00000E+00  9.000E+00
      25     1     1     2     0     0  5.485505570E+02 -3.915340270E+01  4.463200271E+02  7.192129511E+02  1.250000000E+02  0.00000E+00  9.000E+00
      21     1     1     2   512   502 -7.889107577E+01 -5.760752050E+01  3.563107629E+01  1.039807764E+02  2.236564522E-06  0.00000E+00  9.000E+00
#rwgt            1           1   2.7337895272679928E-002           8      104212           0
</event>
<event>
      5   9999  3.19816E-02  2.22306E+01 -1.00000E+00  1.62667E-01
      -3    -1     0     0     0   501  0.000000000E+00  0.000000000E+00  7.035906157E+02  7.035906157E+02  0.000000000E+00  0.00000E+00  9.000E+00
      21    -1     0     0   501   502  0.000000000E+00  0.000000000E+00 -2.184855201E+02  2.184855201E+02  0.000000000E+00  0.00000E+00  9.000E+00
      25     1     1     2     0     0  9.398361584E+01 -1.143782549E+02 -3.298975280E+01  1.965416725E+02  1.250000000E+02  0.00000E+00  9.000E+00
      25     1     1     2     0     0 -1.057479072E+02  1.332409437E+02  6.024168340E+02  6.383312705E+02  1.250000000E+02  0.00000E+00  9.000E+00
      -3     1     1     2     0   502  1.176429138E+01 -1.886268878E+01 -8.432198560E+01  8.720319281E+01  1.651812370E-06  0.00000E+00  9.000E+00
#rwgt            1           1   2.8090789795872411E-002           8      104332           0
</event>
<event>
      5   9999  3.19816E-02  1.84788E+02 -1.00000E+00  1.12913E-01
      21    -1     0     0   502   511  0.000000000E+00  0.000000000E+00  6.329085733E+02  6.329085733E+02  0.000000000E+00  0.00000E+00  9.000E+00
      21    -1     0     0   501   502  0.000000000E+00  0.000000000E+00 -1.930079518E+02  1.930079518E+02  0.000000000E+00  0.00000E+00  9.000E+00
      25     1     1     2     0     0  9.843844497E+00  6.395951690E+01 -1.014390268E+02  1.735010007E+02  1.250000000E+02  0.00000E+00  9.000E+00
      25     1     1     2     0     0  9.328331445E+00  1.198314674E+02  2.037030783E+02  2.675192376E+02  1.250000000E+02  0.00000E+00  9.000E+00
      21     1     1     2   501   511 -1.917217594E+01 -1.837909843E+02  3.376365700E+02  3.848962869E+02  3.814697266E-06  0.00000E+00  9.000E+00
#rwgt            1           1   2.9769649264936821E-002           8      104547           0
</event>
<event>
      5   9999  3.19816E-02  7.07904E+00 -1.00000E+00  2.14867E-01
      21    -1     0     0   512   501  0.000000000E+00  0.000000000E+00  7.162181009E+02  7.162181009E+02  0.000000000E+00  0.00000E+00  9.000E+00
      21    -1     0     0   501   502  0.000000000E+00  0.000000000E+00 -3.139190244E+02  3.139190244E+02  0.000000000E+00  0.00000E+00  9.000E+00
      25     1     1     2     0     0 -2.029803478E+02  2.408164372E+02  5.325474333E+02  6.312094317E+02  1.250000000E+02  0.00000E+00  9.000E+00
      25     1     1     2     0     0  1.959314857E+02 -2.414693931E+02 -1.578327379E+02  3.704494406E+02  1.250000000E+02  0.00000E+00  9.000E+00
      21     1     1     2   512   502  7.048862098E+00  6.529558796E-01  2.758438109E+01  2.847825290E+01  5.840038640E-07  0.00000E+00  9.000E+00
#rwgt            1           1   2.8018968692178518E-002           8      104599           0
</event>
<event>
      5   9999  3.19816E-02  1.06378E+02 -1.00000E+00  1.22632E-01
      21    -1     0     0   502   501  0.000000000E+00  0.000000000E+00  1.386209104E+03  1.386209104E+03  0.000000000E+00  0.00000E+00  9.000E+00
      21    -1     0     0   511   502  0.000000000E+00  0.000000000E+00 -1.583916559E+02  1.583916559E+02  0.000000000E+00  0.00000E+00  9.000E+00
      25     1     1     2     0     0  3.008801369E+02  1.019528528E+02  3.236292592E+02  4.704084803E+02  1.250000000E+02  0.00000E+00  9.000E+00
      25     1     1     2     0     0 -3.310285897E+02  6.388520257E-02  9.007505039E+02  9.677584418E+02  1.250000000E+02  0.00000E+00  9.000E+00
      21     1     1     2   511   501  3.014845281E+01 -1.020167380E+02  3.437684535E+00  1.064338373E+02  2.255545608E-06  0.00000E+00  9.000E+00
#rwgt            2          11   3.6674988421301377E-003           8      105048           0
</event>
<event>
      5   9999  3.19816E-02  2.99448E+01 -1.00000E+00  1.53095E-01
      21    -1     0     0   512   501  0.000000000E+00  0.000000000E+00  5.859989570E+02  5.859989570E+02  0.000000000E+00  0.00000E+00  9.000E+00
      21    -1     0     0   501   502  0.000000000E+00  0.000000000E+00 -7.006210260E+01  7.006210260E+01  0.000000000E+00  0.00000E+00  9.000E+00
      25     1     1     2     0     0 -1.086855284E+01 -5.526407901E+01  4.226565886E+02  4.443375246E+02  1.250000000E+02  0.00000E+00  9.000E+00
      25     1     1     2     0     0  5.199214555E+00  2.586084662E+01  1.588433465E+01  1.287366588E+02  1.250000000E+02  0.00000E+00  9.000E+00
      21     1     1     2   512   502  5.669338283E+00  2.940323240E+01  7.739593111E+01  8.298687622E+01  0.000000000E+00  0.00000E+00  9.000E+00
#rwgt            2          11   1.7043727877614162E-003           8      105323           0
</event>
<event>
      5   9999  3.19816E-02  3.93423E+02 -1.00000E+00  1.01903E-01
      21    -1     0     0   502   511  0.000000000E+00  0.000000000E+00  9.201307286E+02  9.201307286E+02  0.000000000E+00  0.00000E+00  9.000E+00
      21    -1     0     0   501   502  0.000000000E+00  0.000000000E+00 -6.539246161E+02  6.539246161E+02  0.000000000E+00  0.00000E+00  9.000E+00
      25     1     1     2     0     0 -2.353209536E+01  3.811243512E+01  5.429620769E+02  5.589625516E+02  1.250000000E+02  0.00000E+00  9.000E+00
      25     1     1     2     0     0  4.075635639E+02  4.733850800E+01 -4.162281219E+02  5.976787118E+02  1.250000000E+02  0.00000E+00  9.000E+00
      21     1     1     2   501   511 -3.840314686E+02 -8.545094312E+01  1.394721576E+02  4.174140813E+02  3.303624740E-06  0.00000E+00  9.000E+00
#rwgt            2          11   3.1661809085131659E-003           8      105568           0
</event>
<event>
      5   9999  3.19816E-02  1.54272E+01 -1.00000E+00  1.76242E-01
      21    -1     0     0   502   501  0.000000000E+00  0.000000000E+00  6.248117455E+02  6.248117455E+02  0.000000000E+00  0.00000E+00  9.000E+00
      21    -1     0     0   512   502  0.000000000E+00  0.000000000E+00 -6.333200512E+01  6.333200512E+01  0.000000000E+00  0.00000E+00  9.000E+00
      25     1     1     2     0     0 -9.472142213E+01 -8.567725192E+01  2.793344891E+02  3.316104584E+02  1.250000000E+02  0.00000E+00  9.000E+00
      25     1     1     2     0     0  9.552127923E+01  1.010836616E+02  2.849748582E+02  3.408487806E+02  1.250000000E+02  0.00000E+00  9.000E+00
      21     1     1     2   512   501 -7.998570936E-01 -1.540640973E+01 -2.829606855E+00  1.568451170E+01  2.795705652E-07  0.00000E+00  9.000E+00
#rwgt            1           1   2.5009710790419325E-002           8      105588           0
</event>
<event>
      5   9999  3.19816E-02  1.56029E+02 -1.00000E+00  1.15719E-01
      21    -1     0     0   502   501  0.000000000E+00  0.000000000E+00  4.286683423E+02  4.286683423E+02  0.000000000E+00  0.00000E+00  9.000E+00
      21    -1     0     0   501   511  0.000000000E+00  0.000000000E+00 -1.948642962E+03  1.948642962E+03  0.000000000E+00  0.00000E+00  9.000E+00
      25     1     1     2     0     0 -5.123702330E+02  5.001097526E+02 -1.293128132E+03  1.483387470E+03  1.250000000E+02  0.00000E+00  9.000E+00
      25     1     1     2     0     0  4.698747603E+02 -3.499788295E+02  2.282097426E+01  5.995108576E+02  1.250000000E+02  0.00000E+00  9.000E+00
      21     1     1     2   502   511  4.249547278E+01 -1.501309230E+02 -2.496674613E+02  2.944129761E+02  0.000000000E+00  0.00000E+00  9.000E+00
#rwgt            1           1   2.0343191569342597E-002           8      105729           0
</event>
<event>
      5   9999  3.19816E-02  3.63146E+01 -1.00000E+00  1.47493E-01
      21    -1     0     0   512   501  0.000000000E+00  0.000000000E+00  8.368349416E+02  8.368349416E+02  0.000000000E+00  0.00000E+00  9.000E+00
      21    -1     0     0   501   502  0.000000000E+00  0.000000000E+00 -5.582582720E+02  5.582582720E+02  0.000000000E+00  0.00000E+00  9.000E+00
      25     1     1     2     0     0  5.850271648E+02 -2.531296726E+02  2.438469380E+02  6.938427371E+02  1.250000000E+02  0.00000E+00  9.000E+00
      25     1     1     2     0     0 -5.800177910E+02  2.890971226E+02  1.559138753E+01  6.602013902E+02  1.250000000E+02  0.00000E+00  9.000E+00
      21     1     1     2   512   502 -5.009373705E+00 -3.596744998E+01  1.913834410E+01  4.104908644E+01  8.920806376E-07  0.00000E+00  9.000E+00
#rwgt            1           1   3.1498203561140532E-002           8      105840           0
</event>
<event>
      5   9999  3.19816E-02  6.58951E+01 -1.00000E+00  1.32564E-01
      21    -1     0     0   502   511  0.000000000E+00  0.000000000E+00  9.552995586E+02  9.552995586E+02  0.000000000E+00  0.00000E+00  9.000E+00
      21    -1     0     0   501   502  0.000000000E+00  0.000000000E+00 -2.051577099E+02  2.051577099E+02  0.000000000E+00  0.00000E+00  9.000E+00
      25     1     1     2     0     0  2.241039405E+02 -1.936770324E+02  7.362731570E+01  3.298171473E+02  1.250000000E+02  0.00000E+00  9.000E+00
      25     1     1     2     0     0 -2.243628861E+02  1.277824004E+02  2.002672358E+02  3.498557020E+02  1.250000000E+02  0.00000E+00  9.000E+00
      21     1     1     2   501   511  2.589455488E-01  6.589463197E+01  4.762472972E+02  4.807844191E+02  0.000000000E+00  0.00000E+00  9.000E+00
#rwgt            2          11   1.5072043565583675E-003           8      106092           0
</event>
<event>
      5   9999  3.19816E-02  5.28645E+02 -1.00000E+00  9.81695E-02
      21    -1     0     0   502   512  0.000000000E+00  0.000000000E+00  4.208991572E+02  4.208991572E+02  0.000000000E+00  0.00000E+00  9.000E+00
      21    -1     0     0   501   502  0.000000000E+00  0.000000000E+00 -1.479774703E+03  1.479774703E+03  0.000000000E+00  0.00000E+00  9.000E+00
      25     1     1     2     0     0  4.337671690E+01 -2.546451836E+01 -1.172756948E+02  1.786297004E+02  1.250000000E+02  0.00000E+00  9.000E+00
      25     1     1     2     0     0 -2.306067419E+02  5.198430090E+02 -1.032762538E+03  1.185596763E+03  1.250000000E+02  0.00000E+00  9.000E+00
      21     1     1     2   501   512  1.872300250E+02 -4.943784906E+02  9.116268731E+01  5.364473971E+02  1.236103191E-05  0.00000E+00  9.000E+00
#rwgt            2          11   4.7786641406024968E-003           8      106157           0
</event>
<event>
      5   9999  3.19816E-02  1.28266E+02 -1.00000E+00  1.19153E-01
      21    -1     0     0   502   501  0.000000000E+00  0.000000000E+00  5.622260146E+02  5.622260146E+02  0.000000000E+00  0.00000E+00  9.000E+00
      21    -1     0     0   511   502  0.000000000E+00  0.000000000E+00 -4.027616030E+02  4.027616030E+02  0.000000000E+00  0.00000E+00  9.000E+00
      25     1     1     2     0     0 -2.084946616E+02 -1.919795679E+02  2.728719920E+02  4.128078275E+02  1.250000000E+02  0.00000E+00  9.000E+00
      25     1     1     2     0     0  1.837522866E+02  3.178365503E+02 -1.089247823E+01  3.879801820E+02  1.250000000E+02  0.00000E+00  9.000E+00
      21     1     1     2   511   501  2.474237502E+01 -1.258569823E+02 -1.025151022E+02  1.641996081E+02  4.046097457E-06  0.00000E+00  9.000E+00
#rwgt            1           1   2.8075774631664035E-002           8      106192           0
</event>
<event>
      5   9999  3.19816E-02  2.07005E+01 -1.00000E+00  1.65145E-01
      21    -1     0     0   502   501  0.000000000E+00  0.000000000E+00  1.194830636E+02  1.194830636E+02  0.000000000E+00  0.00000E+00  9.000E+00
      21    -1     0     0   512   502  0.000000000E+00  0.000000000E+00 -1.436483976E+03  1.436483976E+03  0.000000000E+00  0.00000E+00  9.000E+00
      25     1     1     2     0     0  3.188905023E+02  1.770792361E+00 -3.640541304E+02  4.998546769E+02  1.250000000E+02  0.00000E+00  9.000E+00
      25     1     1     2     0     0 -3.112794877E+02  1.747972159E+01 -4.979761064E+02  6.006710104E+02  1.250000000E+02  0.00000E+00  9.000E+00
      21     1     1     2   512   501 -7.611014517E+00 -1.925051395E+01 -4.549706755E+02  4.554413523E+02  7.629394531E-06  0.00000E+00  9.000E+00
#rwgt            1           1   2.8937421088769323E-002           8      106252           0
</event>
<event>
      5   9999  3.19816E-02  8.09996E+01 -1.00000E+00  1.28089E-01
      21    -1     0     0   502   501  0.000000000E+00  0.000000000E+00  2.791901030E+02  2.791901030E+02  0.000000000E+00  0.00000E+00  9.000E+00
      21    -1     0     0   511   502  0.000000000E+00  0.000000000E+00 -3.506152378E+02  3.506152378E+02  0.000000000E+00  0.00000E+00  9.000E+00
      25     1     1     2     0     0  6.741618180E+01 -2.832281284E+01  1.953171817E+02  2.431479483E+02  1.250000000E+02  0.00000E+00  9.000E+00
      25     1     1     2     0     0 -1.432892759E+02 -3.585106446E-02 -2.279526376E+02  2.968488216E+02  1.250000000E+02  0.00000E+00  9.000E+00
      21     1     1     2   511   501  7.587309414E+01  2.835866391E+01 -3.878967883E+01  8.980857095E+01  4.768371582E-07  0.00000E+00  9.000E+00
#rwgt            1           1   2.7399040094714930E-002           8      106400           0
</event>
<event>
      5   9999  3.19816E-02  4.78507E+01 -1.00000E+00  1.40173E-01
      21    -1     0     0   502   501  0.000000000E+00  0.000000000E+00  9.625550640E+01  9.625550640E+01  0.000000000E+00  0.00000E+00  9.000E+00
      21    -1     0     0   501   512  0.000000000E+00  0.000000000E+00 -1.105248771E+03  1.105248771E+03  0.000000000E+00  0.00000E+00  9.000E+00
      25     1     1     2     0     0  1.990933713E+02  1.419198710E+02 -2.388086258E+02  3.639147978E+02  1.250000000E+02  0.00000E+00  9.000E+00
      25     1     1     2     0     0 -2.288966450E+02 -1.044838047E+02 -6.718980307E+02  7.282736458E+02  1.250000000E+02  0.00000E+00  9.000E+00
      21     1     1     2   502   512  2.980327374E+01 -3.743606626E+01 -9.828660767E+01  1.093158334E+02  1.348699152E-06  0.00000E+00  9.000E+00
#rwgt            1           1   3.0603820447188578E-002           8      106496           0
</event>
<event>
      5   9999  3.19816E-02  1.29331E+01 -1.00000E+00  1.83672E-01
      21    -1     0     0   502   501  0.000000000E+00  0.000000000E+00  5.073361822E+02  5.073361822E+02  0.000000000E+00  0.00000E+00  9.000E+00
      21    -1     0     0   511   502  0.000000000E+00  0.000000000E+00 -5.028011778E+02  5.028011778E+02  0.000000000E+00  0.00000E+00  9.000E+00
      25     1     1     2     0     0  1.848710565E+00 -4.771141920E+02  1.030762050E+02  5.038760502E+02  1.250000000E+02  0.00000E+00  9.000E+00
      25     1     1     2     0     0  3.580781088E+00  4.653759322E+02 -8.863000052E+01  4.899672002E+02  1.250000000E+02  0.00000E+00  9.000E+00
      21     1     1     2   511   501 -5.429491653E+00  1.173825984E+01 -9.911200027E+00  1.629410966E+01  1.192092896E-07  0.00000E+00  9.000E+00
#rwgt            1           1   2.6940660271701306E-002           8      106600           0
</event>
<event>
      5   9999  3.19816E-02  4.62899E+01 -1.00000E+00  1.41013E-01
      21    -1     0     0   502   512  0.000000000E+00  0.000000000E+00  8.684506458E+01  8.684506458E+01  0.000000000E+00  0.00000E+00  9.000E+00
      21    -1     0     0   501   502  0.000000000E+00  0.000000000E+00 -1.413306460E+03  1.413306460E+03  0.000000000E+00  0.00000E+00  9.000E+00
      25     1     1     2     0     0 -1.882032456E+02  5.685722858E+01 -1.169152339E+03  1.192139001E+03  1.250000000E+02  0.00000E+00  9.000E+00
      25     1     1     2     0     0  1.457122072E+02 -7.522198498E+01 -8.691490006E+01  2.237623610E+02  1.250000000E+02  0.00000E+00  9.000E+00
      21     1     1     2   501   512  4.249103832E+01  1.836475640E+01 -7.039415595E+01  8.425016206E+01  1.348699152E-06  0.00000E+00  9.000E+00
#rwgt            1           1   2.4989725331768731E-002           8      106856           0
</event>
<event>
      5   9999  3.19816E-02  3.96576E+01 -1.00000E+00  1.45072E-01
      21    -1     0     0   502   501  0.000000000E+00  0.000000000E+00  3.924775533E+02  3.924775533E+02  0.000000000E+00  0.00000E+00  9.000E+00
      21    -1     0     0   511   502  0.000000000E+00  0.000000000E+00 -1.054748174E+03  1.054748174E+03  0.000000000E+00  0.00000E+00  9.000E+00
      25     1     1     2     0     0 -9.983875110E+01 -1.457245313E+02  3.346448918E+02  3.985167736E+02  1.250000000E+02  0.00000E+00  9.000E+00
      25     1     1     2     0     0  1.341817267E+02  1.655558611E+02 -9.695334001E+02  1.000516613E+03  1.250000000E+02  0.00000E+00  9.000E+00
      21     1     1     2   511   501 -3.434297555E+01 -1.983132983E+01 -2.738211231E+01  4.819234054E+01  9.536743164E-07  0.00000E+00  9.000E+00
#rwgt            1           1   2.9416720954269324E-002           8      106950           0
</event>
<event>
      5   9999  3.19816E-02  7.49203E+01 -1.00000E+00  1.29744E-01
      21    -1     0     0   502   501  0.000000000E+00  0.000000000E+00  3.147616187E+02  3.147616187E+02  0.000000000E+00  0.00000E+00  9.000E+00
      21    -1     0     0   512   502  0.000000000E+00  0.000000000E+00 -8.819616195E+02  8.819616195E+02  0.000000000E+00  0.00000E+00  9.000E+00
      25     1     1     2     0     0 -4.146805588E+01  3.288556713E+02 -6.104701754E+02  7.058076844E+02  1.250000000E+02  0.00000E+00  9.000E+00
      25     1     1     2     0     0  1.127994408E+02 -3.517661225E+02  9.309218765E+01  4.009417342E+02  1.250000000E+02  0.00000E+00  9.000E+00
      21     1     1     2   512   501 -7.133138488E+01  2.291045119E+01 -4.982201300E+01  8.997381965E+01  6.743495762E-07  0.00000E+00  9.000E+00
#rwgt            1           1   3.3778868146798632E-002           8      107091           0
</event>
<event>
      5   9999  3.19816E-02  1.22959E+01 -1.00000E+00  1.85922E-01
      21    -1     0     0   502   501  0.000000000E+00  0.000000000E+00  1.402372988E+03  1.402372988E+03  0.000000000E+00  0.00000E+00  9.000E+00
      21    -1     0     0   501   511  0.000000000E+00  0.000000000E+00 -6.011254906E+02  6.011254906E+02  0.000000000E+00  0.00000E+00  9.000E+00
      25     1     1     2     0     0 -5.620183041E+02 -3.127250153E+02  5.337352662E+02  8.450797854E+02  1.250000000E+02  0.00000E+00  9.000E+00
      25     1     1     2     0     0  5.725624824E+02  3.063996627E+02  5.594580255E+02  8.662140797E+02  1.250000000E+02  0.00000E+00  9.000E+00
      21     1     1     2   502   511 -1.054417836E+01  6.325352545E+00 -2.919457939E+02  2.922046139E+02  6.607249480E-06  0.00000E+00  9.000E+00
#rwgt            1           1   2.9091013125980565E-002           8      107215           0
</event>
<event>
      5   9999  3.19816E-02  3.38594E+01 -1.00000E+00  1.49477E-01
      21    -1     0     0   502   501  0.000000000E+00  0.000000000E+00  5.273354818E+02  5.273354818E+02  0.000000000E+00  0.00000E+00  9.000E+00
      21    -1     0     0   501   512  0.000000000E+00  0.000000000E+00 -1.361226704E+02  1.361226704E+02  0.000000000E+00  0.00000E+00  9.000E+00
      25     1     1     2     0     0  2.456776883E+01  1.255715251E+02  1.029940764E+02  2.064087279E+02  1.250000000E+02  0.00000E+00  9.000E+00
      25     1     1     2     0     0 -3.035584615E+01 -9.221046783E+01  3.513831482E+02  3.853821021E+02  1.250000000E+02  0.00000E+00  9.000E+00
      21     1     1     2   502   512  5.788077325E+00 -3.336105727E+01 -6.316441323E+01  7.166732226E+01  2.336015456E-06  0.00000E+00  9.000E+00
#rwgt            1           1   2.8574749367325583E-002           8      107525           0
</event>
<event>
      5   9999  3.19816E-02  9.37063E+00 -1.00000E+00  1.99078E-01
      21    -1     0     0   502   501  0.000000000E+00  0.000000000E+00  1.113417736E+03  1.113417736E+03  0.000000000E+00  0.00000E+00  9.000E+00
      21    -1     0     0   501   511  0.000000000E+00  0.000000000E+00 -7.017614561E+01  7.017614561E+01  0.000000000E+00  0.00000E+00  9.000E+00
      25     1     1     2     0     0  6.898958588E+01  1.240351985E+02  9.307674302E+01  2.107903544E+02  1.250000000E+02  0.00000E+00  9.000E+00
      25     1     1     2     0     0 -6.456994177E+01 -1.322980970E+02  9.366833579E+02  9.563852659E+02  1.250000000E+02  0.00000E+00  9.000E+00
      21     1     1     2   502   511 -4.419644111E+00  8.262898443E+00  1.348148944E+01  1.641826125E+01  1.685873940E-07  0.00000E+00  9.000E+00
#rwgt            1           1   2.3781843169108547E-002           8      107637           0
</event>
<event>
      5   9999  3.19816E-02  3.42803E+01 -1.00000E+00  1.49123E-01
      21    -1     0     0   502   501  0.000000000E+00  0.000000000E+00  2.111124804E+02  2.111124804E+02  0.000000000E+00  0.00000E+00  9.000E+00
      21    -1     0     0   501   512  0.000000000E+00  0.000000000E+00 -3.430278777E+02  3.430278777E+02  0.000000000E+00  0.00000E+00  9.000E+00
      25     1     1     2     0     0  2.264199002E+02  3.045133015E+01 -4.145729515E+01  2.636986198E+02  1.250000000E+02  0.00000E+00  9.000E+00
      25     1     1     2     0     0 -1.923592951E+02 -3.432578741E+01 -4.977240060E+01  2.372396466E+02  1.250000000E+02  0.00000E+00  9.000E+00
      21     1     1     2   502   512 -3.406060519E+01  3.874457257E+00 -4.068570153E+01  5.320209163E+01  0.000000000E+00  0.00000E+00  9.000E+00
#rwgt            1           1   2.6858514975780002E-002           8      107883           0
</event>
<event>
      5   9999  3.19816E-02  4.20985E+01 -1.00000E+00  1.43476E-01
      21    -1     0     0   502   501  0.000000000E+00  0.000000000E+00  3.736451150E+02  3.736451150E+02  0.000000000E+00  0.00000E+00  9.000E+00
      21    -1     0     0   501   511  0.000000000E+00  0.000000000E+00 -5.120598839E+02  5.120598839E+02  0.000000000E+00  0.00000E+00  9.000E+00
      25     1     1     2     0     0 -2.241144185E+02 -1.233791472E+02  1.891723519E+02  3.418491850E+02  1.250000000E+02  0.00000E+00  9.000E+00
      25     1     1     2     0     0  1.834102035E+02  1.341238239E+02 -5.127268830E+01  2.643527784E+02  1.250000000E+02  0.00000E+00  9.000E+00
      21     1     1     2   502   511  4.070421506E+01 -1.074467668E+01 -2.763144325E+02  2.795030354E+02  0.000000000E+00  0.00000E+00  9.000E+00
#rwgt            1           1   2.7983110593173662E-002           8      108021           0
</event>
<event>
      5   9999  3.19816E-02  7.32975E+02 -1.00000E+00  9.43512E-02
       1    -1     0     0   502     0  0.000000000E+00  0.000000000E+00  1.234463724E+03  1.234463724E+03  0.000000000E+00  0.00000E+00  9.000E+00
      21    -1     0     0   501   502  0.000000000E+00  0.000000000E+00 -8.041856762E+02  8.041856762E+02  0.000000000E+00  0.00000E+00  9.000E+00
      25     1     1     2     0     0  2.124746051E+02  1.750588486E+02  1.542770298E+01  3.027442358E+02  1.250000000E+02  0.00000E+00  9.000E+00
      25     1     1     2     0     0 -2.520175837E+02 -9.069664948E+02  2.856874456E+02  9.916367287E+02  1.250000000E+02  0.00000E+00  9.000E+00
       1     1     1     2   501     0  3.954297854E+01  7.319076462E+02  1.291628991E+02  7.442684356E+02  1.607160525E-05  0.00000E+00  9.000E+00
#rwgt            2          17   2.0235739829527218E-004           8      108236           0
</event>
<event>
      5   9999  3.19816E-02  3.06867E+01 -1.00000E+00  1.52360E-01
      21    -1     0     0   502   501  0.000000000E+00  0.000000000E+00  4.492429325E+02  4.492429325E+02  0.000000000E+00  0.00000E+00  9.000E+00
      21    -1     0     0   511   502  0.000000000E+00  0.000000000E+00 -7.511704293E+02  7.511704293E+02  0.000000000E+00  0.00000E+00  9.000E+00
      25     1     1     2     0     0  4.314149526E+02  2.207410048E+02  1.508740910E+02  5.227173652E+02  1.250000000E+02  0.00000E+00  9.000E+00
      25     1     1     2     0     0 -4.107304052E+02 -1.980733205E+02 -4.159397428E+02  6.297327812E+02  1.250000000E+02  0.00000E+00  9.000E+00
      21     1     1     2   511   501 -2.068454743E+01 -2.266768429E+01 -3.686184502E+01  4.796321540E+01  0.000000000E+00  0.00000E+00  9.000E+00
#rwgt            1           1   3.1612655630407181E-002           8      108255           0
</event>
<event>
      5   9999  3.19816E-02  5.32294E+01 -1.00000E+00  1.37542E-01
      21    -1     0     0   502   501  0.000000000E+00  0.000000000E+00  9.389385261E+01  9.389385261E+01  0.000000000E+00  0.00000E+00  9.000E+00
      21    -1     0     0   512   502  0.000000000E+00  0.000000000E+00 -1.865457363E+03  1.865457363E+03  0.000000000E+00  0.00000E+00  9.000E+00
      25     1     1     2     0     0  2.036205288E+02 -2.002443748E+01 -1.037265404E+02  2.612402975E+02  1.250000000E+02  0.00000E+00  9.000E+00
      25     1     1     2     0     0 -2.242142347E+02  6.910877138E+01 -1.369997039E+03  1.395551838E+03  1.250000000E+02  0.00000E+00  9.000E+00
      21     1     1     2   512   501  2.059370584E+01 -4.908433390E+01 -2.978399314E+02  3.025590807E+02  0.000000000E+00  0.00000E+00  9.000E+00
#rwgt            1           1   2.8988100223249789E-002           8      108411           0
</event>
<event>
      5   9999  3.19816E-02  9.99421E+01 -1.00000E+00  1.23839E-01
      21    -1     0     0   511   501  0.000000000E+00  0.000000000E+00  1.001625324E+03  1.001625324E+03  0.000000000E+00  0.00000E+00  9.000E+00
      21    -1     0     0   501   502  0.000000000E+00  0.000000000E+00 -2.715134655E+02  2.715134655E+02  0.000000000E+00  0.00000E+00  9.000E+00
      25     1     1     2     0     0 -3.623693923E+02  1.483871524E+02  1.205192048E+02  4.283458908E+02  1.250000000E+02  0.00000E+00  9.000E+00
      25     1     1     2     0     0  4.351116551E+02 -7.985254871E+01  3.874357510E+02  6.011905215E+02  1.250000000E+02  0.00000E+00  9.000E+00
      21     1     1     2   511   502 -7.274226282E+01 -6.853460370E+01  2.221569025E+02  2.436023769E+02  3.814697266E-06  0.00000E+00  9.000E+00
#rwgt            1           1   3.0170334511801889E-002           8      108493           0
</event>
<event>
      5   9999  3.19816E-02  1.08821E+02 -1.00000E+00  1.22199E-01
      21    -1     0     0   502   501  0.000000000E+00  0.000000000E+00  8.245958138E+02  8.245958138E+02  0.000000000E+00  0.00000E+00  9.000E+00
      21    -1     0     0   501   512  0.000000000E+00  0.000000000E+00 -4.731497883E+02  4.731497883E+02  0.000000000E+00  0.00000E+00  9.000E+00
      25     1     1     2     0     0 -4.719628239E+02  2.579746016E+02  2.803503799E+02  6.192908346E+02  1.250000000E+02  0.00000E+00  9.000E+00
      25     1     1     2     0     0  3.744901882E+02 -3.063604726E+02  1.735394687E+02  5.289996101E+02  1.250000000E+02  0.00000E+00  9.000E+00
      21     1     1     2   502   512  9.747263573E+01  4.838587103E+01 -1.024438231E+02  1.494551575E+02  1.907348633E-06  0.00000E+00  9.000E+00
#rwgt            2          11   3.5811124835847604E-003           8      108856           0
</event>
<event>
      5   9999  3.19816E-02  6.71854E+01 -1.00000E+00  1.32130E-01
       2    -1     0     0   502     0  0.000000000E+00  0.000000000E+00  1.871182162E+03  1.871182162E+03  0.000000000E+00  0.00000E+00  9.000E+00
      21    -1     0     0   501   502  0.000000000E+00  0.000000000E+00 -7.938410172E+02  7.938410172E+02  0.000000000E+00  0.00000E+00  9.000E+00
      25     1     1     2     0     0  2.090373031E+01  1.908413444E+02 -7.125664757E+02  7.484873860E+02  1.250000000E+02  0.00000E+00  9.000E+00
      25     1     1     2     0     0 -7.586153585E+01 -1.521953032E+02  1.151331907E+02  2.404142977E+02  1.250000000E+02  0.00000E+00  9.000E+00
       2     1     1     2   501     0  5.495780554E+01 -3.864604118E+01  1.674774430E+03  1.676121496E+03  2.157918644E-05  0.00000E+00  9.000E+00
#rwgt            1           1   3.2679702384268441E-002           8      108891           0
</event>
<event>
      5   9999  3.19816E-02  1.25479E+01 -1.00000E+00  1.85012E-01
      21    -1     0     0   511   501  0.000000000E+00  0.000000000E+00  8.445662303E+02  8.445662303E+02  0.000000000E+00  0.00000E+00  9.000E+00
      21    -1     0     0   501   502  0.000000000E+00  0.000000000E+00 -2.115521079E+02  2.115521079E+02  0.000000000E+00  0.00000E+00  9.000E+00
      25     1     1     2     0     0 -6.660389572E+01 -3.678932398E+02  1.411045407E+02  4.187087367E+02  1.250000000E+02  0.00000E+00  9.000E+00
      25     1     1     2     0     0  7.753660976E+01  3.617347724E+02  4.616823116E+02  6.046813444E+02  1.250000000E+02  0.00000E+00  9.000E+00
      21     1     1     2   511   502 -1.093271404E+01  6.158467410E+00  3.022727006E+01  3.272825709E+01  4.768371582E-07  0.00000E+00  9.000E+00
#rwgt            1           1   2.8685772785585730E-002           8      109001           0
</event>
<event>
      5   9999  3.19816E-02  1.65426E+02 -1.00000E+00  1.14733E-01
      21    -1     0     0   502   501  0.000000000E+00  0.000000000E+00  7.836435419E+02  7.836435419E+02  0.000000000E+00  0.00000E+00  9.000E+00
      21    -1     0     0   501   512  0.000000000E+00  0.000000000E+00 -2.201642311E+02  2.201642311E+02  0.000000000E+00  0.00000E+00  9.000E+00
      25     1     1     2     0     0  8.915568333E+01 -6.322043280E+01 -3.192621996E+01  1.690853113E+02  1.250000000E+02  0.00000E+00  9.000E+00
      25     1     1     2     0     0 -5.432398549E+01  2.249380694E+02  6.142863507E+02  6.682222319E+02  1.250000000E+02  0.00000E+00  9.000E+00
      21     1     1     2   502   512 -3.483169784E+01 -1.617176366E+02 -1.888081999E+01  1.665002298E+02  3.006343892E-06  0.00000E+00  9.000E+00
#rwgt            2          11   3.3593664055046844E-003           8      109286           0
</event>
<event>
      5   9999  3.19816E-02  2.96886E+01 -1.00000E+00  1.53355E-01
      21    -1     0     0   511   501  0.000000000E+00  0.000000000E+00  1.710451390E+02  1.710451390E+02  0.000000000E+00  0.00000E+00  9.000E+00
      21    -1     0     0   501   502  0.000000000E+00  0.000000000E+00 -1.283917551E+03  1.283917551E+03  0.000000000E+00  0.00000E+00  9.000E+00
      25     1     1     2     0     0 -1.771259776E+02  1.417851901E+02 -4.833726054E+02  5.484074469E+02  1.250000000E+02  0.00000E+00  9.000E+00
      25     1     1     2     0     0  1.823363902E+02 -1.710129888E+02 -7.405855993E+02  7.915706105E+02  1.250000000E+02  0.00000E+00  9.000E+00
      21     1     1     2   511   502 -5.210412570E+00  2.922779868E+01  1.110857923E+02  1.149846332E+02  3.015782986E-06  0.00000E+00  9.000E+00
#rwgt            1           1   2.7716711123325119E-002           8      109321           0
</event>
<event>
      5   9999  3.19816E-02  4.81184E+01 -1.00000E+00  1.40033E-01
      21    -1     0     0   502   501  0.000000000E+00  0.000000000E+00  8.400693927E+02  8.400693927E+02  0.000000000E+00  0.00000E+00  9.000E+00
      21    -1     0     0   501   512  0.000000000E+00  0.000000000E+00 -3.556241981E+02  3.556241981E+02  0.000000000E+00  0.00000E+00  9.000E+00
      25     1     1     2     0     0  2.338974975E+02  3.842307169E+02 -2.736857401E+01  4.676700995E+02  1.250000000E+02  0.00000E+00  9.000E+00
      25     1     1     2     0     0 -2.698254601E+02 -3.522219566E+02  4.965678719E+02  6.775475903E+02  1.250000000E+02  0.00000E+00  9.000E+00
      21     1     1     2   502   512  3.592796255E+01 -3.200876025E+01  1.524589667E+01  5.047590110E+01  5.331201500E-07  0.00000E+00  9.000E+00
#rwgt            1           1   2.9974719330673201E-002           8      109499           0
</event>
<event>
      5   9999  3.19816E-02  2.31073E+02 -1.00000E+00  1.09411E-01
       2    -1     0     0   502     0  0.000000000E+00  0.000000000E+00  2.433354185E+03  2.433354185E+03  0.000000000E+00  0.00000E+00  9.000E+00
      21    -1     0     0   501   502  0.000000000E+00  0.000000000E+00 -3.111528741E+02  3.111528741E+02  0.000000000E+00  0.00000E+00  9.000E+00
      25     1     1     2     0     0  7.882093162E+01  1.842024622E+01  8.463441159E+02  8.593459183E+02  1.250000000E+02  0.00000E+00  9.000E+00
      25     1     1     2     0     0  1.487787037E+02  2.149525487E+01 -2.637511149E+02  3.283089997E+02  1.250000000E+02  0.00000E+00  9.000E+00
       2     1     1     2   501     0 -2.275996353E+02 -3.991550109E+01  1.539608310E+03  1.556852141E+03  2.157918644E-05  0.00000E+00  9.000E+00
#rwgt            2          18   1.7227478098626329E-003           8      109619           0
</event>
<event>
      5   9999  3.19816E-02  5.98580E+01 -1.00000E+00  1.34758E-01
      21    -1     0     0   502   501  0.000000000E+00  0.000000000E+00  3.475531266E+02  3.475531266E+02  0.000000000E+00  0.00000E+00  9.000E+00
      21    -1     0     0   511   502  0.000000000E+00  0.000000000E+00 -1.713016829E+02  1.713016829E+02  0.000000000E+00  0.00000E+00  9.000E+00
      25     1     1     2     0     0 -1.281554173E+02  5.333150132E+01  2.277818188E+02  2.945804084E+02  1.250000000E+02  0.00000E+00  9.000E+00
      25     1     1     2     0     0  7.081948577E+01 -3.613930468E+01 -4.604135525E+00  1.482148676E+02  1.250000000E+02  0.00000E+00  9.000E+00
      21     1     1     2   511   501  5.733593151E+01 -1.719219663E+01 -4.692623970E+01  7.605953352E+01  1.168007728E-06  0.00000E+00  9.000E+00
#rwgt            1           1   2.5434822925681794E-002           8      109638           0
</event>
<event>
      5   9999  3.19816E-02  2.66588E+02 -1.00000E+00  1.07285E-01
      21    -1     0     0   512   501  0.000000000E+00  0.000000000E+00  7.326367529E+02  7.326367529E+02  0.000000000E+00  0.00000E+00  9.000E+00
      21    -1     0     0   501   502  0.000000000E+00  0.000000000E+00 -3.368071949E+02  3.368071949E+02  0.000000000E+00  0.00000E+00  9.000E+00
      25     1     1     2     0     0 -3.873028817E+02  1.184397794E+02 -2.466195342E+01  4.245759243E+02  1.250000000E+02  0.00000E+00  9.000E+00
      25     1     1     2     0     0  1.771495257E+02  4.558636834E+01  1.727858044E+02  2.809626409E+02  1.250000000E+02  0.00000E+00  9.000E+00
      21     1     1     2   512   502  2.101533561E+02 -1.640261477E+02  2.477057070E+02  3.639053826E+02  2.697398305E-06  0.00000E+00  9.000E+00
#rwgt            2          11   2.8102015575574763E-003           8      109694           0
</event>
<event>
      5   9999  3.19816E-02  3.78404E+01 -1.00000E+00  1.46351E-01
      21    -1     0     0   502   501  0.000000000E+00  0.000000000E+00  1.049852427E+03  1.049852427E+03  0.000000000E+00  0.00000E+00  9.000E+00
      21    -1     0     0   501   511  0.000000000E+00  0.000000000E+00 -1.292543780E+02  1.292543780E+02  0.000000000E+00  0.00000E+00  9.000E+00
      25     1     1     2     0     0 -3.007944818E+02 -1.118678474E+02  3.929195798E+02  5.224964418E+02  1.250000000E+02  0.00000E+00  9.000E+00
      25     1     1     2     0     0  3.197801243E+02  7.913491711E+01  4.864366563E+02  6.006390627E+02  1.250000000E+02  0.00000E+00  9.000E+00
      21     1     1     2   502   511 -1.898564251E+01  3.273293025E+01  4.124181252E+01  5.597130019E+01  8.259061849E-07  0.00000E+00  9.000E+00
#rwgt            1           1   2.9074068137398011E-002           8      109744           0
</event>
<event>
      5   9999  3.19816E-02  2.67662E+01 -1.00000E+00  1.56562E-01
      21    -1     0     0   512   501  0.000000000E+00  0.000000000E+00  8.789632902E+02  8.789632902E+02  0.000000000E+00  0.00000E+00  9.000E+00
      21    -1     0     0   501   502  0.000000000E+00  0.000000000E+00 -1.000492172E+03  1.000492172E+03  0.000000000E+00  0.00000E+00  9.000E+00
      25     1     1     2     0     0 -7.690930767E+02  2.637997662E+02 -3.119260256E+02  8.797825429E+02  1.250000000E+02  0.00000E+00  9.000E+00
      25     1     1     2     0     0  7.734509561E+02 -2.373907448E+02  1.145610391E+01  8.187411005E+02  1.250000000E+02  0.00000E+00  9.000E+00
      21     1     1     2   512   502 -4.357879404E+00 -2.640902141E+01  1.789410396E+02  1.809318191E+02  0.000000000E+00  0.00000E+00  9.000E+00
#rwgt            1           1   2.9173648363679285E-002           8      109875           0
</event>
<event>
      5   9999  3.19816E-02  5.38836E+01 -1.00000E+00  1.37247E-01
      21    -1     0     0   511   501  0.000000000E+00  0.000000000E+00  5.812568409E+02  5.812568409E+02  0.000000000E+00  0.00000E+00  9.000E+00
      21    -1     0     0   501   502  0.000000000E+00  0.000000000E+00 -1.658778840E+03  1.658778840E+03  0.000000000E+00  0.00000E+00  9.000E+00
      25     1     1     2     0     0  7.434080436E+02 -4.679501068E+02 -2.336920692E+02  9.175346342E+02  1.250000000E+02  0.00000E+00  9.000E+00
      25     1     1     2     0     0 -6.939328687E+02  4.892960231E+02 -9.007249474E+02  1.244139805E+03  1.250000000E+02  0.00000E+00  9.000E+00
      21     1     1     2   511   502 -4.947517487E+01 -2.134591628E+01  5.689501776E+01  7.836124117E+01  6.743495762E-07  0.00000E+00  9.000E+00
#rwgt            1           1   2.9336646065947547E-002           8      110066           0
</event>
<event>
      5   9999  3.19816E-02  9.92195E+01 -1.00000E+00  1.23981E-01
      21    -1     0     0   502   501  0.000000000E+00  0.000000000E+00  1.679184499E+03  1.679184499E+03  0.000000000E+00  0.00000E+00  9.000E+00
       1    -1     0     0   501     0  0.000000000E+00  0.000000000E+00 -3.833570002E+02  3.833570002E+02  0.000000000E+00  0.00000E+00  9.000E+00
      25     1     1     2     0     0  4.568120728E+02  1.658032083E+02  8.870310214E+02  1.019125609E+03  1.250000000E+02  0.00000E+00  9.000E+00
      25     1     1     2     0     0 -5.375155809E+02 -2.235219916E+02  5.891190992E+02  8.375985873E+02  1.250000000E+02  0.00000E+00  9.000E+00
       1     1     1     2   502     0  8.070350803E+01  5.771878338E+01 -1.803226220E+02  2.058173029E+02  2.697398305E-06  0.00000E+00  9.000E+00
#rwgt            1           1   2.8660523877729917E-002           8      110194           0
</event>
<event>
      5   9999  3.19816E-02  1.08804E+01 -1.00000E+00  1.91614E-01
      21    -1     0     0   511   501  0.000000000E+00  0.000000000E+00  4.164272854E+02  4.164272854E+02  0.000000000E+00  0.00000E+00  9.000E+00
      21    -1     0     0   501   502  0.000000000E+00  0.000000000E+00 -2.075102425E+02  2.075102425E+02  0.000000000E+00  0.00000E+00  9.000E+00
      25     1     1     2     0     0  1.519464072E+02  1.708735447E+02  1.927186577E+02  3.241156583E+02  1.250000000E+02  0.00000E+00  9.000E+00
      25     1     1     2     0     0 -1.592098662E+02 -1.789745233E+02 -1.111380240E+01  2.704222219E+02  1.250000000E+02  0.00000E+00  9.000E+00
      21     1     1     2   511   502  7.263459007E+00  8.100978580E+00  2.731218761E+01  2.939964766E+01  0.000000000E+00  0.00000E+00  9.000E+00
#rwgt            1           1   2.8628535602776839E-002           8      110278           0
</event>
<event>
      5   9999  3.19816E-02  1.92383E+02 -1.00000E+00  1.12265E-01
      21    -1     0     0   502   501  0.000000000E+00  0.000000000E+00  3.782108243E+02  3.782108243E+02  0.000000000E+00  0.00000E+00  9.000E+00
      21    -1     0     0   512   502  0.000000000E+00  0.000000000E+00 -1.151707165E+03  1.151707165E+03  0.000000000E+00  0.00000E+00  9.000E+00
      25     1     1     2     0     0  2.474993952E+02 -2.749345822E+02  1.565070510E+02  4.206714063E+02  1.250000000E+02  0.00000E+00  9.000E+00
      25     1     1     2     0     0 -8.762031983E+01  3.819382958E+02 -6.611374334E+02  7.786410522E+02  1.250000000E+02  0.00000E+00  9.000E+00
      21     1     1     2   512   501 -1.598790753E+02 -1.070037136E+02 -2.688659584E+02  3.306055309E+02  5.394796609E-06  0.00000E+00  9.000E+00
#rwgt            1           1   3.1430643646335868E-002           8      110436           0
</event>
<event>
      5   9999  3.19816E-02  3.10191E+01 -1.00000E+00  1.52039E-01
      21    -1     0     0   502   501  0.000000000E+00  0.000000000E+00  1.028252202E+03  1.028252202E+03  0.000000000E+00  0.00000E+00  9.000E+00
      21    -1     0     0   511   502  0.000000000E+00  0.000000000E+00 -2.489543219E+02  2.489543219E+02  0.000000000E+00  0.00000E+00  9.000E+00
      25     1     1     2     0     0 -4.642948806E+01 -3.005082417E+02  8.652138822E+02  9.255706146E+02  1.250000000E+02  0.00000E+00  9.000E+00
      25     1     1     2     0     0  5.634092678E+01  2.711152918E+02 -5.677008265E+01  3.090722307E+02  1.250000000E+02  0.00000E+00  9.000E+00
      21     1     1     2   511   501 -9.911438721E+00  2.939294983E+01 -2.914591941E+01  4.256367859E+01  0.000000000E+00  0.00000E+00  9.000E+00
#rwgt            1           1   2.8566109401879560E-002           8      110511           0
</event>
<event>
      5   9999  3.19816E-02  1.01467E+02 -1.00000E+00  1.23544E-01
       2    -1     0     0   502     0  0.000000000E+00  0.000000000E+00  1.634544811E+03  1.634544811E+03  0.000000000E+00  0.00000E+00  9.000E+00
      21    -1     0     0   501   502  0.000000000E+00  0.000000000E+00 -8.278416457E+01  8.278416457E+01  0.000000000E+00  0.00000E+00  9.000E+00
      25     1     1     2     0     0 -2.621245071E+02  8.093168441E+01  6.911751505E+02  7.540605304E+02  1.250000000E+02  0.00000E+00  9.000E+00
      25     1     1     2     0     0  1.996988421E+02 -1.609229314E+02  3.980811237E+02  4.897646357E+02  1.250000000E+02  0.00000E+00  9.000E+00
       2     1     1     2   501     0  6.242566496E+01  7.999124700E+01  4.625043726E+02  4.735038099E+02  5.394796609E-06  0.00000E+00  9.000E+00
#rwgt            1           1   2.8822704157002856E-002           8      110633           0
</event>
<event>
      5   9999  3.19816E-02  1.59130E+01 -1.00000E+00  1.75000E-01
      21    -1     0     0   511   501  0.000000000E+00  0.000000000E+00  1.418151362E+02  1.418151362E+02  0.000000000E+00  0.00000E+00  9.000E+00
      21    -1     0     0   501   502  0.000000000E+00  0.000000000E+00 -1.037986594E+03  1.037986594E+03  0.000000000E+00  0.00000E+00  9.000E+00
      25     1     1     2     0     0  2.419002504E+02  3.335825769E+01 -6.098206341E+02  6.686813219E+02  1.250000000E+02  0.00000E+00  9.000E+00
      25     1     1     2     0     0 -2.578018403E+02 -3.395971429E+01 -3.453531765E+02  4.500098528E+02  1.250000000E+02  0.00000E+00  9.000E+00
      21     1     1     2   511   502  1.590158998E+01  6.014566034E-01  5.900235302E+01  6.111055536E+01  2.236564522E-06  0.00000E+00  9.000E+00
#rwgt            1           1   2.3655757233666794E-002           8      110710           0
</event>
<event>
      5   9999  3.19816E-02  1.42783E+01 -1.00000E+00  1.79425E-01
      21    -1     0     0   502   501  0.000000000E+00  0.000000000E+00  1.623002089E+01  1.623002089E+01  0.000000000E+00  0.00000E+00  9.000E+00
      21    -1     0     0   501   512  0.000000000E+00  0.000000000E+00 -2.118504940E+03  2.118504940E+03  0.000000000E+00  0.00000E+00  9.000E+00
      25     1     1     2     0     0  4.603245628E+01  8.317757768E+01 -1.416735101E+03  1.425412517E+03  1.250000000E+02  0.00000E+00  9.000E+00
      25     1     1     2     0     0 -5.943597009E+01 -8.809839789E+01 -5.778748052E+02  6.007147848E+02  1.250000000E+02  0.00000E+00  9.000E+00
      21     1     1     2   502   512  1.340351381E+01  4.920820208E+00 -1.076650124E+02  1.086076588E+02  2.336015456E-06  0.00000E+00  9.000E+00
#rwgt            1           1   7.3410927956214928E-002           8      110894           0
</event>
<event>
      5   9999  3.19816E-02  7.34845E+01 -1.00000E+00  1.30161E-01
      21    -1     0     0   502   501  0.000000000E+00  0.000000000E+00  9.837634852E+02  9.837634852E+02  0.000000000E+00  0.00000E+00  9.000E+00
      21    -1     0     0   511   502  0.000000000E+00  0.000000000E+00 -6.375402440E+02  6.375402440E+02  0.000000000E+00  0.00000E+00  9.000E+00
      25     1     1     2     0     0  3.264273114E+02  5.740740904E+01  8.075234322E+02  8.817990098E+02  1.250000000E+02  0.00000E+00  9.000E+00
      25     1     1     2     0     0 -3.932231757E+02 -8.803890734E+01 -1.978318600E+02  4.659804287E+02  1.250000000E+02  0.00000E+00  9.000E+00
      21     1     1     2   511   501  6.679586430E+01  3.063149829E+01 -2.634683309E+02  2.735242907E+02  0.000000000E+00  0.00000E+00  9.000E+00
#rwgt            1           1   2.8212547026812241E-002           8      111032           0
</event>
<event>
      5   9999  3.19816E-02  1.58575E+01 -1.00000E+00  1.75139E-01
      21    -1     0     0   502   512  0.000000000E+00  0.000000000E+00  3.244688270E+02  3.244688270E+02  0.000000000E+00  0.00000E+00  9.000E+00
      21    -1     0     0   501   502  0.000000000E+00  0.000000000E+00 -1.228142104E+02  1.228142104E+02  0.000000000E+00  0.00000E+00  9.000E+00
      25     1     1     2     0     0  4.741573720E+01  9.271102771E+01  2.127334150E+02  2.678135408E+02  1.250000000E+02  0.00000E+00  9.000E+00
      25     1     1     2     0     0 -3.315180837E+01 -8.578288719E+01 -2.640450606E+01  1.574164670E+02  1.250000000E+02  0.00000E+00  9.000E+00
      21     1     1     2   501   512 -1.426392883E+01 -6.928140524E+00  1.532570770E+01  2.205302957E+01  2.384185791E-07  0.00000E+00  9.000E+00
#rwgt            1           1   2.7651213942800627E-002           8      111169           0
</event>
<event>
      5   9999  3.19816E-02  1.37848E+02 -1.00000E+00  1.17867E-01
      21    -1     0     0   502   511  0.000000000E+00  0.000000000E+00  1.872372593E+03  1.872372593E+03  0.000000000E+00  0.00000E+00  9.000E+00
      21    -1     0     0   501   502  0.000000000E+00  0.000000000E+00 -4.448295461E+02  4.448295461E+02  0.000000000E+00  0.00000E+00  9.000E+00
      25     1     1     2     0     0 -1.486602571E+02 -9.723299957E+01  4.635443743E+02  5.119106516E+02  1.250000000E+02  0.00000E+00  9.000E+00
      25     1     1     2     0     0  4.944446526E+01  1.929312842E+02 -3.839930777E+02  4.502698294E+02  1.250000000E+02  0.00000E+00  9.000E+00
      21     1     1     2   501   511  9.921579188E+01 -9.569828461E+01  1.347991750E+03  1.355021658E+03  1.525878906E-05  0.00000E+00  9.000E+00
#rwgt            1           1   2.7682056590369600E-002           8      111321           0
</event>
<event>
      5   9999  3.19816E-02  4.46201E+01 -1.00000E+00  1.41956E-01
      21    -1     0     0   502   501  0.000000000E+00  0.000000000E+00  1.236036658E+02  1.236036658E+02  0.000000000E+00  0.00000E+00  9.000E+00
      21    -1     0     0   501   512  0.000000000E+00  0.000000000E+00 -1.275321189E+03  1.275321189E+03  0.000000000E+00  0.00000E+00  9.000E+00
      25     1     1     2     0     0  2.349830059E+02  1.453775728E+02 -5.018228107E+02  5.863469835E+02  1.250000000E+02  0.00000E+00  9.000E+00
      25     1     1     2     0     0 -2.399350413E+02 -1.010331474E+02 -1.794152763E+02  3.399872972E+02  1.250000000E+02  0.00000E+00  9.000E+00
      21     1     1     2   502   512  4.952035359E+00 -4.434442544E+01 -4.704794367E+02  4.725905745E+02  7.629394531E-06  0.00000E+00  9.000E+00
#rwgt            1           1   2.7579402061129344E-002           8      111416           0
</event>
<event>
      5   9999  3.19816E-02  9.93748E+01 -1.00000E+00  1.23951E-01
      21    -1     0     0   502   501  0.000000000E+00  0.000000000E+00  3.874564206E+02  3.874564206E+02  0.000000000E+00  0.00000E+00  9.000E+00
      21    -1     0     0   511   502  0.000000000E+00  0.000000000E+00 -3.105599860E+02  3.105599860E+02  0.000000000E+00  0.00000E+00  9.000E+00
      25     1     1     2     0     0  1.218196822E+02  2.758927005E+02  4.541155614E+01  3.296119334E+02  1.250000000E+02  0.00000E+00  9.000E+00
      25     1     1     2     0     0 -7.468749481E+01 -1.884060346E+02  8.826712685E+01  2.539510611E+02  1.250000000E+02  0.00000E+00  9.000E+00
      21     1     1     2   511   501 -4.713218741E+01 -8.748666592E+01 -5.678224835E+01  1.144534121E+02  1.507891493E-06  0.00000E+00  9.000E+00
#rwgt            1           1   2.8292759855814812E-002           8      111507           0
</event>
<event>
      5   9999  3.19816E-02  5.85401E+01 -1.00000E+00  1.35278E-01
      21    -1     0     0   512   501  0.000000000E+00  0.000000000E+00  3.339452345E+02  3.339452345E+02  0.000000000E+00  0.00000E+00  9.000E+00
      21    -1     0     0   501   502  0.000000000E+00  0.000000000E+00 -1.128462127E+03  1.128462127E+03  0.000000000E+00  0.00000E+00  9.000E+00
      25     1     1     2     0     0 -1.947774136E+02  1.629991797E+02  1.764071949E+01  2.836250490E+02  1.250000000E+02  0.00000E+00  9.000E+00
      25     1     1     2     0     0  1.367657296E+02 -1.551510473E+02 -9.756454512E+02  1.005129722E+03  1.250000000E+02  0.00000E+00  9.000E+00
      21     1     1     2   512   502  5.801168402E+01 -7.848132369E+00  1.634878390E+02  1.736525904E+02  4.264961200E-06  0.00000E+00  9.000E+00
#rwgt            1           1   2.3939245351396663E-002           8      111575           0
</event>
<event>
      5   9999  3.19816E-02  1.49269E+01 -1.00000E+00  1.77584E-01
      21    -1     0     0   502   501  0.000000000E+00  0.000000000E+00  7.465831156E+02  7.465831156E+02  0.000000000E+00  0.00000E+00  9.000E+00
      21    -1     0     0   501   511  0.000000000E+00  0.000000000E+00 -8.383171140E+01  8.383171140E+01  0.000000000E+00  0.00000E+00  9.000E+00
      25     1     1     2     0     0 -1.000734847E+02  9.809936465E-01  2.089882951E+02  2.632807858E+02  1.250000000E+02  0.00000E+00  9.000E+00
      25     1     1     2     0     0  8.850948490E+01 -1.041952726E+01  4.976433556E+02  5.207844130E+02  1.250000000E+02  0.00000E+00  9.000E+00
      21     1     1     2   502   511  1.156399976E+01  9.438533612E+00 -4.388024646E+01  4.634962823E+01  2.023048729E-06  0.00000E+00  9.000E+00
#rwgt            1           1   3.1004898036882174E-002           8      111650           0
</event>
<event>
      5   9999  3.19816E-02  4.82939E+01 -1.00000E+00  1.39941E-01
      21    -1     0     0   502   501  0.000000000E+00  0.000000000E+00  9.263144658E+02  9.263144658E+02  0.000000000E+00  0.00000E+00  9.000E+00
      21    -1     0     0   501   512  0.000000000E+00  0.000000000E+00 -2.436411323E+02  2.436411323E+02  0.000000000E+00  0.00000E+00  9.000E+00
      25     1     1     2     0     0 -4.691190281E+01 -4.461404468E+02  2.862731422E+02  5.466437019E+02  1.250000000E+02  0.00000E+00  9.000E+00
      25     1     1     2     0     0  1.120773892E+01  4.136209471E+02  3.647024478E+02  5.655446726E+02  1.250000000E+02  0.00000E+00  9.000E+00
      21     1     1     2   502   512  3.570416389E+01  3.251949969E+01  3.169774356E+01  5.776722363E+01  5.840038640E-07  0.00000E+00  9.000E+00
#rwgt            1           1   3.0243309237617106E-002           8      111760           0
</event>
<event>
      5   9999  3.19816E-02  3.69823E+01 -1.00000E+00  1.46985E-01
      21    -1     0     0   511   501  0.000000000E+00  0.000000000E+00  6.725836551E+02  6.725836551E+02  0.000000000E+00  0.00000E+00  9.000E+00
      21    -1     0     0   501   502  0.000000000E+00  0.000000000E+00 -4.933803716E+02  4.933803716E+02  0.000000000E+00  0.00000E+00  9.000E+00
      25     1     1     2     0     0  9.059348219E+01 -4.054802797E+02  2.751714062E+02  5.137759619E+02  1.250000000E+02  0.00000E+00  9.000E+00
      25     1     1     2     0     0 -5.557002006E+01  4.173566856E+02 -2.420582678E+02  5.014896162E+02  1.250000000E+02  0.00000E+00  9.000E+00
      21     1     1     2   511   502 -3.502346214E+01 -1.187640588E+01  1.460901452E+02  1.506984487E+02  1.907348633E-06  0.00000E+00  9.000E+00
#rwgt            1           1   3.2772023398285673E-002           8      111861           0
</event>
<event>
      5   9999  3.19816E-02  2.21839E+01 -1.00000E+00  1.62739E-01
      21    -1     0     0   502   501  0.000000000E+00  0.000000000E+00  1.804697800E+02  1.804697800E+02  0.000000000E+00  0.00000E+00  9.000E+00
      21    -1     0     0   501   512  0.000000000E+00  0.000000000E+00 -9.065179590E+02  9.065179590E+02  0.000000000E+00  0.00000E+00  9.000E+00
      25     1     1     2     0     0  2.619894294E+02  1.164903933E+02 -6.534477537E+02  7.244497496E+02  1.250000000E+02  0.00000E+00  9.000E+00
      25     1     1     2     0     0 -2.484442276E+02 -9.892185363E+01 -9.157633172E+00  2.953285113E+02  1.250000000E+02  0.00000E+00  9.000E+00
      21     1     1     2   502   512 -1.354520180E+01 -1.756853969E+01 -6.344279207E+01  6.720947808E+01  6.743495762E-07  0.00000E+00  9.000E+00
#rwgt            1           1   2.8835370739737329E-002           8      111991           0
</event>
<event>
      5   9999  3.19816E-02  9.46122E+01 -1.00000E+00  1.24920E-01
      21    -1     0     0   502   501  0.000000000E+00  0.000000000E+00  9.278376852E+02  9.278376852E+02  0.000000000E+00  0.00000E+00  9.000E+00
      21    -1     0     0   501   511  0.000000000E+00  0.000000000E+00 -4.133201953E+02  4.133201953E+02  0.000000000E+00  0.00000E+00  9.000E+00
      25     1     1     2     0     0  1.516287500E+02 -2.652998642E+02 -1.107540290E+02  3.482337587E+02  1.250000000E+02  0.00000E+00  9.000E+00
      25     1     1     2     0     0 -7.191573887E+01  2.143361810E+02  7.743788291E+02  8.163329241E+02  1.250000000E+02  0.00000E+00  9.000E+00
      21     1     1     2   502   511 -7.971301114E+01  5.096368318E+01 -1.491073102E+02  1.765911977E+02  2.697398305E-06  0.00000E+00  9.000E+00
#rwgt            1           1   3.1865307622611416E-002           8      112121           0
</event>
<event>
      5   9999  3.19816E-02  2.92152E+01 -1.00000E+00  1.53844E-01
      21    -1     0     0   502   512  0.000000000E+00  0.000000000E+00  1.420113130E+02  1.420113130E+02  0.000000000E+00  0.00000E+00  9.000E+00
      21    -1     0     0   501   502  0.000000000E+00  0.000000000E+00 -1.296673925E+03  1.296673925E+03  0.000000000E+00  0.00000E+00  9.000E+00
      25     1     1     2     0     0  9.177856649E+01 -2.833396967E+02 -5.279471481E+02  6.189166989E+02  1.250000000E+02  0.00000E+00  9.000E+00
      25     1     1     2     0     0 -1.041867453E+02  2.568903670E+02 -6.878177039E+02  7.520410443E+02  1.250000000E+02  0.00000E+00  9.000E+00
      21     1     1     2   501   512  1.240817877E+01  2.644932969E+01  6.110223956E+01  6.772749530E+01  2.431401974E-06  0.00000E+00  9.000E+00
#rwgt            1           1   2.9265210016193699E-002           8      112185           0
</event>
<event>
      5   9999  3.19816E-02  3.42045E+01 -1.00000E+00  1.49186E-01
      21    -1     0     0   502   501  0.000000000E+00  0.000000000E+00  8.728722604E+02  8.728722604E+02  0.000000000E+00  0.00000E+00  9.000E+00
      21    -1     0     0   511   502  0.000000000E+00  0.000000000E+00 -1.065439521E+03  1.065439521E+03  0.000000000E+00  0.00000E+00  9.000E+00
      25     1     1     2     0     0 -5.614687704E+02  4.732425941E+02  3.393152984E+02  8.185142666E+02  1.250000000E+02  0.00000E+00  9.000E+00
      25     1     1     2     0     0  5.544230009E+02 -5.067135431E+02 -2.014825205E+02  7.876316936E+02  1.250000000E+02  0.00000E+00  9.000E+00
      21     1     1     2   511   501  7.045769501E+00  3.347094905E+01 -3.304000385E+02  3.321658211E+02  3.814697266E-06  0.00000E+00  9.000E+00
#rwgt            1           1   3.2846751530119185E-002           8      112329           0
</event>
<event>
      5   9999  3.19816E-02  4.81053E+01 -1.00000E+00  1.40040E-01
      21    -1     0     0   502   501  0.000000000E+00  0.000000000E+00  3.003048840E+02  3.003048840E+02  0.000000000E+00  0.00000E+00  9.000E+00
      21    -1     0     0   512   502  0.000000000E+00  0.000000000E+00 -1.678196947E+03  1.678196947E+03  0.000000000E+00  0.00000E+00  9.000E+00
      25     1     1     2     0     0  1.006967557E+02 -5.587335398E+01  2.005380416E+02  2.628729244E+02  1.250000000E+02  0.00000E+00  9.000E+00
      25     1     1     2     0     0 -6.386170489E+01  2.493315036E+01 -6.239137702E+00  1.427021590E+02  1.250000000E+02  0.00000E+00  9.000E+00
      21     1     1     2   512   501 -3.683505078E+01  3.094020362E+01 -1.572190967E+03  1.572926748E+03  2.157918644E-05  0.00000E+00  9.000E+00
#rwgt            1           1   2.9390088489683788E-002           8      112468           0
</event>
<event>
      5   9999  3.19816E-02  2.92341E+02 -1.00000E+00  1.05958E-01
      21    -1     0     0   502   501  0.000000000E+00  0.000000000E+00  4.942568443E+02  4.942568443E+02  0.000000000E+00  0.00000E+00  9.000E+00
      21    -1     0     0   511   502  0.000000000E+00  0.000000000E+00 -5.038157944E+02  5.038157944E+02  0.000000000E+00  0.00000E+00  9.000E+00
      25     1     1     2     0     0  1.263826634E+02 -1.289732904E+02  1.200159295E+01  2.199448237E+02  1.250000000E+02  0.00000E+00  9.000E+00
      25     1     1     2     0     0 -4.167097286E+02  1.632320655E+02  7.408647380E+01  4.705374700E+02  1.250000000E+02  0.00000E+00  9.000E+00
      21     1     1     2   511   501  2.903270652E+02 -3.425877512E+01 -9.564701688E+01  3.075903449E+02  3.568322551E-06  0.00000E+00  9.000E+00
#rwgt            1           1   2.6059332724032269E-002           8      112566           0
</event>
<event>
      5   9999  3.19816E-02  3.75930E+01 -1.00000E+00  1.46532E-01
      21    -1     0     0   512   501  0.000000000E+00  0.000000000E+00  5.398738593E+02  5.398738593E+02  0.000000000E+00  0.00000E+00  9.000E+00
      21    -1     0     0   501   502  0.000000000E+00  0.000000000E+00 -9.816525199E+02  9.816525199E+02  0.000000000E+00  0.00000E+00  9.000E+00
      25     1     1     2     0     0  5.115401695E+02  2.965849062E+02  1.373620125E+01  6.045243046E+02  1.250000000E+02  0.00000E+00  9.000E+00
      25     1     1     2     0     0 -4.807971457E+02 -2.749493711E+02 -5.651424413E+02  8.011080020E+02  1.250000000E+02  0.00000E+00  9.000E+00
      21     1     1     2   512   502 -3.074302384E+01 -2.163553509E+01  1.096275794E+02  1.158940726E+02  1.907348633E-06  0.00000E+00  9.000E+00
#rwgt            2          11   2.9915317264607331E-003           8      112604           0
</event>
<event>
      5   9999  3.19816E-02  1.60989E+01 -1.00000E+00  1.74539E-01
      21    -1     0     0   502   501  0.000000000E+00  0.000000000E+00  5.855729050E+02  5.855729050E+02  0.000000000E+00  0.00000E+00  9.000E+00
      21    -1     0     0   501   511  0.000000000E+00  0.000000000E+00 -1.562044373E+03  1.562044373E+03  0.000000000E+00  0.00000E+00  9.000E+00
      25     1     1     2     0     0  8.269188639E+02 -3.383816526E+02 -5.852439677E+02  1.075375493E+03  1.250000000E+02  0.00000E+00  9.000E+00
      25     1     1     2     0     0 -8.128916127E+02  3.304815443E+02 -2.374386955E+02  9.176126412E+02  1.250000000E+02  0.00000E+00  9.000E+00
      21     1     1     2   502   511 -1.402725119E+01  7.900108365E+00 -1.537888044E+02  1.546291429E+02  1.907348633E-06  0.00000E+00  9.000E+00
#rwgt            1           1   3.7668686199534999E-002           8      112624           0
</event>
<event>
      5   9999  3.19816E-02  9.73151E+01 -1.00000E+00  1.24362E-01
      21    -1     0     0   502   501  0.000000000E+00  0.000000000E+00  2.181579447E+02  2.181579447E+02  0.000000000E+00  0.00000E+00  9.000E+00
      21    -1     0     0   501   512  0.000000000E+00  0.000000000E+00 -2.349470423E+03  2.349470423E+03  0.000000000E+00  0.00000E+00  9.000E+00
      25     1     1     2     0     0  3.388955626E+02  1.669743857E+01 -9.462437217E+02  1.012981336E+03  1.250000000E+02  0.00000E+00  9.000E+00
      25     1     1     2     0     0 -3.297666210E+02  8.018850630E+01  3.916719247E+00  3.616857221E+02  1.250000000E+02  0.00000E+00  9.000E+00
      21     1     1     2   502   512 -9.128941583E+00 -9.688594487E+01 -1.188985476E+03  1.192961309E+03  1.525878906E-05  0.00000E+00  9.000E+00
#rwgt            1           1   2.8443863630331457E-002           8      112846           0
</event>
<event>
      5   9999  3.19816E-02  5.83077E+01 -1.00000E+00  1.35371E-01
      21    -1     0     0   502   511  0.000000000E+00  0.000000000E+00  1.609880833E+03  1.609880833E+03  0.000000000E+00  0.00000E+00  9.000E+00
      21    -1     0     0   501   502  0.000000000E+00  0.000000000E+00 -2.254815123E+02  2.254815123E+02  0.000000000E+00  0.00000E+00  9.000E+00
      25     1     1     2     0     0  4.437476597E+02 -3.388976160E+02  8.255834624E+02  1.004478289E+03  1.250000000E+02  0.00000E+00  9.000E+00
      25     1     1     2     0     0 -4.599348867E+02  2.828818539E+02  4.824970111E+02  7.348405331E+02  1.250000000E+02  0.00000E+00  9.000E+00
      21     1     1     2   501   511  1.618722699E+01  5.601576206E+01  7.631884758E+01  9.604352353E+01  1.348699152E-06  0.00000E+00  9.000E+00
#rwgt            1           1   2.6440388859816741E-002           8      112975           0
</event>
<event>
      5   9999  3.19816E-02  1.95937E+01 -1.00000E+00  1.67108E-01
      21    -1     0     0   502   512  0.000000000E+00  0.000000000E+00  1.325206576E+03  1.325206576E+03  0.000000000E+00  0.00000E+00  9.000E+00
      21    -1     0     0   501   502  0.000000000E+00  0.000000000E+00 -8.620873056E+01  8.620873056E+01  0.000000000E+00  0.00000E+00  9.000E+00
      25     1     1     2     0     0  2.350367333E+02  1.224555339E+02  2.850300619E+02  4.087844909E+02  1.250000000E+02  0.00000E+00  9.000E+00
      25     1     1     2     0     0 -2.391712629E+02 -1.033030253E+02  8.912612392E+02  9.369343651E+02  1.250000000E+02  0.00000E+00  9.000E+00
      21     1     1     2   501   512  4.134529545E+00 -1.915250856E+01  6.270654469E+01  6.569645094E+01  6.743495762E-07  0.00000E+00  9.000E+00
#rwgt            1           1   2.6697067355574273E-002           8      113080           0
</event>
<event>
      5   9999  3.19816E-02  1.77189E+01 -1.00000E+00  1.70829E-01
      21    -1     0     0   502   501  0.000000000E+00  0.000000000E+00  1.179782196E+02  1.179782196E+02  0.000000000E+00  0.00000E+00  9.000E+00
      21    -1     0     0   511   502  0.000000000E+00  0.000000000E+00 -4.749116611E+02  4.749116611E+02  0.000000000E+00  0.00000E+00  9.000E+00
      25     1     1     2     0     0 -1.008147779E+02 -1.522045795E+02 -1.392015975E+02  2.614037838E+02  1.250000000E+02  0.00000E+00  9.000E+00
      25     1     1     2     0     0  9.506697502E+01  1.689653154E+02 -1.913762832E+02  2.997280256E+02  1.250000000E+02  0.00000E+00  9.000E+00
      21     1     1     2   511   501  5.747802848E+00 -1.676073599E+01 -2.635556080E+01  3.175807132E+01  0.000000000E+00  0.00000E+00  9.000E+00
#rwgt            1           1   3.2987408404001543E-002           8      113253           0
</event>
<event>
      5   9999  3.19816E-02  5.49743E+01 -1.00000E+00  1.36765E-01
      21    -1     0     0   502   501  0.000000000E+00  0.000000000E+00  4.280938384E+01  4.280938384E+01  0.000000000E+00  0.00000E+00  9.000E+00
       2    -1     0     0   501     0  0.000000000E+00  0.000000000E+00 -1.642825443E+03  1.642825443E+03  0.000000000E+00  0.00000E+00  9.000E+00
      25     1     1     2     0     0  2.956421437E+01  9.451259421E+01 -1.888612161E+02  2.471846115E+02  1.250000000E+02  0.00000E+00  9.000E+00
      25     1     1     2     0     0 -6.555383999E+01 -1.360688382E+02 -7.565174713E+02  7.815086174E+02  1.250000000E+02  0.00000E+00  9.000E+00
       2     1     1     2   502     0  3.598962562E+01  4.155624395E+01 -6.546373713E+02  6.569415975E+02  1.078959322E-05  0.00000E+00  9.000E+00
#rwgt            1           1   3.2583799502270451E-002           8      113407           0
</event>
<event>
      5   9999  3.19816E-02  3.50923E+01 -1.00000E+00  1.48456E-01
      21    -1     0     0   502   501  0.000000000E+00  0.000000000E+00  2.209519343E+02  2.209519343E+02  0.000000000E+00  0.00000E+00  9.000E+00
      21    -1     0     0   511   502  0.000000000E+00  0.000000000E+00 -2.720287436E+02  2.720287436E+02  0.000000000E+00  0.00000E+00  9.000E+00
      25     1     1     2     0     0  3.031465017E+00 -1.006950127E+02  9.339818216E+01  1.857333998E+02  1.250000000E+02  0.00000E+00  9.000E+00
      25     1     1     2     0     0  5.372648410E+00  1.347660758E+02 -2.850830000E+01  1.860873013E+02  1.250000000E+02  0.00000E+00  9.000E+00
      21     1     1     2   511   501 -8.404113426E+00 -3.407106303E+01 -1.159666914E+02  1.211599768E+02  1.348699152E-06  0.00000E+00  9.000E+00
#rwgt            1           1   3.1760461603886396E-002           8      113530           0
</event>
<event>
      5   9999  3.19816E-02  3.97568E+01 -1.00000E+00  1.45005E-01
      21    -1     0     0   502   501  0.000000000E+00  0.000000000E+00  1.609018724E+02  1.609018724E+02  0.000000000E+00  0.00000E+00  9.000E+00
       2    -1     0     0   501     0  0.000000000E+00  0.000000000E+00 -7.989162658E+02  7.989162658E+02  0.000000000E+00  0.00000E+00  9.000E+00
      25     1     1     2     0     0  1.373037924E+02  7.125335329E+01 -9.111283635E+01  2.187599614E+02  1.250000000E+02  0.00000E+00  9.000E+00
      25     1     1     2     0     0 -9.958552362E+01 -8.382069134E+01  1.188648401E+01  1.808576051E+02  1.250000000E+02  0.00000E+00  9.000E+00
       2     1     1     2   502     0 -3.771826873E+01  1.256733804E+01 -5.587880411E+02  5.602005718E+02  1.078959322E-05  0.00000E+00  9.000E+00
#rwgt            1           1   2.7266229096916984E-002           8      113637           0
</event>
<event>
      5   9999  3.19816E-02  7.39222E+00 -1.00000E+00  2.12261E-01
      21    -1     0     0   511   501  0.000000000E+00  0.000000000E+00  1.159182987E+02  1.159182987E+02  0.000000000E+00  0.00000E+00  9.000E+00
      21    -1     0     0   501   502  0.000000000E+00  0.000000000E+00 -1.586364081E+03  1.586364081E+03  0.000000000E+00  0.00000E+00  9.000E+00
      25     1     1     2     0     0  2.006887125E+02  3.528199588E+01 -1.210465933E+03  1.233845028E+03  1.250000000E+02  0.00000E+00  9.000E+00
      25     1     1     2     0     0 -2.038410152E+02 -2.859559595E+01 -3.241651203E+02  4.038278009E+02  1.250000000E+02  0.00000E+00  9.000E+00
      21     1     1     2   511   502  3.152302653E+00 -6.686399936E+00  6.418527129E+01  6.460955043E+01  1.348699152E-06  0.00000E+00  9.000E+00
#rwgt            1           1   4.0968150071964825E-002           8      113710           0
</event>
<event>
      5   9999  3.19816E-02  6.20120E+01 -1.00000E+00  1.33942E-01
      21    -1     0     0   502   501  0.000000000E+00  0.000000000E+00  1.474186263E+02  1.474186263E+02  0.000000000E+00  0.00000E+00  9.000E+00
      21    -1     0     0   501   512  0.000000000E+00  0.000000000E+00 -2.468087999E+02  2.468087999E+02  0.000000000E+00  0.00000E+00  9.000E+00
      25     1     1     2     0     0  8.122380846E-01 -7.348313010E+01 -9.032806032E+00  1.452825582E+02  1.250000000E+02  0.00000E+00  9.000E+00
      25     1     1     2     0     0  5.803795365E+01  9.303159418E+01 -4.544169157E+01  1.723752561E+02  1.250000000E+02  0.00000E+00  9.000E+00
      21     1     1     2   502   512 -5.885019173E+01 -1.954846407E+01 -4.491567596E+01  7.656961187E+01  8.259061849E-07  0.00000E+00  9.000E+00
#rwgt            1           1   6.2776598352335206E-002           8      113936           0
</event>
<event>
      5   9999  3.19816E-02  5.13197E+01 -1.00000E+00  1.38433E-01
      21    -1     0     0   502   501  0.000000000E+00  0.000000000E+00  4.442355159E+01  4.442355159E+01  0.000000000E+00  0.00000E+00  9.000E+00
      21    -1     0     0   511   502  0.000000000E+00  0.000000000E+00 -1.639853970E+03  1.639853970E+03  0.000000000E+00  0.00000E+00  9.000E+00
      25     1     1     2     0     0 -6.974844904E+01 -1.991246873E+01 -1.335394250E+03  1.343191779E+03  1.250000000E+02  0.00000E+00  9.000E+00
      25     1     1     2     0     0  3.545438311E+01 -1.826645569E+01 -7.953859110E+01  1.534342340E+02  1.250000000E+02  0.00000E+00  9.000E+00
      21     1     1     2   511   501  3.429406593E+01  3.817892441E+01 -1.804975777E+02  1.876515089E+02  0.000000000E+00  0.00000E+00  9.000E+00
#rwgt            1           1   3.2049604844950161E-002           8      113993           0
</event>
<event>
      5   9999  3.19816E-02  7.54322E+01 -1.00000E+00  1.29598E-01
       2    -1     0     0   502     0  0.000000000E+00  0.000000000E+00  1.192110045E+03  1.192110045E+03  0.000000000E+00  0.00000E+00  9.000E+00
      21    -1     0     0   501   502  0.000000000E+00  0.000000000E+00 -3.859040303E+02  3.859040303E+02  0.000000000E+00  0.00000E+00  9.000E+00
      25     1     1     2     0     0 -1.044912954E+02 -2.255680403E+02 -2.861034654E+02  3.990984396E+02  1.250000000E+02  0.00000E+00  9.000E+00
      25     1     1     2     0     0  1.760346982E+02  2.494753319E+02  6.366996043E+02  7.171035786E+02  1.250000000E+02  0.00000E+00  9.000E+00
       2     1     1     2   501     0 -7.154340285E+01 -2.390729167E+01  4.556098757E+02  4.618120569E+02  0.000000000E+00  0.00000E+00  9.000E+00
#rwgt            1           1   3.1004370401166548E-002           8      114060           0
</event>
<event>
      5   9999  3.19816E-02  2.02936E+01 -1.00000E+00  1.65849E-01
      21    -1     0     0   511   501  0.000000000E+00  0.000000000E+00  9.362478153E+01  9.362478153E+01  0.000000000E+00  0.00000E+00  9.000E+00
      21    -1     0     0   501   502  0.000000000E+00  0.000000000E+00 -9.419314282E+02  9.419314282E+02  0.000000000E+00  0.00000E+00  9.000E+00
      25     1     1     2     0     0  3.358009131E+01 -2.470562803E+02 -5.546625469E+02  6.208381183E+02  1.250000000E+02  0.00000E+00  9.000E+00
      25     1     1     2     0     0 -1.463594025E+01  2.397796212E+02 -2.834166962E+02  3.919929861E+02  1.250000000E+02  0.00000E+00  9.000E+00
      21     1     1     2   511   502 -1.894415106E+01  7.276659143E+00 -1.022740359E+01  2.272510532E+01  2.064765462E-07  0.00000E+00  9.000E+00
#rwgt            1           1   2.7327647887252303E-002           8      114181           0
</event>
<event>
      5   9999  3.19816E-02  1.95677E+02 -1.00000E+00  1.11995E-01
      21    -1     0     0   512   501  0.000000000E+00  0.000000000E+00  8.938938630E+02  8.938938630E+02  0.000000000E+00  0.00000E+00  9.000E+00
      21    -1     0     0   501   502  0.000000000E+00  0.000000000E+00 -5.067737381E+02  5.067737381E+02  0.000000000E+00  0.00000E+00  9.000E+00
      25     1     1     2     0     0  4.543645135E+02 -7.979119963E+01  3.488723707E+02  5.917353105E+02  1.250000000E+02  0.00000E+00  9.000E+00
      25     1     1     2     0     0 -5.221342354E+02  2.633581304E+02 -3.733136558E+01  5.991663338E+02  1.250000000E+02  0.00000E+00  9.000E+00
      21     1     1     2   512   502  6.776972193E+01 -1.835669308E+02  7.557911990E+01  2.097659569E+02  3.015782986E-06  0.00000E+00  9.000E+00
#rwgt            1           1   3.0433351950494264E-002           8      114384           0
</event>
<event>
      5   9999  3.19816E-02  1.59064E+01 -1.00000E+00  1.75016E-01
      21    -1     0     0   502   501  0.000000000E+00  0.000000000E+00  1.405335956E+02  1.405335956E+02  0.000000000E+00  0.00000E+00  9.000E+00
      21    -1     0     0   511   502  0.000000000E+00  0.000000000E+00 -6.186236120E+02  6.186236120E+02  0.000000000E+00  0.00000E+00  9.000E+00
      25     1     1     2     0     0 -1.960912430E+02 -5.805638725E+01 -2.398962623E+01  2.408792682E+02  1.250000000E+02  0.00000E+00  9.000E+00
      25     1     1     2     0     0  1.823608624E+02  6.608706398E+01 -3.989405612E+02  4.608704325E+02  1.250000000E+02  0.00000E+00  9.000E+00
      21     1     1     2   511   501  1.373038058E+01 -8.030676728E+00 -5.515982891E+01  5.740750686E+01  0.000000000E+00  0.00000E+00  9.000E+00
#rwgt            1           1   2.6568608717949707E-002           8      114449           0
</event>
<event>
      5   9999  3.19816E-02  4.94856E+01 -1.00000E+00  1.39332E-01
      21    -1     0     0   502   501  0.000000000E+00  0.000000000E+00  1.523731650E+03  1.523731650E+03  0.000000000E+00  0.00000E+00  9.000E+00
      -1    -1     0     0     0   502  0.000000000E+00  0.000000000E+00 -1.087802083E+03  1.087802083E+03  0.000000000E+00  0.00000E+00  9.000E+00
      25     1     1     2     0     0  1.469923314E+02  2.758331805E+02  1.129538755E+03  1.178632041E+03  1.250000000E+02  0.00000E+00  9.000E+00
      25     1     1     2     0     0 -1.145315042E+02 -2.384818245E+02  3.110376487E+02  4.270368427E+02  1.250000000E+02  0.00000E+00  9.000E+00
      -1     1     1     2     0   501 -3.246082718E+01 -3.735135594E+01 -1.004646836E+03  1.005864849E+03  1.078959322E-05  0.00000E+00  9.000E+00
#rwgt            1           1   2.9067010649240280E-002           8      114581           0
</event>
<event>
      5   9999  3.19816E-02  2.59562E+02 -1.00000E+00  1.07676E-01
      21    -1     0     0   502   501  0.000000000E+00  0.000000000E+00  1.040064028E+02  1.040064028E+02  0.000000000E+00  0.00000E+00  9.000E+00
       2    -1     0     0   501     0  0.000000000E+00  0.000000000E+00 -5.646455898E+03  5.646455898E+03  0.000000000E+00  0.00000E+00  9.000E+00
      25     1     1     2     0     0 -1.058676841E+02  1.284188346E+02 -4.175976363E+02  4.665963453E+02  1.250000000E+02  0.00000E+00  9.000E+00
      25     1     1     2     0     0  1.876453595E+02  1.179238107E+02 -1.364618971E+02  2.887276492E+02  1.250000000E+02  0.00000E+00  9.000E+00
       2     1     1     2   502     0 -8.177767536E+01 -2.463426453E+02 -4.988389962E+03  4.995138307E+03  6.103515625E-05  0.00000E+00  9.000E+00
#rwgt            2          13   3.6824783054611798E-004           8      114777           0
</event>
<event>
      5   9999  3.19816E-02  2.83702E+01 -1.00000E+00  1.54744E-01
      21    -1     0     0   502   501  0.000000000E+00  0.000000000E+00  6.995835565E+02  6.995835565E+02  0.000000000E+00  0.00000E+00  9.000E+00
       2    -1     0     0   501     0  0.000000000E+00  0.000000000E+00 -3.684898071E+02  3.684898071E+02  0.000000000E+00  0.00000E+00  9.000E+00
      25     1     1     2     0     0  5.767061669E+01 -2.072288236E+02  5.568630069E+02  6.099107261E+02  1.250000000E+02  0.00000E+00  9.000E+00
      25     1     1     2     0     0 -3.228586497E+01  2.198969778E+02 -2.591829513E+01  2.563080489E+02  1.250000000E+02  0.00000E+00  9.000E+00
       2     1     1     2   502     0 -2.538475172E+01 -1.266815422E+01 -1.998509624E+02  2.018545886E+02  2.697398305E-06  0.00000E+00  9.000E+00
#rwgt            1           1   2.9550875227988840E-002           8      114796           0
</event>
<event>
      5   9999  3.19816E-02  1.18882E+02 -1.00000E+00  1.20541E-01
      21    -1     0     0   502   511  0.000000000E+00  0.000000000E+00  1.235207715E+03  1.235207715E+03  0.000000000E+00  0.00000E+00  9.000E+00
      21    -1     0     0   501   502  0.000000000E+00  0.000000000E+00 -4.996279758E+02  4.996279758E+02  0.000000000E+00  0.00000E+00  9.000E+00
      25     1     1     2     0     0 -5.657371116E+02 -3.812166896E+02  4.310316149E+02  8.165769388E+02  1.250000000E+02  0.00000E+00  9.000E+00
      25     1     1     2     0     0  6.585343709E+02  3.069094423E+02  2.105135903E+02  7.666823952E+02  1.250000000E+02  0.00000E+00  9.000E+00
      21     1     1     2   501   511 -9.279725923E+01  7.430724730E+01  9.403453357E+01  1.515763564E+02  2.697398305E-06  0.00000E+00  9.000E+00
#rwgt            1           1   2.5689022620460262E-002           8      115002           0
</event>
<event>
      5   9999  3.19816E-02  1.50627E+01 -1.00000E+00  1.77213E-01
      21    -1     0     0   502   501  0.000000000E+00  0.000000000E+00  7.002365119E+02  7.002365119E+02  0.000000000E+00  0.00000E+00  9.000E+00
      21    -1     0     0   501   512  0.000000000E+00  0.000000000E+00 -7.010049941E+01  7.010049941E+01  0.000000000E+00  0.00000E+00  9.000E+00
      25     1     1     2     0     0 -8.955219461E+01 -1.215969387E+02  2.914674842E+02  3.512601677E+02  1.250000000E+02  0.00000E+00  9.000E+00
      25     1     1     2     0     0  7.547003512E+01  1.269427571E+02  3.502086601E+02  4.001016063E+02  1.250000000E+02  0.00000E+00  9.000E+00
      21     1     1     2   502   512  1.408215949E+01 -5.345818428E+00 -1.154013176E+01  1.897523733E+01  4.768371582E-07  0.00000E+00  9.000E+00
#rwgt            1           1   2.8976039349696576E-002           8      115074           0
</event>
<event>
      5   9999  3.19816E-02  1.24119E+02 -1.00000E+00  1.19749E-01
      21    -1     0     0   502   511  0.000000000E+00  0.000000000E+00  4.885054764E+02  4.885054764E+02  0.000000000E+00  0.00000E+00  9.000E+00
      21    -1     0     0   501   502  0.000000000E+00  0.000000000E+00 -5.280581766E+02  5.280581766E+02  0.000000000E+00  0.00000E+00  9.000E+00
      25     1     1     2     0     0  1.017365826E+02 -7.370614648E+01  1.503116878E+02  2.323822966E+02  1.250000000E+02  0.00000E+00  9.000E+00
      25     1     1     2     0     0 -2.240467329E+02  9.481937915E+01 -4.324486799E+02  5.116879067E+02  1.250000000E+02  0.00000E+00  9.000E+00
      21     1     1     2   501   511  1.223101502E+02 -2.111323267E+01  2.425842918E+02  2.724934496E+02  3.814697266E-06  0.00000E+00  9.000E+00
#rwgt            1           1   2.8177636542547974E-002           8      115249           0
</event>
<event>
      5   9999  3.19816E-02  2.61713E+01 -1.00000E+00  1.57276E-01
      21    -1     0     0   502   501  0.000000000E+00  0.000000000E+00  3.296777251E+02  3.296777251E+02  0.000000000E+00  0.00000E+00  9.000E+00
      21    -1     0     0   512   502  0.000000000E+00  0.000000000E+00 -2.511874481E+02  2.511874481E+02  0.000000000E+00  0.00000E+00  9.000E+00
      25     1     1     2     0     0  9.130540101E+01 -1.504021247E+02  2.875873792E+01  2.177373197E+02  1.250000000E+02  0.00000E+00  9.000E+00
      25     1     1     2     0     0 -1.103900846E+02  1.683104953E+02  1.358502390E+02  2.731202684E+02  1.250000000E+02  0.00000E+00  9.000E+00
      21     1     1     2   512   501  1.908468354E+01 -1.790837054E+01 -8.611869993E+01  9.000758501E+01  1.348699152E-06  0.00000E+00  9.000E+00
#rwgt            1           1   2.5000947587137032E-002           8      115348           0
</event>
<event>
      5   9999  3.19816E-02  3.42807E+02 -1.00000E+00  1.03743E-01
      21    -1     0     0   502   501  0.000000000E+00  0.000000000E+00  5.192052932E+02  5.192052932E+02  0.000000000E+00  0.00000E+00  9.000E+00
      21    -1     0     0   511   502  0.000000000E+00  0.000000000E+00 -1.011913380E+03  1.011913380E+03  0.000000000E+00  0.00000E+00  9.000E+00
      25     1     1     2     0     0  6.152640761E+01 -5.366631832E+02  1.557628074E+02  5.759165939E+02  1.250000000E+02  0.00000E+00  9.000E+00
      25     1     1     2     0     0 -1.055444734E+02  1.966943566E+02 -4.300843487E+01  2.594282777E+02  1.250000000E+02  0.00000E+00  9.000E+00
      21     1     1     2   511   501  4.401806583E+01  3.399688266E+02 -6.054624591E+02  6.957738013E+02  7.629394531E-06  0.00000E+00  9.000E+00
#rwgt            1           1   3.0574189085550131E-002           8      115480           0
</event>
<event>
      5   9999  3.19816E-02  2.18968E+02 -1.00000E+00  1.10234E-01
      21    -1     0     0   502   501  0.000000000E+00  0.000000000E+00  7.947118094E+02  7.947118094E+02  0.000000000E+00  0.00000E+00  9.000E+00
      21    -1     0     0   501   512  0.000000000E+00  0.000000000E+00 -1.462864216E+03  1.462864216E+03  0.000000000E+00  0.00000E+00  9.000E+00
      25     1     1     2     0     0 -5.656959768E+02 -1.579968426E+02  4.645809867E+02  7.592334513E+02  1.250000000E+02  0.00000E+00  9.000E+00
      25     1     1     2     0     0  6.283966713E+02  3.677954255E+02 -7.225520719E+02  1.033374254E+03  1.250000000E+02  0.00000E+00  9.000E+00
      21     1     1     2   502   512 -6.270069456E+01 -2.097985829E+02 -4.101813215E+02  4.649683204E+02  5.394796609E-06  0.00000E+00  9.000E+00
#rwgt            2          11   3.9990722988760908E-003           8      115539           0
</event>
<event>
      5   9999  3.19816E-02  1.73297E+02 -1.00000E+00  1.13962E-01
      21    -1     0     0   502   501  0.000000000E+00  0.000000000E+00  6.925651694E+02  6.925651694E+02  0.000000000E+00  0.00000E+00  9.000E+00
      21    -1     0     0   511   502  0.000000000E+00  0.000000000E+00 -1.652150847E+03  1.652150847E+03  0.000000000E+00  0.00000E+00  9.000E+00
      25     1     1     2     0     0 -5.069699302E+02 -2.932972128E+02 -6.475364378E+02  8.820261920E+02  1.250000000E+02  0.00000E+00  9.000E+00
      25     1     1     2     0     0  6.646329170E+02  3.652294780E+02  3.011317444E+02  8.254906501E+02  1.250000000E+02  0.00000E+00  9.000E+00
      21     1     1     2   511   501 -1.576629868E+02 -7.193226516E+01 -6.131809839E+02  6.371991738E+02  7.629394531E-06  0.00000E+00  9.000E+00
#rwgt            1           1   2.0659359506663859E-002           8      115559           0
</event>
<event>
      5   9999  3.19816E-02  5.22000E+01 -1.00000E+00  1.38017E-01
      21    -1     0     0   502   501  0.000000000E+00  0.000000000E+00  5.527024029E+02  5.527024029E+02  0.000000000E+00  0.00000E+00  9.000E+00
      21    -1     0     0   512   502  0.000000000E+00  0.000000000E+00 -1.687493600E+02  1.687493600E+02  0.000000000E+00  0.00000E+00  9.000E+00
      25     1     1     2     0     0 -4.978387234E+01  1.498332462E+02  4.509213600E+02  4.938456323E+02  1.250000000E+02  0.00000E+00  9.000E+00
      25     1     1     2     0     0  4.057367849E+01 -9.845218883E+01 -6.053975005E+01  1.750117659E+02  1.250000000E+02  0.00000E+00  9.000E+00
      21     1     1     2   512   501  9.210193851E+00 -5.138105738E+01 -6.428566999E+00  5.259436473E+01  1.343420466E-06  0.00000E+00  9.000E+00
#rwgt            1           1   2.8315105063487129E-002           8      115629           0
</event>
<event>
      5   9999  3.19816E-02  9.94571E+01 -1.00000E+00  1.23934E-01
      21    -1     0     0   502   511  0.000000000E+00  0.000000000E+00  8.661123473E+02  8.661123473E+02  0.000000000E+00  0.00000E+00  9.000E+00
      21    -1     0     0   501   502  0.000000000E+00  0.000000000E+00 -3.636552413E+02  3.636552413E+02  0.000000000E+00  0.00000E+00  9.000E+00
      25     1     1     2     0     0 -4.166136662E+02 -7.596005981E+01 -9.442577475E+01  4.515286309E+02  1.250000000E+02  0.00000E+00  9.000E+00
      25     1     1     2     0     0  3.473753730E+02  1.473587959E+02  5.064279064E+02  6.438000379E+02  1.250000000E+02  0.00000E+00  9.000E+00
      21     1     1     2   501   511  6.923829323E+01 -7.139873613E+01  9.045497437E+01  1.344389198E+02  1.348699152E-06  0.00000E+00  9.000E+00
#rwgt            1           1   2.9897036344470468E-002           8      115713           0
</event>
<event>
      5   9999  3.19816E-02  1.38643E+02 -1.00000E+00  1.17765E-01
       2    -1     0     0   502     0  0.000000000E+00  0.000000000E+00  1.052960682E+03  1.052960682E+03  0.000000000E+00  0.00000E+00  9.000E+00
      21    -1     0     0   501   502  0.000000000E+00  0.000000000E+00 -1.426585481E+02  1.426585481E+02  0.000000000E+00  0.00000E+00  9.000E+00
      25     1     1     2     0     0  9.940389403E+01 -1.073710146E+02  1.299164994E+02  2.321916574E+02  1.250000000E+02  0.00000E+00  9.000E+00
      25     1     1     2     0     0 -2.247878451E+02  1.665373764E+02  1.981227824E+02  3.648861602E+02  1.250000000E+02  0.00000E+00  9.000E+00
       2     1     1     2   501     0  1.253839511E+02 -5.916636172E+01  5.822628525E+02  5.985414129E+02  0.000000000E+00  0.00000E+00  9.000E+00
#rwgt            1           1   2.6736456409935043E-002           8      115761           0
</event>
<event>
      5   9999  3.19816E-02  5.18027E+01 -1.00000E+00  1.38204E-01
      21    -1     0     0   511   501  0.000000000E+00  0.000000000E+00  1.399075944E+03  1.399075944E+03  0.000000000E+00  0.00000E+00  9.000E+00
      21    -1     0     0   501   502  0.000000000E+00  0.000000000E+00 -1.142981942E+02  1.142981942E+02  0.000000000E+00  0.00000E+00  9.000E+00
      25     1     1     2     0     0 -1.107586494E+02 -5.028690493E+01 -2.627226039E+01  1.763844746E+02  1.250000000E+02  0.00000E+00  9.000E+00
      25     1     1     2     0     0  1.609697433E+02  3.754476322E+01  9.578891128E+02  9.800497027E+02  1.250000000E+02  0.00000E+00  9.000E+00
      21     1     1     2   511   502 -5.021109385E+01  1.274214171E+01  3.531608970E+02  3.569399604E+02  5.394796609E-06  0.00000E+00  9.000E+00
#rwgt            1           1   2.7027107493212365E-002           8      115800           0
</event>
<event>
      5   9999  3.19816E-02  1.35538E+02 -1.00000E+00  1.18166E-01
      21    -1     0     0   502   501  0.000000000E+00  0.000000000E+00  1.302880523E+02  1.302880523E+02  0.000000000E+00  0.00000E+00  9.000E+00
      21    -1     0     0   501   512  0.000000000E+00  0.000000000E+00 -1.162885274E+03  1.162885274E+03  0.000000000E+00  0.00000E+00  9.000E+00
      25     1     1     2     0     0 -1.284762823E+02  1.167074304E+02 -2.702568720E+02  3.446600590E+02  1.250000000E+02  0.00000E+00  9.000E+00
      25     1     1     2     0     0  8.445305080E+01 -2.448971468E+02 -1.560071806E+02  3.272157861E+02  1.250000000E+02  0.00000E+00  9.000E+00
      21     1     1     2   502   512  4.402323150E+01  1.281897164E+02 -6.063331687E+02  6.212974809E+02  1.078959322E-05  0.00000E+00  9.000E+00
#rwgt            1           1   3.0462923938371418E-002           8      115880           0
</event>
<event>
      5   9999  3.19816E-02  1.32540E+02 -1.00000E+00  1.18564E-01
      21    -1     0     0   502   501  0.000000000E+00  0.000000000E+00  5.810660842E+01  5.810660842E+01  0.000000000E+00  0.00000E+00  9.000E+00
      21    -1     0     0   511   502  0.000000000E+00  0.000000000E+00 -1.905155740E+03  1.905155740E+03  0.000000000E+00  0.00000E+00  9.000E+00
      25     1     1     2     0     0 -7.889800783E+01  6.476317902E+01 -1.182874267E+03  1.193832357E+03  1.250000000E+02  0.00000E+00  9.000E+00
      25     1     1     2     0     0  1.666181707E+02  3.459432588E+01 -2.159623115E+02  3.020316245E+02  1.250000000E+02  0.00000E+00  9.000E+00
      21     1     1     2   511   501 -8.772016282E+01 -9.935750490E+01 -4.482125527E+02  4.673983667E+02  7.629394531E-06  0.00000E+00  9.000E+00
#rwgt            1           1   2.5151026837761076E-002           8      115928           0
</event>
<event>
      5   9999  3.19816E-02  1.10348E+01 -1.00000E+00  1.90940E-01
      21    -1     0     0   502   501  0.000000000E+00  0.000000000E+00  2.130451150E+02  2.130451150E+02  0.000000000E+00  0.00000E+00  9.000E+00
      21    -1     0     0   512   502  0.000000000E+00  0.000000000E+00 -2.324561292E+03  2.324561292E+03  0.000000000E+00  0.00000E+00  9.000E+00
      25     1     1     2     0     0 -7.387495750E+01 -5.548409015E+01 -1.867512271E+03  1.873969870E+03  1.250000000E+02  0.00000E+00  9.000E+00
      25     1     1     2     0     0  7.573516573E+01  4.460723185E+01  1.819126808E+02  2.375770273E+02  1.250000000E+02  0.00000E+00  9.000E+00
      21     1     1     2   512   501 -1.860208239E+00  1.087685830E+01 -4.259165870E+02  4.260595093E+02  0.000000000E+00  0.00000E+00  9.000E+00
#rwgt            1           1   2.9054492413719813E-002           8      116005           0
</event>
<event>
      5   9999  3.19816E-02  2.96152E+02 -1.00000E+00  1.05774E-01
      21    -1     0     0   502   501  0.000000000E+00  0.000000000E+00  6.807281153E+02  6.807281153E+02  0.000000000E+00  0.00000E+00  9.000E+00
      -2    -1     0     0     0   502  0.000000000E+00  0.000000000E+00 -4.636192232E+02  4.636192232E+02  0.000000000E+00  0.00000E+00  9.000E+00
      25     1     1     2     0     0  8.960748007E+01 -2.129814154E+02  3.072884484E+02  4.042793271E+02  1.250000000E+02  0.00000E+00  9.000E+00
      25     1     1     2     0     0 -2.817398374E+02 -1.238728219E+01  1.643885653E+02  3.495416730E+02  1.250000000E+02  0.00000E+00  9.000E+00
      -2     1     1     2     0   501  1.921323573E+02  2.253686975E+02 -2.545681216E+02  3.905263385E+02  4.672030912E-06  0.00000E+00  9.000E+00
#rwgt            1           1   2.8182735007963252E-002           8      116218           0
</event>
<event>
      5   9999  3.19816E-02  1.29476E+02 -1.00000E+00  1.18984E-01
      21    -1     0     0   502   511  0.000000000E+00  0.000000000E+00  8.199002299E+02  8.199002299E+02  0.000000000E+00  0.00000E+00  9.000E+00
      21    -1     0     0   501   502  0.000000000E+00  0.000000000E+00 -1.014896884E+02  1.014896884E+02  0.000000000E+00  0.00000E+00  9.000E+00
      25     1     1     2     0     0 -7.629924525E+01  5.115101688E+01  8.061334416E+01  1.748185134E+02  1.250000000E+02  0.00000E+00  9.000E+00
      25     1     1     2     0     0  7.274386097E+01 -1.805777064E+02  2.642232438E+02  3.511963837E+02  1.250000000E+02  0.00000E+00  9.000E+00
      21     1     1     2   501   511  3.555384286E+00  1.294266895E+02  3.735739535E+02  3.953750213E+02  5.394796609E-06  0.00000E+00  9.000E+00
#rwgt            1           1   2.8007757483660127E-002           8      116272           0
</event>
<event>
      5   9999  3.19816E-02  3.31569E+01 -1.00000E+00  1.50082E-01
      21    -1     0     0   502   512  0.000000000E+00  0.000000000E+00  8.601028024E+02  8.601028024E+02  0.000000000E+00  0.00000E+00  9.000E+00
      21    -1     0     0   501   502  0.000000000E+00  0.000000000E+00 -3.185441870E+02  3.185441870E+02  0.000000000E+00  0.00000E+00  9.000E+00
      25     1     1     2     0     0  2.756407796E+01  3.666436794E+02  2.345491953E+02  4.536801639E+02  1.250000000E+02  0.00000E+00  9.000E+00
      25     1     1     2     0     0  1.223521075E+00 -3.830952098E+02 -1.305855902E+01  4.031860151E+02  1.250000000E+02  0.00000E+00  9.000E+00
      21     1     1     2   501   512 -2.878759904E+01  1.645153038E+01  3.200679791E+02  3.217808105E+02  3.814697266E-06  0.00000E+00  9.000E+00
#rwgt            1           1   2.7508698646576939E-002           8      116316           0
</event>
<event>
      5   9999  3.46304E-02  7.22365E+00 -1.00000E+00  2.13641E-01
      21    -1     0     0   502   501  0.000000000E+00  0.000000000E+00  4.060800645E+02  4.060800645E+02  0.000000000E+00  0.00000E+00  9.000E+00
      21    -1     0     0   501   511  0.000000000E+00  0.000000000E+00 -7.147131991E+01  7.147131991E+01  0.000000000E+00  0.00000E+00  9.000E+00
      25     1     1     2     0     0 -1.836156111E+01 -4.030987912E+01  4.678177916E+01  1.406256312E+02  1.250000000E+02  0.00000E+00  9.000E+00
      25     1     1     2     0     0  2.117879346E+01  4.696152496E+01  2.963619057E+02  3.257442329E+02  1.250000000E+02  0.00000E+00  9.000E+00
      21     1     1     2   502   511 -2.817232351E+00 -6.651645836E+00 -8.534940291E+00  1.118152030E+01  2.384185791E-07  0.00000E+00  9.000E+00
#rwgt            1           1   8.8066326112766810E-002           8      116499           0
</event>
<event>
      5   9999  3.19816E-02  2.29145E+01 -1.00000E+00  1.61637E-01
      21    -1     0     0   502   501  0.000000000E+00  0.000000000E+00  7.749930372E+02  7.749930372E+02  0.000000000E+00  0.00000E+00  9.000E+00
       2    -1     0     0   501     0  0.000000000E+00  0.000000000E+00 -1.628754213E+02  1.628754213E+02  0.000000000E+00  0.00000E+00  9.000E+00
      25     1     1     2     0     0  1.697367914E+01 -1.937013636E+02  2.238243119E+01  2.322375880E+02  1.250000000E+02  0.00000E+00  9.000E+00
      25     1     1     2     0     0 -2.817068500E+00  1.756828833E+02  6.263545876E+02  6.624330010E+02  1.250000000E+02  0.00000E+00  9.000E+00
       2     1     1     2   502     0 -1.415661064E+01  1.801848037E+01 -3.661940295E+01  4.319786954E+01  8.259061849E-07  0.00000E+00  9.000E+00
#rwgt            1           1   2.9675316041281978E-002           8      116758           0
</event>
<event>
      5   9999  3.19816E-02  4.73794E+01 -1.00000E+00  1.40423E-01
      21    -1     0     0   511   501  0.000000000E+00  0.000000000E+00  7.577013572E+02  7.577013572E+02  0.000000000E+00  0.00000E+00  9.000E+00
      21    -1     0     0   501   502  0.000000000E+00  0.000000000E+00 -6.076313129E+02  6.076313129E+02  0.000000000E+00  0.00000E+00  9.000E+00
      25     1     1     2     0     0 -2.973970446E+01  4.004988714E+02  3.316958710E+02  5.356593571E+02  1.250000000E+02  0.00000E+00  9.000E+00
      25     1     1     2     0     0  7.675811416E+01 -4.063363914E+02 -4.105080388E+02  5.959386889E+02  1.250000000E+02  0.00000E+00  9.000E+00
      21     1     1     2   511   502 -4.701840970E+01  5.837519962E+00  2.288822120E+02  2.337346240E+02  2.697398305E-06  0.00000E+00  9.000E+00
#rwgt            1           1   2.7997660503065434E-002           8      116917           0
</event>
<event>
      5   9999  3.19816E-02  4.86256E+01 -1.00000E+00  1.39770E-01
      21    -1     0     0   502   501  0.000000000E+00  0.000000000E+00  1.195985730E+03  1.195985730E+03  0.000000000E+00  0.00000E+00  9.000E+00
      21    -1     0     0   501   512  0.000000000E+00  0.000000000E+00 -1.980665306E+02  1.980665306E+02  0.000000000E+00  0.00000E+00  9.000E+00
      25     1     1     2     0     0 -2.536839568E+02 -5.761991531E+01 -6.199441221E+00  2.886850146E+02  1.250000000E+02  0.00000E+00  9.000E+00
      25     1     1     2     0     0  3.008379224E+02  4.574773392E+01  1.004231747E+03  1.056741554E+03  1.250000000E+02  0.00000E+00  9.000E+00
      21     1     1     2   502   512 -4.715396558E+01  1.187218139E+01 -1.131059309E-01  4.862569232E+01  7.084592311E-07  0.00000E+00  9.000E+00
#rwgt            1           1   1.9672018638795769E-002           8      117105           0
</event>
<event>
      5   9999  3.19816E-02  2.65850E+02 -1.00000E+00  1.07326E-01
       2    -1     0     0   502     0  0.000000000E+00  0.000000000E+00  1.098929425E+03  1.098929425E+03  0.000000000E+00  0.00000E+00  9.000E+00
      21    -1     0     0   501   502  0.000000000E+00  0.000000000E+00 -3.866117639E+02  3.866117639E+02  0.000000000E+00  0.00000E+00  9.000E+00
      25     1     1     2     0     0  4.182668457E+02  2.488945041E+02  1.643927876E+02  5.287207363E+02  1.250000000E+02  0.00000E+00  9.000E+00
      25     1     1     2     0     0 -3.562799104E+02  9.627785878E+00  3.527519643E+01  3.793381187E+02  1.250000000E+02  0.00000E+00  9.000E+00
       2     1     1     2   501     0 -6.198693533E+01 -2.585222900E+02  5.126496767E+02  5.774823336E+02  1.078959322E-05  0.00000E+00  9.000E+00
#rwgt            1           1   2.9493647809429084E-002           8      117251           0
</event>
<event>
      5   9999  3.19816E-02  2.54334E+01 -1.00000E+00  1.58194E-01
      21    -1     0     0   502   501  0.000000000E+00  0.000000000E+00  7.244713478E+02  7.244713478E+02  0.000000000E+00  0.00000E+00  9.000E+00
       2    -1     0     0   501     0  0.000000000E+00  0.000000000E+00 -1.817169195E+02  1.817169195E+02  0.000000000E+00  0.00000E+00  9.000E+00
      25     1     1     2     0     0 -3.659763809E+01 -1.217559502E+02  5.302505669E+02  5.594234194E+02  1.250000000E+02  0.00000E+00  9.000E+00
      25     1     1     2     0     0  2.466673240E+01  1.442172570E+02  1.262863340E+02  2.301745057E+02  1.250000000E+02  0.00000E+00  9.000E+00
       2     1     1     2   502     0  1.193090569E+01 -2.246130680E+01 -1.137824726E+02  1.165903422E+02  2.336015456E-06  0.00000E+00  9.000E+00
#rwgt            1           1   3.0333440785564724E-002           8      117313           0
</event>
<event>
      5   9999  3.19816E-02  6.33711E+01 -1.00000E+00  1.33447E-01
      21    -1     0     0   511   501  0.000000000E+00  0.000000000E+00  1.904262383E+03  1.904262383E+03  0.000000000E+00  0.00000E+00  9.000E+00
      21    -1     0     0   501   502  0.000000000E+00  0.000000000E+00 -5.781644576E+01  5.781644576E+01  0.000000000E+00  0.00000E+00  9.000E+00
      25     1     1     2     0     0 -2.075441119E+02  1.558752491E+02  5.345700087E+02  6.072575614E+02  1.250000000E+02  0.00000E+00  9.000E+00
      25     1     1     2     0     0  1.477988796E+02 -1.770035719E+02  8.780249035E+02  9.163664684E+02  1.250000000E+02  0.00000E+00  9.000E+00
      21     1     1     2   511   502  5.974523233E+01  2.112832278E+01  4.338510251E+02  4.384547990E+02  5.394796609E-06  0.00000E+00  9.000E+00
#rwgt            1           1   3.1791662259079194E-002           8      117403           0
</event>
<event>
      5   9999  3.19816E-02  7.87299E+01 -1.00000E+00  1.28687E-01
      21    -1     0     0   502   512  0.000000000E+00  0.000000000E+00  1.599136864E+02  1.599136864E+02  0.000000000E+00  0.00000E+00  9.000E+00
      21    -1     0     0   501   502  0.000000000E+00  0.000000000E+00 -1.400958175E+03  1.400958175E+03  0.000000000E+00  0.00000E+00  9.000E+00
      25     1     1     2     0     0 -1.630670140E+02 -1.532577001E+02 -5.153236290E+02  5.755538344E+02  1.250000000E+02  0.00000E+00  9.000E+00
      25     1     1     2     0     0  2.416677497E+02  1.487491596E+02 -8.115949389E+02  8.688158370E+02  1.250000000E+02  0.00000E+00  9.000E+00
      21     1     1     2   501   512 -7.860073577E+01  4.508540487E+00  8.587407980E+01  1.165021896E+02  2.336015456E-06  0.00000E+00  9.000E+00
#rwgt            1           1   2.8914473754837990E-002           8      117502           0
</event>
<event>
      5   9999  3.19816E-02  1.16038E+02 -1.00000E+00  1.20990E-01
      21    -1     0     0   502   501  0.000000000E+00  0.000000000E+00  3.862671957E+02  3.862671957E+02  0.000000000E+00  0.00000E+00  9.000E+00
      21    -1     0     0   511   502  0.000000000E+00  0.000000000E+00 -5.292886365E+02  5.292886365E+02  0.000000000E+00  0.00000E+00  9.000E+00
      25     1     1     2     0     0  6.479610189E+00  2.781823329E+02 -1.009020030E+02  3.212998753E+02  1.250000000E+02  0.00000E+00  9.000E+00
      25     1     1     2     0     0  2.011833350E+01 -3.911306427E+02  8.746270746E+01  4.203125648E+02  1.250000000E+02  0.00000E+00  9.000E+00
      21     1     1     2   511   501 -2.659794369E+01  1.129483098E+02 -1.295821452E+02  1.739433921E+02  2.697398305E-06  0.00000E+00  9.000E+00
#rwgt            1           1   2.8200231910805063E-002           8      117628           0
</event>
<event>
      5   9999  3.19816E-02  2.90517E+01 -1.00000E+00  1.54015E-01
      21    -1     0     0   512   501  0.000000000E+00  0.000000000E+00  1.969499031E+02  1.969499031E+02  0.000000000E+00  0.00000E+00  9.000E+00
      21    -1     0     0   501   502  0.000000000E+00  0.000000000E+00 -9.503330172E+02  9.503330172E+02  0.000000000E+00  0.00000E+00  9.000E+00
      25     1     1     2     0     0  1.095793818E+02  7.047499497E+01 -8.567801939E+02  8.755978909E+02  1.250000000E+02  0.00000E+00  9.000E+00
      25     1     1     2     0     0 -8.856139406E+01 -9.053099733E+01  1.492893332E+01  1.785689084E+02  1.250000000E+02  0.00000E+00  9.000E+00
      21     1     1     2   512   502 -2.101798779E+01  2.005600236E+01  8.846814657E+01  9.311612104E+01  1.348699152E-06  0.00000E+00  9.000E+00
#rwgt            1           1   2.9115360226104021E-002           8      117684           0
</event>
<event>
      5   9999  3.19816E-02  2.61758E+01 -1.00000E+00  1.57270E-01
      21    -1     0     0   502   501  0.000000000E+00  0.000000000E+00  4.164082947E+02  4.164082947E+02  0.000000000E+00  0.00000E+00  9.000E+00
      21    -1     0     0   501   511  0.000000000E+00  0.000000000E+00 -7.024315464E+02  7.024315464E+02  0.000000000E+00  0.00000E+00  9.000E+00
      25     1     1     2     0     0  6.476193844E+01  4.173151712E+02 -3.445520982E+02  5.591844142E+02  1.250000000E+02  0.00000E+00  9.000E+00
      25     1     1     2     0     0 -6.063245749E+01 -4.431632282E+02  1.310416062E+02  4.825627879E+02  1.250000000E+02  0.00000E+00  9.000E+00
      21     1     1     2   502   511 -4.129480948E+00  2.584805703E+01 -7.251275969E+01  7.709263896E+01  9.536743164E-07  0.00000E+00  9.000E+00
#rwgt            1           1   2.7171599406296383E-002           8      117817           0
</event>
<event>
      5   9999  3.19816E-02  1.14986E+01 -1.00000E+00  1.88998E-01
      21    -1     0     0   502   512  0.000000000E+00  0.000000000E+00  5.068099439E+01  5.068099439E+01  0.000000000E+00  0.00000E+00  9.000E+00
      21    -1     0     0   501   502  0.000000000E+00  0.000000000E+00 -1.586548799E+03  1.586548799E+03  0.000000000E+00  0.00000E+00  9.000E+00
      25     1     1     2     0     0 -1.752308123E+02 -7.251147094E+01 -2.837769702E+02  3.634805632E+02  1.250000000E+02  0.00000E+00  9.000E+00
      25     1     1     2     0     0  1.679973172E+02  6.357312332E+01 -1.223781212E+03  1.243193507E+03  1.250000000E+02  0.00000E+00  9.000E+00
      21     1     1     2   501   512  7.233495106E+00  8.938347616E+00 -2.830962252E+01  3.055572347E+01  3.371747881E-07  0.00000E+00  9.000E+00
#rwgt            1           1   3.3330014302827282E-002           8      117970           0
</event>
<event>
      5   9999  3.19816E-02  1.94809E+01 -1.00000E+00  1.67317E-01
      21    -1     0     0   502   511  0.000000000E+00  0.000000000E+00  5.986284078E+02  5.986284078E+02  0.000000000E+00  0.00000E+00  9.000E+00
      21    -1     0     0   501   502  0.000000000E+00  0.000000000E+00 -2.280566152E+02  2.280566152E+02  0.000000000E+00  0.00000E+00  9.000E+00
      25     1     1     2     0     0  1.821560095E+02  1.210290523E+02 -9.419002481E+01  2.689342003E+02  1.250000000E+02  0.00000E+00  9.000E+00
      25     1     1     2     0     0 -1.951621465E+02 -1.355323173E+02  3.487959850E+02  4.401600977E+02  1.250000000E+02  0.00000E+00  9.000E+00
      21     1     1     2   501   511  1.300613701E+01  1.450326498E+01  1.159658324E+02  1.175907249E+02  1.907348633E-06  0.00000E+00  9.000E+00
#rwgt            1           1   2.8676177133184978E-002           8      118215           0
</event>
<event>
      5   9999  3.19816E-02  4.66223E+01 -1.00000E+00  1.40831E-01
      21    -1     0     0   502   501  0.000000000E+00  0.000000000E+00  4.636689516E+02  4.636689516E+02  0.000000000E+00  0.00000E+00  9.000E+00
      21    -1     0     0   501   512  0.000000000E+00  0.000000000E+00 -6.194063379E+02  6.194063379E+02  0.000000000E+00  0.00000E+00  9.000E+00
      25     1     1     2     0     0 -3.360102937E+02  1.947905536E+01 -2.776477265E+02  4.538673937E+02  1.250000000E+02  0.00000E+00  9.000E+00
      25     1     1     2     0     0  3.734425730E+02  8.314252786E+00  2.676287525E+02  4.762128004E+02  1.250000000E+02  0.00000E+00  9.000E+00
      21     1     1     2   502   512 -3.743227935E+01 -2.779330814E+01 -1.457184123E+02  1.529950953E+02  0.000000000E+00  0.00000E+00  9.000E+00
#rwgt            1           1   2.8101564723745483E-002           8      118343           0
</event>
<event>
      5   9999  3.19816E-02  4.39713E+01 -1.00000E+00  1.42336E-01
      21    -1     0     0   502   501  0.000000000E+00  0.000000000E+00  3.548025731E+03  3.548025731E+03  0.000000000E+00  0.00000E+00  9.000E+00
      21    -1     0     0   501   511  0.000000000E+00  0.000000000E+00 -6.515227139E+01  6.515227139E+01  0.000000000E+00  0.00000E+00  9.000E+00
      25     1     1     2     0     0  9.982760814E+01 -1.418954485E+02  3.305197507E+03  3.312107400E+03  1.250000000E+02  0.00000E+00  9.000E+00
      25     1     1     2     0     0 -9.934157069E+01  9.792685817E+01  1.760727808E+02  2.570701098E+02  1.250000000E+02  0.00000E+00  9.000E+00
      21     1     1     2   502   511 -4.860374445E-01  4.396859030E+01  1.603171683E+00  4.400049232E+01  5.599348017E-07  0.00000E+00  9.000E+00
#rwgt            1           1   1.7702826175604449E-002           8      118454           0
</event>
<event>
      5   9999  3.19816E-02  1.24471E+02 -1.00000E+00  1.19698E-01
      21    -1     0     0   512   501  0.000000000E+00  0.000000000E+00  2.336326638E+02  2.336326638E+02  0.000000000E+00  0.00000E+00  9.000E+00
      21    -1     0     0   501   502  0.000000000E+00  0.000000000E+00 -2.736981697E+02  2.736981697E+02  0.000000000E+00  0.00000E+00  9.000E+00
      25     1     1     2     0     0 -7.462212305E+01  8.397028191E+01 -1.388739128E+02  2.180147544E+02  1.250000000E+02  0.00000E+00  9.000E+00
      25     1     1     2     0     0  5.377789823E+01  3.874332060E+01  8.249865458E+01  1.637807536E+02  1.250000000E+02  0.00000E+00  9.000E+00
      21     1     1     2   512   502  2.084422482E+01 -1.227136025E+02  1.630975230E+01  1.255353256E+02  2.821006671E-06  0.00000E+00  9.000E+00
#rwgt            1           1   2.4950874679047042E-002           8      118583           0
</event>
<event>
      5   9999  3.19816E-02  2.22935E+01 -1.00000E+00  1.62571E-01
      21    -1     0     0   502   501  0.000000000E+00  0.000000000E+00  1.145166724E+02  1.145166724E+02  0.000000000E+00  0.00000E+00  9.000E+00
      21    -1     0     0   501   511  0.000000000E+00  0.000000000E+00 -8.524242970E+02  8.524242970E+02  0.000000000E+00  0.00000E+00  9.000E+00
      25     1     1     2     0     0  1.170506928E+02  1.745246874E+02 -6.083700623E+02  6.556667324E+02  1.250000000E+02  0.00000E+00  9.000E+00
      25     1     1     2     0     0 -1.056924509E+02 -1.937077510E+02 -9.635558021E+01  2.712987004E+02  1.250000000E+02  0.00000E+00  9.000E+00
      21     1     1     2   502   511 -1.135824191E+01  1.918306365E+01 -3.318198210E+01  3.997553660E+01  0.000000000E+00  0.00000E+00  9.000E+00
#rwgt            1           1   3.3714312525560529E-002           8      118615           0
</event>
<event>
      5   9999  3.19816E-02  8.39606E+01 -1.00000E+00  1.27342E-01
      21    -1     0     0   502   501  0.000000000E+00  0.000000000E+00  1.849939198E+02  1.849939198E+02  0.000000000E+00  0.00000E+00  9.000E+00
       2    -1     0     0   501     0  0.000000000E+00  0.000000000E+00 -1.200575660E+03  1.200575660E+03  0.000000000E+00  0.00000E+00  9.000E+00
      25     1     1     2     0     0 -1.211539704E+01 -1.497499500E+02 -7.487164812E+02  7.738043678E+02  1.250000000E+02  0.00000E+00  9.000E+00
      25     1     1     2     0     0  9.535849195E+01  1.387969013E+02  1.021807060E+02  2.332889163E+02  1.250000000E+02  0.00000E+00  9.000E+00
       2     1     1     2   502     0 -8.324309492E+01  1.095304876E+01 -3.690459652E+02  3.784762959E+02  5.394796609E-06  0.00000E+00  9.000E+00
#rwgt            1           1   2.6906530317555313E-002           8      118807           0
</event>
<event>
      5   9999  3.19816E-02  1.47784E+01 -1.00000E+00  1.77995E-01
      21    -1     0     0   502   501  0.000000000E+00  0.000000000E+00  1.742957585E+02  1.742957585E+02  0.000000000E+00  0.00000E+00  9.000E+00
      21    -1     0     0   511   502  0.000000000E+00  0.000000000E+00 -1.085631254E+03  1.085631254E+03  0.000000000E+00  0.00000E+00  9.000E+00
      25     1     1     2     0     0  2.647526497E+02 -1.824186191E+02 -4.481603099E+02  5.655467987E+02  1.250000000E+02  0.00000E+00  9.000E+00
      25     1     1     2     0     0 -2.795310129E+02  1.824181426E+02 -1.597376306E+02  3.905829957E+02  1.250000000E+02  0.00000E+00  9.000E+00
      21     1     1     2   511   501  1.477836320E+01  4.765434263E-04 -3.034375547E+02  3.037972179E+02  0.000000000E+00  0.00000E+00  9.000E+00
#rwgt            1           1   2.8156043062115704E-002           8      118886           0
</event>
<event>
      5   9999  3.19816E-02  6.41810E+01 -1.00000E+00  1.33158E-01
      21    -1     0     0   502   501  0.000000000E+00  0.000000000E+00  7.687943924E+02  7.687943924E+02  0.000000000E+00  0.00000E+00  9.000E+00
      21    -1     0     0   501   512  0.000000000E+00  0.000000000E+00 -2.616078805E+02  2.616078805E+02  0.000000000E+00  0.00000E+00  9.000E+00
      25     1     1     2     0     0  9.948651120E+01 -3.346629680E+02  2.866411568E+02  4.687056868E+02  1.250000000E+02  0.00000E+00  9.000E+00
      25     1     1     2     0     0 -3.743338454E+01  3.182738084E+02  3.021743323E+02  4.578578409E+02  1.250000000E+02  0.00000E+00  9.000E+00
      21     1     1     2   502   512 -6.205312665E+01  1.638915960E+01 -8.162897722E+01  1.038387452E+02  9.536743164E-07  0.00000E+00  9.000E+00
#rwgt            1           1   2.8774144366581673E-002           8      119188           0
</event>
<event>
      5   9999  3.19816E-02  1.08734E+01 -1.00000E+00  1.91645E-01
      21    -1     0     0   502   501  0.000000000E+00  0.000000000E+00  5.299918229E+02  5.299918229E+02  0.000000000E+00  0.00000E+00  9.000E+00
      21    -1     0     0   501   511  0.000000000E+00  0.000000000E+00 -2.188586864E+03  2.188586864E+03  0.000000000E+00  0.00000E+00  9.000E+00
      25     1     1     2     0     0 -2.635179122E+02 -7.077232573E+02 -1.759038323E+03  1.918372936E+03  1.250000000E+02  0.00000E+00  9.000E+00
      25     1     1     2     0     0  2.639135970E+02  7.185895014E+02  1.127199245E+02  7.838061237E+02  1.250000000E+02  0.00000E+00  9.000E+00
      21     1     1     2   502   511 -3.956848356E-01 -1.086624407E+01 -1.227664256E+01  1.639962741E+01  2.920019320E-07  0.00000E+00  9.000E+00
#rwgt            1           1   3.0394610100989056E-002           8      119295           0
</event>
<event>
      5   9999  3.19816E-02  6.62375E+01 -1.00000E+00  1.32448E-01
      21    -1     0     0   502   501  0.000000000E+00  0.000000000E+00  5.222497639E+02  5.222497639E+02  0.000000000E+00  0.00000E+00  9.000E+00
      -5    -1     0     0     0   502  0.000000000E+00  0.000000000E+00 -2.689283654E+02  2.689283654E+02  0.000000000E+00  0.00000E+00  9.000E+00
      25     1     1     2     0     0  2.409712978E+02 -2.551967522E+00  3.697696446E+02  4.587246112E+02  1.250000000E+02  0.00000E+00  9.000E+00
      25     1     1     2     0     0 -1.771939974E+02  2.043655877E+01 -2.457179336E+01  2.191897322E+02  1.250000000E+02  0.00000E+00  9.000E+00
      -5     1     1     2     0   501 -6.377730042E+01 -1.788459125E+01 -9.187645263E+01  1.132637859E+02  1.348699152E-06  0.00000E+00  9.000E+00
#rwgt            1           1   3.0133600701623686E-002           8      119631           0
</event>
<event>
      5   9999  3.19816E-02  3.71850E+01 -1.00000E+00  1.46833E-01
      21    -1     0     0   502   501  0.000000000E+00  0.000000000E+00  4.427950040E+02  4.427950040E+02  0.000000000E+00  0.00000E+00  9.000E+00
      21    -1     0     0   511   502  0.000000000E+00  0.000000000E+00 -1.198435522E+02  1.198435522E+02  0.000000000E+00  0.00000E+00  9.000E+00
      25     1     1     2     0     0  1.229268160E+02 -1.292564553E+02  1.640826140E+02  2.727019207E+02  1.250000000E+02  0.00000E+00  9.000E+00
      25     1     1     2     0     0 -1.327466324E+02  9.339153072E+01  1.408886418E+02  2.486327730E+02  1.250000000E+02  0.00000E+00  9.000E+00
      21     1     1     2   511   501  9.819816420E+00  3.586492461E+01  1.798019593E+01  4.130386250E+01  7.152557373E-07  0.00000E+00  9.000E+00
#rwgt            1           1   2.7132871725250616E-002           8      119692           0
</event>
<event>
      5   9999  3.19816E-02  7.21502E+01 -1.00000E+00  1.30559E-01
      21    -1     0     0   502   501  0.000000000E+00  0.000000000E+00  3.059647773E+02  3.059647773E+02  0.000000000E+00  0.00000E+00  9.000E+00
      21    -1     0     0   501   512  0.000000000E+00  0.000000000E+00 -2.176920717E+02  2.176920717E+02  0.000000000E+00  0.00000E+00  9.000E+00
      25     1     1     2     0     0  1.543524017E+02  7.983596896E+01 -2.091142011E+01  2.150830847E+02  1.250000000E+02  0.00000E+00  9.000E+00
      25     1     1     2     0     0 -8.556949499E+01 -1.016203496E+02  1.401746630E+02  2.300494948E+02  1.250000000E+02  0.00000E+00  9.000E+00
      21     1     1     2   502   512 -6.878290667E+01  2.178438061E+01 -3.099053725E+01  7.852426942E+01  1.507891493E-06  0.00000E+00  9.000E+00
#rwgt            1           1   2.9014565200034287E-002           8      119837           0
</event>
<event>
      5   9999  3.19816E-02  5.18894E+01 -1.00000E+00  1.38163E-01
      21    -1     0     0   502   501  0.000000000E+00  0.000000000E+00  1.538316209E+03  1.538316209E+03  0.000000000E+00  0.00000E+00  9.000E+00
       2    -1     0     0   501     0  0.000000000E+00  0.000000000E+00 -1.391921757E+03  1.391921757E+03  0.000000000E+00  0.00000E+00  9.000E+00
      25     1     1     2     0     0  5.766329627E+02  6.919754304E+02  2.260111713E+01  9.096545391E+02  1.250000000E+02  0.00000E+00  9.000E+00
      25     1     1     2     0     0 -5.821069297E+02 -6.403756060E+02  8.928990924E+02  1.249729244E+03  1.250000000E+02  0.00000E+00  9.000E+00
       2     1     1     2   502     0  5.473966909E+00 -5.159982437E+01 -7.691057571E+02  7.708541832E+02  1.525878906E-05  0.00000E+00  9.000E+00
#rwgt            1           1   3.5330813028910051E-002           8      119932           0
</event>
<event>
      5   9999  3.19816E-02  7.84588E+01 -1.00000E+00  1.28760E-01
      21    -1     0     0   502   501  0.000000000E+00  0.000000000E+00  4.050980519E+02  4.050980519E+02  0.000000000E+00  0.00000E+00  9.000E+00
      21    -1     0     0   511   502  0.000000000E+00  0.000000000E+00 -3.345659032E+02  3.345659032E+02  0.000000000E+00  0.00000E+00  9.000E+00
      25     1     1     2     0     0 -2.631074134E+02 -1.232647434E+02  1.656655470E+02  3.570571123E+02  1.250000000E+02  0.00000E+00  9.000E+00
      25     1     1     2     0     0  1.846491906E+02  1.229646446E+02  5.875711673E+00  2.547060098E+02  1.250000000E+02  0.00000E+00  9.000E+00
      21     1     1     2   511   501  7.845822280E+01  3.000987327E-01 -1.010091100E+02  1.279008330E+02  1.348699152E-06  0.00000E+00  9.000E+00
#rwgt            1           1   3.1227831625406342E-002           8      120040           0
</event>
<event>
      5   9999  3.19816E-02  5.44299E+02 -1.00000E+00  9.78158E-02
      21    -1     0     0   502   512  0.000000000E+00  0.000000000E+00  1.894269994E+03  1.894269994E+03  0.000000000E+00  0.00000E+00  9.000E+00
      21    -1     0     0   501   502  0.000000000E+00  0.000000000E+00 -9.738613654E+02  9.738613654E+02  0.000000000E+00  0.00000E+00  9.000E+00
      25     1     1     2     0     0 -1.027313017E+03 -4.184201531E+00  1.578710089E+02  1.046870478E+03  1.250000000E+02  0.00000E+00  9.000E+00
      25     1     1     2     0     0  9.585730076E+02  5.441251631E+02  4.941816527E+02  1.214403108E+03  1.250000000E+02  0.00000E+00  9.000E+00
      21     1     1     2   501   512  6.874000978E+01 -5.399409615E+02  2.683559666E+02  6.068577722E+02  7.629394531E-06  0.00000E+00  9.000E+00
#rwgt            2          11   2.7816746323935334E-003           8      120192           0
</event>
<event>
      5   9999  3.19816E-02  4.08975E+01 -1.00000E+00  1.44245E-01
      21    -1     0     0   502   511  0.000000000E+00  0.000000000E+00  1.766279242E+02  1.766279242E+02  0.000000000E+00  0.00000E+00  9.000E+00
      21    -1     0     0   501   502  0.000000000E+00  0.000000000E+00 -1.757917543E+03  1.757917543E+03  0.000000000E+00  0.00000E+00  9.000E+00
      25     1     1     2     0     0  2.383380625E+02 -2.722323125E+02 -1.388918940E+03  1.440706871E+03  1.250000000E+02  0.00000E+00  9.000E+00
      25     1     1     2     0     0 -2.709913119E+02  2.476076755E+02 -2.187014466E+02  4.451979053E+02  1.250000000E+02  0.00000E+00  9.000E+00
      21     1     1     2   501   511  3.265324942E+01  2.462463705E+01  2.633076859E+01  4.864069101E+01  1.430511475E-06  0.00000E+00  9.000E+00
#rwgt            1           1   2.7088262800351662E-002           8      120272           0
</event>
<event>
      5   9999  3.19816E-02  5.17435E+01 -1.00000E+00  1.38232E-01
      21    -1     0     0   502   501  0.000000000E+00  0.000000000E+00  3.399123777E+02  3.399123777E+02  0.000000000E+00  0.00000E+00  9.000E+00
      21    -1     0     0   512   502  0.000000000E+00  0.000000000E+00 -1.322538860E+02  1.322538860E+02  0.000000000E+00  0.00000E+00  9.000E+00
      25     1     1     2     0     0  1.195149183E+02 -2.272771106E+01  1.162354441E+02  2.096092627E+02  1.250000000E+02  0.00000E+00  9.000E+00
      25     1     1     2     0     0 -1.228481299E+02  7.436369311E+01  9.051157731E+01  2.108055206E+02  1.250000000E+02  0.00000E+00  9.000E+00
      21     1     1     2   512   501  3.333211674E+00 -5.163598205E+01  9.114702151E-01  5.175148036E+01  8.933864407E-07  0.00000E+00  9.000E+00
#rwgt            1           1   2.6840619744596485E-002           8      120433           0
</event>
<event>
      5   9999  3.19816E-02  2.27339E+01 -1.00000E+00  1.61905E-01
      21    -1     0     0   502   501  0.000000000E+00  0.000000000E+00  1.596500566E+01  1.596500566E+01  0.000000000E+00  0.00000E+00  9.000E+00
      21    -1     0     0   511   502  0.000000000E+00  0.000000000E+00 -2.411811399E+03  2.411811399E+03  0.000000000E+00  0.00000E+00  9.000E+00
      25     1     1     2     0     0  1.036361909E+02 -3.336528515E+01 -1.384057399E+03  1.393948918E+03  1.250000000E+02  0.00000E+00  9.000E+00
      25     1     1     2     0     0 -1.189046981E+02  1.652174010E+01 -6.971880607E+02  7.184062131E+02  1.250000000E+02  0.00000E+00  9.000E+00
      21     1     1     2   511   501  1.526850719E+01  1.684354505E+01 -3.146009336E+02  3.154212735E+02  3.814697266E-06  0.00000E+00  9.000E+00
#rwgt            1           1   7.5444553877398249E-002           8      120531           0
</event>
<event>
      5   9999  3.19816E-02  2.99109E+01 -1.00000E+00  1.53130E-01
      21    -1     0     0   502   501  0.000000000E+00  0.000000000E+00  2.331950639E+02  2.331950639E+02  0.000000000E+00  0.00000E+00  9.000E+00
      21    -1     0     0   501   512  0.000000000E+00  0.000000000E+00 -5.210037280E+02  5.210037280E+02  0.000000000E+00  0.00000E+00  9.000E+00
      25     1     1     2     0     0 -1.126632959E+02 -2.581515121E+01  1.759681516E+02  2.448453198E+02  1.250000000E+02  0.00000E+00  9.000E+00
      25     1     1     2     0     0  1.080055453E+02  5.536117071E+01 -4.315096325E+02  4.653553695E+02  1.250000000E+02  0.00000E+00  9.000E+00
      21     1     1     2   502   512  4.657750511E+00 -2.954601949E+01 -3.226718334E+01  4.399810255E+01  6.743495762E-07  0.00000E+00  9.000E+00
#rwgt            1           1   2.8567398680629515E-002           8      120627           0
</event>
<event>
      5   9999  3.19816E-02  1.25693E+02 -1.00000E+00  1.19520E-01
      21    -1     0     0   511   501  0.000000000E+00  0.000000000E+00  2.832765070E+02  2.832765070E+02  0.000000000E+00  0.00000E+00  9.000E+00
      21    -1     0     0   501   502  0.000000000E+00  0.000000000E+00 -9.858231271E+02  9.858231271E+02  0.000000000E+00  0.00000E+00  9.000E+00
      25     1     1     2     0     0 -3.550622637E+02  1.465565385E+02 -2.253518016E+02  4.625542828E+02  1.250000000E+02  0.00000E+00  9.000E+00
      25     1     1     2     0     0  2.756278096E+02 -4.914498975E+01 -5.720752094E+02  6.490616031E+02  1.250000000E+02  0.00000E+00  9.000E+00
      21     1     1     2   511   502  7.943445408E+01 -9.741154874E+01  9.488039092E+01  1.574837481E+02  3.015782986E-06  0.00000E+00  9.000E+00
#rwgt            1           1   2.8468170235356933E-002           8      120755           0
</event>
<event>
      5   9999  3.19816E-02  8.19527E+01 -1.00000E+00  1.27845E-01
      -1    -1     0     0     0   501  0.000000000E+00  0.000000000E+00  6.439413242E+02  6.439413242E+02  0.000000000E+00  0.00000E+00  9.000E+00
      21    -1     0     0   501   502  0.000000000E+00  0.000000000E+00 -8.797820096E+02  8.797820096E+02  0.000000000E+00  0.00000E+00  9.000E+00
      25     1     1     2     0     0 -2.999536646E+02 -2.978491264E+02 -6.024930909E+02  7.465314645E+02  1.250000000E+02  0.00000E+00  9.000E+00
      25     1     1     2     0     0  2.853353410E+02  2.172107138E+02 -2.160504025E+01  3.803794537E+02  1.250000000E+02  0.00000E+00  9.000E+00
      -1     1     1     2     0   502  1.461832358E+01  8.063841255E+01  3.882574458E+02  3.968124156E+02  0.000000000E+00  0.00000E+00  9.000E+00
#rwgt            1           1   3.0028160295523996E-002           8      120821           0
</event>
<event>
      5   9999  3.19816E-02  9.89598E+01 -1.00000E+00  1.24033E-01
      -1    -1     0     0     0   501  0.000000000E+00  0.000000000E+00  9.592180584E+02  9.592180584E+02  0.000000000E+00  0.00000E+00  9.000E+00
      21    -1     0     0   501   502  0.000000000E+00  0.000000000E+00 -1.084427651E+02  1.084427651E+02  0.000000000E+00  0.00000E+00  9.000E+00
      25     1     1     2     0     0  1.100042947E+02 -3.205009720E+01  2.197365481E+02  2.775559477E+02  1.250000000E+02  0.00000E+00  9.000E+00
      25     1     1     2     0     0 -1.211329818E+02  1.303821835E+02  8.232766262E+01  2.325415169E+02  1.250000000E+02  0.00000E+00  9.000E+00
      -1     1     1     2     0   502  1.112868713E+01 -9.833208633E+01  5.487110827E+02  5.575633589E+02  7.629394531E-06  0.00000E+00  9.000E+00
#rwgt            1           1   3.0265285143017764E-002           8      120894           0
</event>
<event>
      5   9999  3.19816E-02  1.15835E+02 -1.00000E+00  1.21023E-01
      21    -1     0     0   511   501  0.000000000E+00  0.000000000E+00  4.653380275E+02  4.653380275E+02  0.000000000E+00  0.00000E+00  9.000E+00
      21    -1     0     0   501   502  0.000000000E+00  0.000000000E+00 -7.110066034E+02  7.110066034E+02  0.000000000E+00  0.00000E+00  9.000E+00
      25     1     1     2     0     0 -5.178452171E+01 -1.379807271E+02 -4.075252210E+02  4.510234179E+02  1.250000000E+02  0.00000E+00  9.000E+00
      25     1     1     2     0     0  1.638621436E+02  1.672429848E+02 -2.083440239E+02  3.374214729E+02  1.250000000E+02  0.00000E+00  9.000E+00
      21     1     1     2   511   502 -1.120776219E+02 -2.926225767E+01  3.702006690E+02  3.878997402E+02  0.000000000E+00  0.00000E+00  9.000E+00
#rwgt            1           1   2.6885751416602287E-002           8      120925           0
</event>
<event>
      5   9999  3.19816E-02  2.62922E+01 -1.00000E+00  1.57129E-01
      21    -1     0     0   502   501  0.000000000E+00  0.000000000E+00  4.985902183E+02  4.985902183E+02  0.000000000E+00  0.00000E+00  9.000E+00
      21    -1     0     0   512   502  0.000000000E+00  0.000000000E+00 -9.055400463E+01  9.055400463E+01  0.000000000E+00  0.00000E+00  9.000E+00
      25     1     1     2     0     0 -9.115215164E+01  6.698871261E+01  1.887794428E+02  2.530985587E+02  1.250000000E+02  0.00000E+00  9.000E+00
      25     1     1     2     0     0  1.174440629E+02 -6.711426421E+01  2.400206590E+02  3.025431359E+02  1.250000000E+02  0.00000E+00  9.000E+00
      21     1     1     2   512   501 -2.629191125E+01  1.255516007E-01 -2.076388807E+01  3.350252839E+01  5.331201500E-07  0.00000E+00  9.000E+00
#rwgt            1           1   2.6929303835399220E-002           8      120982           0
</event>
<event>
      5   9999  3.19816E-02  3.08602E+01 -1.00000E+00  1.52192E-01
      21    -1     0     0   502   501  0.000000000E+00  0.000000000E+00  1.466853641E+02  1.466853641E+02  0.000000000E+00  0.00000E+00  9.000E+00
      21    -1     0     0   501   511  0.000000000E+00  0.000000000E+00 -5.071008725E+02  5.071008725E+02  0.000000000E+00  0.00000E+00  9.000E+00
      25     1     1     2     0     0 -2.506982667E+01  3.038273085E+01 -3.829432653E+02  4.047494917E+02  1.250000000E+02  0.00000E+00  9.000E+00
      25     1     1     2     0     0  2.716661249E+01 -6.117159149E+01  9.472389673E+01  1.705215677E+02  1.250000000E+02  0.00000E+00  9.000E+00
      21     1     1     2   502   511 -2.096785826E+00  3.078886063E+01 -7.219613986E+01  7.851517727E+01  9.536743164E-07  0.00000E+00  9.000E+00
#rwgt            1           1   2.8994067868164518E-002           8      121135           0
</event>
<event>
      5   9999  3.19816E-02  1.13231E+02 -1.00000E+00  1.21448E-01
      21    -1     0     0   502   512  0.000000000E+00  0.000000000E+00  1.210936779E+03  1.210936779E+03  0.000000000E+00  0.00000E+00  9.000E+00
      21    -1     0     0   501   502  0.000000000E+00  0.000000000E+00 -1.565579948E+02  1.565579948E+02  0.000000000E+00  0.00000E+00  9.000E+00
      25     1     1     2     0     0  7.956112641E+01 -8.140322280E+01 -3.746382658E+01  1.731617620E+02  1.250000000E+02  0.00000E+00  9.000E+00
      25     1     1     2     0     0 -1.899535327E+02  1.066001764E+02  2.861670042E+02  3.807394076E+02  1.250000000E+02  0.00000E+00  9.000E+00
      21     1     1     2   501   512  1.103924063E+02 -2.519695360E+01  8.056756067E+02  8.135936044E+02  0.000000000E+00  0.00000E+00  9.000E+00
#rwgt            1           1   2.6535846268511087E-002           8      121280           0
</event>
<event>
      5   9999  3.19816E-02  9.94943E+01 -1.00000E+00  1.23927E-01
       1    -1     0     0   502     0  0.000000000E+00  0.000000000E+00  1.344770798E+02  1.344770798E+02  0.000000000E+00  0.00000E+00  9.000E+00
      21    -1     0     0   501   502  0.000000000E+00  0.000000000E+00 -5.671731615E+02  5.671731615E+02  0.000000000E+00  0.00000E+00  9.000E+00
      25     1     1     2     0     0  6.415743025E+01 -1.266359793E+01 -9.153731101E+01  1.681684331E+02  1.250000000E+02  0.00000E+00  9.000E+00
      25     1     1     2     0     0 -8.942979242E+01  1.088946584E+02 -3.820116999E+02  4.259268403E+02  1.250000000E+02  0.00000E+00  9.000E+00
       1     1     1     2   501     0  2.527236217E+01 -9.623106048E+01  4.085292921E+01  1.075549679E+02  2.132480600E-06  0.00000E+00  9.000E+00
#rwgt            2          17   9.1615011456723207E-005           8      121417           0
</event>
<event>
      5   9999  3.19816E-02  5.23572E+01 -1.00000E+00  1.37944E-01
      21    -1     0     0   502   511  0.000000000E+00  0.000000000E+00  1.888755600E+03  1.888755600E+03  0.000000000E+00  0.00000E+00  9.000E+00
      21    -1     0     0   501   502  0.000000000E+00  0.000000000E+00 -1.098520833E+02  1.098520833E+02  0.000000000E+00  0.00000E+00  9.000E+00
      25     1     1     2     0     0  2.241783344E+02  3.726106640E+01  1.127181546E+02  2.827979757E+02  1.250000000E+02  0.00000E+00  9.000E+00
      25     1     1     2     0     0 -2.137495458E+02 -8.856913224E+01  6.930506909E+02  7.412675763E+02  1.250000000E+02  0.00000E+00  9.000E+00
      21     1     1     2   501   511 -1.042878860E+01  5.130806584E+01  9.731346712E+02  9.745421312E+02  1.078959322E-05  0.00000E+00  9.000E+00
#rwgt            1           1   2.7463164736844514E-002           8      121436           0
</event>
<event>
      5   9999  3.19816E-02  5.00083E+01 -1.00000E+00  1.39071E-01
      21    -1     0     0   502   512  0.000000000E+00  0.000000000E+00  1.777146502E+03  1.777146502E+03  0.000000000E+00  0.00000E+00  9.000E+00
      21    -1     0     0   501   502  0.000000000E+00  0.000000000E+00 -2.373010536E+03  2.373010536E+03  0.000000000E+00  0.00000E+00  9.000E+00
      25     1     1     2     0     0 -3.845968545E+02  7.174756370E+02  1.518568819E+03  1.727530691E+03  1.250000000E+02  0.00000E+00  9.000E+00
      25     1     1     2     0     0  3.581071121E+02 -7.598917489E+02 -2.180330336E+03  2.339902038E+03  1.250000000E+02  0.00000E+00  9.000E+00
      21     1     1     2   501   512  2.648974240E+01  4.241611186E+01  6.589748275E+01  8.272430858E+01  9.536743164E-07  0.00000E+00  9.000E+00
#rwgt            2          11   2.3724276327746121E-002           8      121637           0
</event>
<event>
      5   9999  3.19816E-02  1.06387E+02 -1.00000E+00  1.22631E-01
      21    -1     0     0   502   501  0.000000000E+00  0.000000000E+00  4.935756353E+02  4.935756353E+02  0.000000000E+00  0.00000E+00  9.000E+00
      -1    -1     0     0     0   502  0.000000000E+00  0.000000000E+00 -7.865914078E+02  7.865914078E+02  0.000000000E+00  0.00000E+00  9.000E+00
      25     1     1     2     0     0  1.838692269E+02 -3.912895860E+02  6.051299468E+01  4.540949848E+02  1.250000000E+02  0.00000E+00  9.000E+00
      25     1     1     2     0     0 -8.042215122E+01  3.664541774E+02  5.919549493E+01  3.998568408E+02  1.250000000E+02  0.00000E+00  9.000E+00
      -1     1     1     2     0   501 -1.034470757E+02  2.483540862E+01 -4.127242621E+02  4.262152174E+02  7.629394531E-06  0.00000E+00  9.000E+00
#rwgt            1           1   2.6504866972368382E-002           8      121657           0
</event>
<event>
      5   9999  3.19816E-02  3.33609E+01 -1.00000E+00  1.49904E-01
      21    -1     0     0   511   501  0.000000000E+00  0.000000000E+00  1.837479077E+03  1.837479077E+03  0.000000000E+00  0.00000E+00  9.000E+00
      21    -1     0     0   501   502  0.000000000E+00  0.000000000E+00 -1.623790862E+02  1.623790862E+02  0.000000000E+00  0.00000E+00  9.000E+00
      25     1     1     2     0     0  3.297609567E+02 -1.406230670E+02  1.029007375E+03  1.096812798E+03  1.250000000E+02  0.00000E+00  9.000E+00
      25     1     1     2     0     0 -2.974723058E+02  1.490130485E+02  1.188669499E+02  3.747652773E+02  1.250000000E+02  0.00000E+00  9.000E+00
      21     1     1     2   511   502 -3.228865092E+01 -8.389981477E+00  5.272256656E+02  5.282800879E+02  1.078959322E-05  0.00000E+00  9.000E+00
#rwgt            1           1   2.6974764104994112E-002           8      121730           0
</event>
<event>
      5   9999  3.19816E-02  3.15490E+02 -1.00000E+00  1.04886E-01
      21    -1     0     0   502   501  0.000000000E+00  0.000000000E+00  4.263412248E+02  4.263412248E+02  0.000000000E+00  0.00000E+00  9.000E+00
      -1    -1     0     0     0   502  0.000000000E+00  0.000000000E+00 -9.111861658E+02  9.111861658E+02  0.000000000E+00  0.00000E+00  9.000E+00
      25     1     1     2     0     0  3.580125547E+01 -7.908552799E+01 -6.639605511E+02  6.811790250E+02  1.250000000E+02  0.00000E+00  9.000E+00
      25     1     1     2     0     0 -1.870723856E+02 -1.977734324E+02  1.310121235E+01  2.998450430E+02  1.250000000E+02  0.00000E+00  9.000E+00
      -1     1     1     2     0   501  1.512711301E+02  2.768589604E+02  1.660143978E+02  3.565033226E+02  2.697398305E-06  0.00000E+00  9.000E+00
#rwgt            2          10   2.2958607165180637E-005           8      121918           0
</event>
<event>
      5   9999  3.19816E-02  1.97746E+01 -1.00000E+00  1.66776E-01
      21    -1     0     0   502   511  0.000000000E+00  0.000000000E+00  2.267012928E+02  2.267012928E+02  0.000000000E+00  0.00000E+00  9.000E+00
      21    -1     0     0   501   502  0.000000000E+00  0.000000000E+00 -4.153045209E+02  4.153045209E+02  0.000000000E+00  0.00000E+00  9.000E+00
      25     1     1     2     0     0 -2.279995757E+01 -1.342614729E+02 -3.368872962E+02  3.842707789E+02  1.250000000E+02  0.00000E+00  9.000E+00
      25     1     1     2     0     0  5.781896302E+00  1.443322546E+02  1.349936100E+02  2.339091806E+02  1.250000000E+02  0.00000E+00  9.000E+00
      21     1     1     2   501   511  1.701806127E+01 -1.007078167E+01  1.329045808E+01  2.382585421E+01  2.384185791E-07  0.00000E+00  9.000E+00
#rwgt            1           1   2.8678549325715001E-002           8      121967           0
</event>
<event>
      5   9999  3.19816E-02  7.39400E+00 -1.00000E+00  2.12246E-01
      21    -1     0     0   502   501  0.000000000E+00  0.000000000E+00  2.572170010E+01  2.572170010E+01  0.000000000E+00  0.00000E+00  9.000E+00
      21    -1     0     0   512   502  0.000000000E+00  0.000000000E+00 -1.835289602E+03  1.835289602E+03  0.000000000E+00  0.00000E+00  9.000E+00
      25     1     1     2     0     0 -5.749708166E+01 -6.736068241E+01 -2.874844010E+02  3.257539819E+02  1.250000000E+02  0.00000E+00  9.000E+00
      25     1     1     2     0     0  6.242233665E+01  6.184586878E+01 -8.824111218E+02  8.955422087E+02  1.250000000E+02  0.00000E+00  9.000E+00
      21     1     1     2   512   501 -4.925254989E+00  5.514813633E+00 -6.396723788E+02  6.397151112E+02  0.000000000E+00  0.00000E+00  9.000E+00
#rwgt            1           1   3.2641949787910372E-002           8      122085           0
</event>
<event>
      5   9999  3.19816E-02  3.97253E+01 -1.00000E+00  1.45026E-01
      21    -1     0     0   502   501  0.000000000E+00  0.000000000E+00  7.309723198E+02  7.309723198E+02  0.000000000E+00  0.00000E+00  9.000E+00
      21    -1     0     0   501   511  0.000000000E+00  0.000000000E+00 -2.577706307E+02  2.577706307E+02  0.000000000E+00  0.00000E+00  9.000E+00
      25     1     1     2     0     0 -1.737338057E+02 -2.222970089E+02  1.489820820E+02  3.426661001E+02  1.250000000E+02  0.00000E+00  9.000E+00
      25     1     1     2     0     0  2.108385107E+02  2.081075725E+02  4.277866737E+02  5.351523872E+02  1.250000000E+02  0.00000E+00  9.000E+00
      21     1     1     2   502   511 -3.710470496E+01  1.418943633E+01 -1.035670666E+02  1.109244631E+02  2.336015456E-06  0.00000E+00  9.000E+00
#rwgt            1           1   2.9304201601414760E-002           8      122289           0
</event>
<event>
      5   9999  3.19816E-02  4.69116E+02 -1.00000E+00  9.96450E-02
       1    -1     0     0   502     0  0.000000000E+00  0.000000000E+00  1.912330431E+03  1.912330431E+03  0.000000000E+00  0.00000E+00  9.000E+00
      21    -1     0     0   501   502  0.000000000E+00  0.000000000E+00 -1.158929889E+03  1.158929889E+03  0.000000000E+00  0.00000E+00  9.000E+00
      25     1     1     2     0     0  3.056108113E+02 -6.595176292E+02  6.836435223E+02  1.005661442E+03  1.250000000E+02  0.00000E+00  9.000E+00
      25     1     1     2     0     0 -2.988852854E+02  1.128585886E+03 -5.431997350E+02  1.293726968E+03  1.250000000E+02  0.00000E+00  9.000E+00
       1     1     1     2   501     0 -6.725525922E+00 -4.690682568E+02  6.129567547E+02  7.718719100E+02  7.629394531E-06  0.00000E+00  9.000E+00
#rwgt            1           1   1.3680639285977613E-002           8      122408           0
</event>
<event>
      5   9999  3.19816E-02  1.62549E+02 -1.00000E+00  1.15027E-01
      21    -1     0     0   511   501  0.000000000E+00  0.000000000E+00  9.875250741E+02  9.875250741E+02  0.000000000E+00  0.00000E+00  9.000E+00
      21    -1     0     0   501   502  0.000000000E+00  0.000000000E+00 -3.400920129E+02  3.400920129E+02  0.000000000E+00  0.00000E+00  9.000E+00
      25     1     1     2     0     0  1.915396703E+01  8.884624453E+01  2.473348198E+02  2.916505489E+02  1.250000000E+02  0.00000E+00  9.000E+00
      25     1     1     2     0     0  1.134426419E+02  5.176390416E+00 -2.853106052E+02  3.315466324E+02  1.250000000E+02  0.00000E+00  9.000E+00
      21     1     1     2   511   502 -1.325966089E+02 -9.402263495E+01  6.854088466E+02  7.044199057E+02  1.078959322E-05  0.00000E+00  9.000E+00
#rwgt            1           1   2.7317438433638958E-002           8      122472           0
</event>
<event>
      5   9999  3.19816E-02  5.89914E+01 -1.00000E+00  1.35098E-01
      21    -1     0     0   502   501  0.000000000E+00  0.000000000E+00  7.002216829E+02  7.002216829E+02  0.000000000E+00  0.00000E+00  9.000E+00
      21    -1     0     0   501   512  0.000000000E+00  0.000000000E+00 -4.099799638E+02  4.099799638E+02  0.000000000E+00  0.00000E+00  9.000E+00
      25     1     1     2     0     0  3.262486719E+02  3.632441014E+01 -3.287868230E+01  3.527940850E+02  1.250000000E+02  0.00000E+00  9.000E+00
      25     1     1     2     0     0 -3.056852206E+02 -9.161576926E+01  4.800029042E+02  5.898005522E+02  1.250000000E+02  0.00000E+00  9.000E+00
      21     1     1     2   502   512 -2.056345126E+01  5.529135912E+01 -1.568825029E+02  1.676070095E+02  0.000000000E+00  0.00000E+00  9.000E+00
#rwgt            1           1   2.6841894575305020E-002           8      122514           0
</event>
<event>
      5   9999  3.19816E-02  2.13391E+02 -1.00000E+00  1.10633E-01
       2    -1     0     0   502     0  0.000000000E+00  0.000000000E+00  3.744906981E+02  3.744906981E+02  0.000000000E+00  0.00000E+00  9.000E+00
      21    -1     0     0   501   502  0.000000000E+00  0.000000000E+00 -1.240161848E+03  1.240161848E+03  0.000000000E+00  0.00000E+00  9.000E+00
      25     1     1     2     0     0  4.256336850E+02  2.601143913E+02 -7.168381892E+02  8.822162546E+02  1.250000000E+02  0.00000E+00  9.000E+00
      25     1     1     2     0     0 -2.217487592E+02 -3.230954909E+02 -2.651722802E+02  4.893920174E+02  1.250000000E+02  0.00000E+00  9.000E+00
       2     1     1     2   501     0 -2.038849257E+02  6.298109963E+01  1.163393196E+02  2.430442740E+02  3.303624740E-06  0.00000E+00  9.000E+00
#rwgt            2          18   3.7653445082108444E-004           8      122589           0
</event>
<event>
      5   9999  3.19816E-02  2.05199E+01 -1.00000E+00  1.65455E-01
       2    -1     0     0   502     0  0.000000000E+00  0.000000000E+00  1.481526812E+03  1.481526812E+03  0.000000000E+00  0.00000E+00  9.000E+00
      21    -1     0     0   501   502  0.000000000E+00  0.000000000E+00 -1.649515206E+02  1.649515206E+02  0.000000000E+00  0.00000E+00  9.000E+00
      25     1     1     2     0     0  1.258517348E+02 -1.819803964E+01 -1.027361278E+02  2.057900380E+02  1.250000000E+02  0.00000E+00  9.000E+00
      25     1     1     2     0     0 -1.213595946E+02 -1.824091153E+00  7.094784432E+02  7.305587860E+02  1.250000000E+02  0.00000E+00  9.000E+00
       2     1     1     2   501     0 -4.492140184E+00  2.002213080E+01  7.098329765E+02  7.101295090E+02  7.629394531E-06  0.00000E+00  9.000E+00
#rwgt            1           1   2.5306316711498952E-002           8      122608           0
</event>
<event>
      5   9999  3.19816E-02  3.75249E+01 -1.00000E+00  1.46582E-01
      21    -1     0     0   511   501  0.000000000E+00  0.000000000E+00  4.488765844E+02  4.488765844E+02  0.000000000E+00  0.00000E+00  9.000E+00
      21    -1     0     0   501   502  0.000000000E+00  0.000000000E+00 -1.739948214E+03  1.739948214E+03  0.000000000E+00  0.00000E+00  9.000E+00
      25     1     1     2     0     0 -3.711346508E+02  5.699958628E+02 -7.656253223E+01  6.957895041E+02  1.250000000E+02  0.00000E+00  9.000E+00
      25     1     1     2     0     0  3.842220573E+02 -6.051645677E+02 -1.246752359E+03  1.443560594E+03  1.250000000E+02  0.00000E+00  9.000E+00
      21     1     1     2   511   502 -1.308740647E+01  3.516870497E+01  3.224326204E+01  4.947470024E+01  8.259061849E-07  0.00000E+00  9.000E+00
#rwgt            1           1   2.2931013532676407E-002           8      122813           0
</event>
<event>
      5   9999  3.19816E-02  2.81383E+01 -1.00000E+00  1.54998E-01
      21    -1     0     0   512   501  0.000000000E+00  0.000000000E+00  1.259440363E+02  1.259440363E+02  0.000000000E+00  0.00000E+00  9.000E+00
      21    -1     0     0   501   502  0.000000000E+00  0.000000000E+00 -6.953616380E+02  6.953616380E+02  0.000000000E+00  0.00000E+00  9.000E+00
      25     1     1     2     0     0 -5.401175697E+01 -1.197390417E+02 -2.544512826E+01  1.831042395E+02  1.250000000E+02  0.00000E+00  9.000E+00
      25     1     1     2     0     0  6.204439150E+01  1.467064165E+02 -5.668560095E+02  6.019327327E+02  1.250000000E+02  0.00000E+00  9.000E+00
      21     1     1     2   512   502 -8.032634528E+00 -2.696737484E+01  2.288353606E+01  3.626870202E+01  6.743495762E-07  0.00000E+00  9.000E+00
#rwgt            1           1   2.8336349214321002E-002           8      123073           0
</event>
<event>
      5   9999  3.19816E-02  1.31152E+02 -1.00000E+00  1.18753E-01
      21    -1     0     0   502   511  0.000000000E+00  0.000000000E+00  6.439593640E+02  6.439593640E+02  0.000000000E+00  0.00000E+00  9.000E+00
      21    -1     0     0   501   502  0.000000000E+00  0.000000000E+00 -2.082899342E+02  2.082899342E+02  0.000000000E+00  0.00000E+00  9.000E+00
      25     1     1     2     0     0 -2.490675811E+02 -4.132879292E+01  1.270309163E+01  2.820090381E+02  1.250000000E+02  0.00000E+00  9.000E+00
      25     1     1     2     0     0  1.624333136E+02  1.397933617E+02  3.106988085E+02  3.975996918E+02  1.250000000E+02  0.00000E+00  9.000E+00
      21     1     1     2   501   511  8.663426746E+01 -9.846456877E+01  1.122675296E+02  1.726405682E+02  1.348699152E-06  0.00000E+00  9.000E+00
#rwgt            1           1   2.8774540326315507E-002           8      123225           0
</event>
<event>
      5   9999  3.19816E-02  1.22568E+02 -1.00000E+00  1.19979E-01
      21    -1     0     0   502   501  0.000000000E+00  0.000000000E+00  1.017291380E+03  1.017291380E+03  0.000000000E+00  0.00000E+00  9.000E+00
       1    -1     0     0   501     0  0.000000000E+00  0.000000000E+00 -3.762692515E+02  3.762692515E+02  0.000000000E+00  0.00000E+00  9.000E+00
      25     1     1     2     0     0 -3.724294872E+02  2.262417058E+02  6.895091053E+02  8.251889715E+02  1.250000000E+02  0.00000E+00  9.000E+00
      25     1     1     2     0     0  2.516694146E+02 -2.472139901E+02  8.846490712E+01  3.845819691E+02  1.250000000E+02  0.00000E+00  9.000E+00
       1     1     1     2   502     0  1.207600726E+02  2.097228427E+01 -1.369518842E+02  1.837896907E+02  1.907348633E-06  0.00000E+00  9.000E+00
#rwgt            2          12   1.6968382944647614E-004           8      123356           0
</event>
<event>
      5   9999  3.19816E-02  1.88089E+02 -1.00000E+00  1.12628E-01
      21    -1     0     0   502   501  0.000000000E+00  0.000000000E+00  7.946959561E+02  7.946959561E+02  0.000000000E+00  0.00000E+00  9.000E+00
      21    -1     0     0   511   502  0.000000000E+00  0.000000000E+00 -3.383212558E+02  3.383212558E+02  0.000000000E+00  0.00000E+00  9.000E+00
      25     1     1     2     0     0  6.642149478E+01  2.727865956E+02  1.967450123E+02  3.649081276E+02  1.250000000E+02  0.00000E+00  9.000E+00
      25     1     1     2     0     0 -7.380437744E+01 -4.607305152E+02  3.092714610E+02  5.735795763E+02  1.250000000E+02  0.00000E+00  9.000E+00
      21     1     1     2   511   501  7.382882658E+00  1.879439196E+02 -4.964177303E+01  1.945295081E+02  2.132480600E-06  0.00000E+00  9.000E+00
#rwgt            1           1   2.7452989558971574E-002           8      123375           0
</event>
<event>
      5   9999  3.19816E-02  2.24962E+01 -1.00000E+00  1.62262E-01
      21    -1     0     0   502   512  0.000000000E+00  0.000000000E+00  8.033584717E+02  8.033584717E+02  0.000000000E+00  0.00000E+00  9.000E+00
      21    -1     0     0   501   502  0.000000000E+00  0.000000000E+00 -1.518864137E+02  1.518864137E+02  0.000000000E+00  0.00000E+00  9.000E+00
      25     1     1     2     0     0 -4.224392286E+01  1.056609433E+02  6.647330027E+02  6.858890208E+02  1.250000000E+02  0.00000E+00  9.000E+00
      25     1     1     2     0     0  2.079493054E+01 -9.887702102E+01 -9.355165795E+01  1.859731355E+02  1.250000000E+02  0.00000E+00  9.000E+00
      21     1     1     2   501   512  2.144899232E+01 -6.783922275E+00  8.029071324E+01  8.338272906E+01  0.000000000E+00  0.00000E+00  9.000E+00
#rwgt            1           1   2.6744437092336284E-002           8      123436           0
</event>
<event>
      5   9999  3.19816E-02  2.04559E+02 -1.00000E+00  1.11293E-01
      21    -1     0     0   511   501  0.000000000E+00  0.000000000E+00  1.270340318E+03  1.270340318E+03  0.000000000E+00  0.00000E+00  9.000E+00
      21    -1     0     0   501   502  0.000000000E+00  0.000000000E+00 -1.174705920E+03  1.174705920E+03  0.000000000E+00  0.00000E+00  9.000E+00
      25     1     1     2     0     0 -8.613378687E+02 -4.882976754E+02  2.580034731E+02  1.030790151E+03  1.250000000E+02  0.00000E+00  9.000E+00
      25     1     1     2     0     0  1.060059611E+03  5.368182926E+02 -1.827396187E+02  1.208684833E+03  1.250000000E+02  0.00000E+00  9.000E+00
      21     1     1     2   511   502 -1.987217425E+02 -4.852061714E+01  2.037054319E+01  2.055712535E+02  4.768371582E-07  0.00000E+00  9.000E+00
#rwgt            2          11   9.2111397126246539E-003           8      123661           0
</event>
<event>
      5   9999  3.19816E-02  2.60212E+02 -1.00000E+00  1.07639E-01
      21    -1     0     0   512   501  0.000000000E+00  0.000000000E+00  7.625179483E+02  7.625179483E+02  0.000000000E+00  0.00000E+00  9.000E+00
      21    -1     0     0   501   502  0.000000000E+00  0.000000000E+00 -5.591217257E+02  5.591217257E+02  0.000000000E+00  0.00000E+00  9.000E+00
      25     1     1     2     0     0 -3.779122112E+01 -2.641112700E+02 -2.635576446E+02  3.953107276E+02  1.250000000E+02  0.00000E+00  9.000E+00
      25     1     1     2     0     0 -2.090527945E+02  3.464429802E+02  3.875832519E+01  4.252681709E+02  1.250000000E+02  0.00000E+00  9.000E+00
      21     1     1     2   512   502  2.468440156E+02 -8.233171028E+01  4.281955420E+02  5.010607755E+02  5.394796609E-06  0.00000E+00  9.000E+00
#rwgt            1           1   2.8095627481624714E-002           8      123711           0
</event>
<event>
      5   9999  3.19816E-02  5.33079E+01 -1.00000E+00  1.37506E-01
      21    -1     0     0   502   501  0.000000000E+00  0.000000000E+00  1.881365088E+02  1.881365088E+02  0.000000000E+00  0.00000E+00  9.000E+00
      21    -1     0     0   501   511  0.000000000E+00  0.000000000E+00 -1.083566045E+03  1.083566045E+03  0.000000000E+00  0.00000E+00  9.000E+00
      25     1     1     2     0     0  1.271146881E+02 -8.023845649E+01  1.209763812E+02  2.299057168E+02  1.250000000E+02  0.00000E+00  9.000E+00
      25     1     1     2     0     0 -9.366856841E+01  3.872829118E+01 -5.720826572E+02  5.942871763E+02  1.250000000E+02  0.00000E+00  9.000E+00
      21     1     1     2   502   511 -3.344611969E+01  4.151016530E+01 -4.443232599E+02  4.475096603E+02  5.394796609E-06  0.00000E+00  9.000E+00
#rwgt            1           1   2.9904808277857065E-002           8      123745           0
</event>
<event>
      5   9999  3.19816E-02  3.48969E+01 -1.00000E+00  1.48615E-01
      21    -1     0     0   502   512  0.000000000E+00  0.000000000E+00  7.216585318E+02  7.216585318E+02  0.000000000E+00  0.00000E+00  9.000E+00
      21    -1     0     0   501   502  0.000000000E+00  0.000000000E+00 -8.383938601E+02  8.383938601E+02  0.000000000E+00  0.00000E+00  9.000E+00
      25     1     1     2     0     0  2.479550509E+02 -3.424120082E+01 -5.728504375E+02  6.375239531E+02  1.250000000E+02  0.00000E+00  9.000E+00
      25     1     1     2     0     0 -2.337421425E+02  2.369761765E+00 -1.572242470E+02  3.081971265E+02  1.250000000E+02  0.00000E+00  9.000E+00
      21     1     1     2   501   512 -1.421290840E+01  3.187143906E+01  6.133393561E+02  6.143313122E+02  7.629394531E-06  0.00000E+00  9.000E+00
#rwgt            1           1   2.8955620037561330E-002           8      123829           0
</event>
<event>
      5   9999  3.19816E-02  6.21090E+01 -1.00000E+00  1.33907E-01
      21    -1     0     0   502   501  0.000000000E+00  0.000000000E+00  3.566918664E+02  3.566918664E+02  0.000000000E+00  0.00000E+00  9.000E+00
      21    -1     0     0   501   511  0.000000000E+00  0.000000000E+00 -2.374771551E+02  2.374771551E+02  0.000000000E+00  0.00000E+00  9.000E+00
      25     1     1     2     0     0  1.843715855E+02 -1.009380794E+02  5.928764429E+01  2.516374420E+02  1.250000000E+02  0.00000E+00  9.000E+00
      25     1     1     2     0     0 -1.512790106E+02  4.837949267E+01  1.365337150E+02  2.439105773E+02  1.250000000E+02  0.00000E+00  9.000E+00
      21     1     1     2   502   511 -3.309257488E+01  5.255858676E+01 -7.660664802E+01  9.862100220E+01  1.348699152E-06  0.00000E+00  9.000E+00
#rwgt            1           1   2.9781381853879439E-002           8      123999           0
</event>
<event>
      5   9999  3.19816E-02  1.05818E+02 -1.00000E+00  1.22733E-01
      21    -1     0     0   502   512  0.000000000E+00  0.000000000E+00  7.211752289E+02  7.211752289E+02  0.000000000E+00  0.00000E+00  9.000E+00
      21    -1     0     0   501   502  0.000000000E+00  0.000000000E+00 -1.182942961E+02  1.182942961E+02  0.000000000E+00  0.00000E+00  9.000E+00
      25     1     1     2     0     0 -1.512703551E+02 -4.553696871E+01  4.307327228E+02  4.755123704E+02  1.250000000E+02  0.00000E+00  9.000E+00
      25     1     1     2     0     0  5.501266565E+01  8.949145028E+01  1.646743888E+00  1.632875526E+02  1.250000000E+02  0.00000E+00  9.000E+00
      21     1     1     2   501   512  9.625768950E+01 -4.395448157E+01  1.705014661E+02  2.006696021E+02  1.907348633E-06  0.00000E+00  9.000E+00
#rwgt            1           1   2.6963370130380623E-002           8      124102           0
</event>
<event>
      5   9999  3.19816E-02  5.15570E+01 -1.00000E+00  1.38320E-01
      21    -1     0     0   502   501  0.000000000E+00  0.000000000E+00  2.813400808E+03  2.813400808E+03  0.000000000E+00  0.00000E+00  9.000E+00
      21    -1     0     0   511   502  0.000000000E+00  0.000000000E+00 -3.729511252E+02  3.729511252E+02  0.000000000E+00  0.00000E+00  9.000E+00
      25     1     1     2     0     0 -6.746240411E+02  1.419530105E+02  6.488108895E+02  9.549077570E+02  1.250000000E+02  0.00000E+00  9.000E+00
      25     1     1     2     0     0  7.261741841E+02 -1.411103987E+02  1.936995973E+03  2.077214358E+03  1.250000000E+02  0.00000E+00  9.000E+00
      21     1     1     2   511   501 -5.155014300E+01 -8.426117824E-01 -1.453571794E+02  1.542298183E+02  4.264961200E-06  0.00000E+00  9.000E+00
#rwgt            1           1   2.6368117551859433E-002           8      124140           0
</event>
<event>
      5   9999  3.19816E-02  4.71139E+01 -1.00000E+00  1.40565E-01
      21    -1     0     0   502   501  0.000000000E+00  0.000000000E+00  7.027979255E+02  7.027979255E+02  0.000000000E+00  0.00000E+00  9.000E+00
      21    -1     0     0   501   512  0.000000000E+00  0.000000000E+00 -3.944909111E+02  3.944909111E+02  0.000000000E+00  0.00000E+00  9.000E+00
      25     1     1     2     0     0 -4.627319077E+02 -1.273505028E+02  1.926684995E+00  4.959512891E+02  1.250000000E+02  0.00000E+00  9.000E+00
      25     1     1     2     0     0  4.222552504E+02  1.514619355E+02  2.996015104E+02  5.537384576E+02  1.250000000E+02  0.00000E+00  9.000E+00
      21     1     1     2   502   512  4.047665730E+01 -2.411143274E+01  6.778819013E+00  4.759908993E+01  7.001960352E-07  0.00000E+00  9.000E+00
#rwgt            1           1   3.0564336515791716E-002           8      124341           0
</event>
<event>
      5   9999  3.19816E-02  8.59189E+01 -1.00000E+00  1.26867E-01
      21    -1     0     0   502   501  0.000000000E+00  0.000000000E+00  1.469121268E+02  1.469121268E+02  0.000000000E+00  0.00000E+00  9.000E+00
      21    -1     0     0   511   502  0.000000000E+00  0.000000000E+00 -1.796676659E+03  1.796676659E+03  0.000000000E+00  0.00000E+00  9.000E+00
      25     1     1     2     0     0  9.199230197E+01 -2.803072654E+02 -8.411821112E+02  9.001372623E+02  1.250000000E+02  0.00000E+00  9.000E+00
      25     1     1     2     0     0 -2.032126466E+01  2.329224471E+02 -3.769454422E+01  2.677904009E+02  1.250000000E+02  0.00000E+00  9.000E+00
      21     1     1     2   511   501 -7.167103731E+01  4.738481835E+01 -7.708878772E+02  7.756611230E+02  1.078959322E-05  0.00000E+00  9.000E+00
#rwgt            1           1   2.7925959167594869E-002           8      124492           0
</event>
<event>
      5   9999  3.19816E-02  4.72999E+01 -1.00000E+00  1.40465E-01
      21    -1     0     0   512   501  0.000000000E+00  0.000000000E+00  4.096018573E+02  4.096018573E+02  0.000000000E+00  0.00000E+00  9.000E+00
      21    -1     0     0   501   502  0.000000000E+00  0.000000000E+00 -7.464901850E+02  7.464901850E+02  0.000000000E+00  0.00000E+00  9.000E+00
      25     1     1     2     0     0 -1.398156023E+02 -3.169789673E+02 -5.436540051E+02  6.566648655E+02  1.250000000E+02  0.00000E+00  9.000E+00
      25     1     1     2     0     0  1.785936818E+02  3.440629364E+02  1.861303872E+02  4.478219830E+02  1.250000000E+02  0.00000E+00  9.000E+00
      21     1     1     2   512   502 -3.877807944E+01 -2.708396917E+01  2.063529013E+01  5.160519382E+01  1.261592536E-06  0.00000E+00  9.000E+00
#rwgt            1           1   2.8807513024701914E-002           8      124575           0
</event>
<event>
      5   9999  3.19816E-02  6.44944E+02 -1.00000E+00  9.58096E-02
      21    -1     0     0   502   511  0.000000000E+00  0.000000000E+00  3.811235491E+02  3.811235491E+02  0.000000000E+00  0.00000E+00  9.000E+00
      21    -1     0     0   501   502  0.000000000E+00  0.000000000E+00 -2.425861538E+03  2.425861538E+03  0.000000000E+00  0.00000E+00  9.000E+00
      25     1     1     2     0     0  7.696533920E+02 -3.015577397E+02 -1.134977341E+03  1.409646047E+03  1.250000000E+02  0.00000E+00  9.000E+00
      25     1     1     2     0     0 -1.883186106E+02  2.226901188E+01 -6.730321044E+02  7.103217732E+02  1.250000000E+02  0.00000E+00  9.000E+00
      21     1     1     2   501   511 -5.813347814E+02  2.792887278E+02 -2.367285441E+02  6.870172670E+02  1.748113897E-05  0.00000E+00  9.000E+00
#rwgt            2          11   1.8648360352640136E-003           8      124702           0
</event>
<event>
      5   9999  3.19816E-02  1.60525E+01 -1.00000E+00  1.74653E-01
      21    -1     0     0   502   512  0.000000000E+00  0.000000000E+00  6.768959952E+02  6.768959952E+02  0.000000000E+00  0.00000E+00  9.000E+00
      21    -1     0     0   501   502  0.000000000E+00  0.000000000E+00 -1.252585667E+02  1.252585667E+02  0.000000000E+00  0.00000E+00  9.000E+00
      25     1     1     2     0     0  1.328653812E+02  1.618315449E+02  4.290696471E+02  4.935265145E+02  1.250000000E+02  0.00000E+00  9.000E+00
      25     1     1     2     0     0 -1.177256503E+02 -1.671673342E+02  6.420200194E+01  2.480950290E+02  1.250000000E+02  0.00000E+00  9.000E+00
      21     1     1     2   501   512 -1.513973088E+01  5.335789330E+00  5.836577952E+01  6.053301841E+01  9.536743164E-07  0.00000E+00  9.000E+00
#rwgt            1           1   2.4638508148598377E-002           8      124752           0
</event>
<event>
      5   9999  3.19816E-02  1.69832E+02 -1.00000E+00  1.14296E-01
      21    -1     0     0   502   511  0.000000000E+00  0.000000000E+00  5.119921674E+02  5.119921674E+02  0.000000000E+00  0.00000E+00  9.000E+00
      21    -1     0     0   501   502  0.000000000E+00  0.000000000E+00 -1.174927103E+03  1.174927103E+03  0.000000000E+00  0.00000E+00  9.000E+00
      25     1     1     2     0     0  2.962929256E+02  6.099140818E+02 -6.896560152E+02  9.752102872E+02  1.250000000E+02  0.00000E+00  9.000E+00
      25     1     1     2     0     0 -2.874215978E+02 -4.403138018E+02  3.559549100E+01  5.416451402E+02  1.250000000E+02  0.00000E+00  9.000E+00
      21     1     1     2   501   511 -8.871327817E+00 -1.696002800E+02 -8.874411085E+00  1.700638427E+02  2.545613826E-06  0.00000E+00  9.000E+00
#rwgt            1           1   3.2414399672568366E-002           8      124907           0
</event>
<event>
      5   9999  3.19816E-02  7.73162E+01 -1.00000E+00  1.29071E-01
      21    -1     0     0   512   501  0.000000000E+00  0.000000000E+00  6.633612245E+02  6.633612245E+02  0.000000000E+00  0.00000E+00  9.000E+00
      21    -1     0     0   501   502  0.000000000E+00  0.000000000E+00 -1.907843982E+02  1.907843982E+02  0.000000000E+00  0.00000E+00  9.000E+00
      25     1     1     2     0     0  1.651310505E+02  1.748833468E+02  2.809458803E+02  3.903947188E+02  1.250000000E+02  0.00000E+00  9.000E+00
      25     1     1     2     0     0 -2.406668324E+02 -1.583866979E+02  7.345987746E+01  3.225340663E+02  1.250000000E+02  0.00000E+00  9.000E+00
      21     1     1     2   512   502  7.553578189E+01 -1.649664885E+01  1.181710686E+02  1.412168376E+02  1.348699152E-06  0.00000E+00  9.000E+00
#rwgt            1           1   2.6351943172441494E-002           8      125010           0
</event>
<event>
      5   9999  3.19816E-02  1.45703E+01 -1.00000E+00  1.78581E-01
      21    -1     0     0   511   501  0.000000000E+00  0.000000000E+00  1.321577619E+02  1.321577619E+02  0.000000000E+00  0.00000E+00  9.000E+00
      21    -1     0     0   501   502  0.000000000E+00  0.000000000E+00 -1.032953654E+03  1.032953654E+03  0.000000000E+00  0.00000E+00  9.000E+00
      25     1     1     2     0     0 -9.667981845E+01 -3.196416071E+02 -3.569257302E+02  5.045183061E+02  1.250000000E+02  0.00000E+00  9.000E+00
      25     1     1     2     0     0  1.108794672E+02  3.163760019E+02 -5.347445341E+02  6.434009229E+02  1.250000000E+02  0.00000E+00  9.000E+00
      21     1     1     2   511   502 -1.419964874E+01  3.265605127E+00 -9.125627386E+00  1.719218649E+01  0.000000000E+00  0.00000E+00  9.000E+00
#rwgt            1           1   3.1290676155633246E-002           8      125071           0
</event>
<event>
      5   9999  3.19816E-02  5.91849E+01 -1.00000E+00  1.35022E-01
      21    -1     0     0   502   512  0.000000000E+00  0.000000000E+00  5.943934970E+02  5.943934970E+02  0.000000000E+00  0.00000E+00  9.000E+00
      21    -1     0     0   501   502  0.000000000E+00  0.000000000E+00 -2.943702846E+02  2.943702846E+02  0.000000000E+00  0.00000E+00  9.000E+00
      25     1     1     2     0     0 -1.224891157E+02  1.850899327E+02  3.617014036E+02  4.423966230E+02  1.250000000E+02  0.00000E+00  9.000E+00
      25     1     1     2     0     0  1.299093604E+02 -1.263720706E+02 -1.990404565E+02  2.967969768E+02  1.250000000E+02  0.00000E+00  9.000E+00
      21     1     1     2   501   512 -7.420244699E+00 -5.871786208E+01  1.373622653E+02  1.495701818E+02  0.000000000E+00  0.00000E+00  9.000E+00
#rwgt            1           1   2.9031691145384078E-002           8      125268           0
</event>
<event>
      5   9999  3.19816E-02  2.16854E+01 -1.00000E+00  1.63521E-01
      21    -1     0     0   502   511  0.000000000E+00  0.000000000E+00  2.194618386E+02  2.194618386E+02  0.000000000E+00  0.00000E+00  9.000E+00
      21    -1     0     0   501   502  0.000000000E+00  0.000000000E+00 -8.288492373E+02  8.288492373E+02  0.000000000E+00  0.00000E+00  9.000E+00
      25     1     1     2     0     0  1.187878223E+02  3.630826917E+02 -3.694101986E+02  5.459198499E+02  1.250000000E+02  0.00000E+00  9.000E+00
      25     1     1     2     0     0 -1.117500027E+02 -3.835942728E+02 -2.352068493E+02  4.801873501E+02  1.250000000E+02  0.00000E+00  9.000E+00
      21     1     1     2   501   511 -7.037819519E+00  2.051158103E+01 -4.770350824E+00  2.220387595E+01  5.230286352E-07  0.00000E+00  9.000E+00
#rwgt            1           1   3.0825124774069779E-002           8      125395           0
</event>
<event>
      5   9999  3.19816E-02  1.48031E+02 -1.00000E+00  1.16622E-01
      21    -1     0     0   502   501  0.000000000E+00  0.000000000E+00  2.924027534E+02  2.924027534E+02  0.000000000E+00  0.00000E+00  9.000E+00
      21    -1     0     0   501   512  0.000000000E+00  0.000000000E+00 -8.424080500E+02  8.424080500E+02  0.000000000E+00  0.00000E+00  9.000E+00
      25     1     1     2     0     0  2.828146636E+02 -1.226950738E+02 -2.577020503E-01  3.326609107E+02  1.250000000E+02  0.00000E+00  9.000E+00
      25     1     1     2     0     0 -2.829045819E+02 -2.533579696E+01 -9.595316735E+01  3.248213592E+02  1.250000000E+02  0.00000E+00  9.000E+00
      21     1     1     2   502   512  8.991829944E-02  1.480308708E+02 -4.537944272E+02  4.773285336E+02  0.000000000E+00  0.00000E+00  9.000E+00
#rwgt            1           1   3.0516653013515846E-002           8      125574           0
</event>
<event>
      5   9999  3.19816E-02  1.01955E+01 -1.00000E+00  1.94790E-01
      21    -1     0     0   502   511  0.000000000E+00  0.000000000E+00  1.977346051E+03  1.977346051E+03  0.000000000E+00  0.00000E+00  9.000E+00
      21    -1     0     0   501   502  0.000000000E+00  0.000000000E+00 -1.043698340E+02  1.043698340E+02  0.000000000E+00  0.00000E+00  9.000E+00
      25     1     1     2     0     0 -2.977378414E+02 -2.763188056E+02  1.224866151E+03  1.296503757E+03  1.250000000E+02  0.00000E+00  9.000E+00
      25     1     1     2     0     0  2.875823998E+02  2.754155138E+02  5.700981492E+02  7.065367943E+02  1.250000000E+02  0.00000E+00  9.000E+00
      21     1     1     2   501   511  1.015544157E+01  9.032917765E-01  7.801191782E+01  7.867533446E+01  0.000000000E+00  0.00000E+00  9.000E+00
#rwgt            1           1   3.8925773161371739E-002           8      125647           0
</event>
<event>
      5   9999  3.19816E-02  7.51369E+01 -1.00000E+00  1.29682E-01
      21    -1     0     0   502   512  0.000000000E+00  0.000000000E+00  5.188336756E+02  5.188336756E+02  0.000000000E+00  0.00000E+00  9.000E+00
      21    -1     0     0   501   502  0.000000000E+00  0.000000000E+00 -3.095924628E+02  3.095924628E+02  0.000000000E+00  0.00000E+00  9.000E+00
      25     1     1     2     0     0  6.831773476E+01  1.011693130E+02  6.967311047E-01  1.747227181E+02  1.250000000E+02  0.00000E+00  9.000E+00
      25     1     1     2     0     0 -8.653656009E+01 -2.827471342E+01 -1.917970681E+02  2.463719769E+02  1.250000000E+02  0.00000E+00  9.000E+00
      21     1     1     2   501   512  1.821882532E+01 -7.289459958E+01  4.003415499E+02  4.073314434E+02  5.394796609E-06  0.00000E+00  9.000E+00
#rwgt            1           1   2.6799038261545626E-002           8      125895           0
</event>
<event>
      5   9999  3.19816E-02  3.83641E+01 -1.00000E+00  1.45974E-01
      21    -1     0     0   502   501  0.000000000E+00  0.000000000E+00  4.334672764E+01  4.334672764E+01  0.000000000E+00  0.00000E+00  9.000E+00
      21    -1     0     0   501   511  0.000000000E+00  0.000000000E+00 -2.069696541E+03  2.069696541E+03  0.000000000E+00  0.00000E+00  9.000E+00
      25     1     1     2     0     0 -1.589895975E+02 -1.572067933E+02 -8.421620798E+02  8.802577103E+02  1.250000000E+02  0.00000E+00  9.000E+00
      25     1     1     2     0     0  1.213232066E+02  1.499232100E+02 -5.326380867E+02  5.801074218E+02  1.250000000E+02  0.00000E+00  9.000E+00
      21     1     1     2   502   511  3.766639087E+01  7.283583314E+00 -6.515496465E+02  6.526781362E+02  7.629394531E-06  0.00000E+00  9.000E+00
#rwgt            1           1   2.5965695658930418E-002           8      125931           0
</event>
<event>
      5   9999  3.19816E-02  1.96457E+02 -1.00000E+00  1.11931E-01
      21    -1     0     0   502   501  0.000000000E+00  0.000000000E+00  1.249115789E+02  1.249115789E+02  0.000000000E+00  0.00000E+00  9.000E+00
      21    -1     0     0   501   512  0.000000000E+00  0.000000000E+00 -1.116194397E+03  1.116194397E+03  0.000000000E+00  0.00000E+00  9.000E+00
      25     1     1     2     0     0  6.627378096E-01  2.178845832E+02 -1.382852723E+02  2.867436963E+02  1.250000000E+02  0.00000E+00  9.000E+00
      25     1     1     2     0     0 -1.589946650E+02 -1.015820832E+02 -5.301496713E+02  5.764389795E+02  1.250000000E+02  0.00000E+00  9.000E+00
      21     1     1     2   502   512  1.583319272E+02 -1.163024999E+02 -3.228478743E+02  3.779232999E+02  3.814697266E-06  0.00000E+00  9.000E+00
#rwgt            2          11   3.1980876289334778E-003           8      126029           0
</event>
<event>
      5   9999  3.19816E-02  1.72947E+01 -1.00000E+00  1.71751E-01
      21    -1     0     0   502   501  0.000000000E+00  0.000000000E+00  2.678904582E+02  2.678904582E+02  0.000000000E+00  0.00000E+00  9.000E+00
      21    -1     0     0   501   511  0.000000000E+00  0.000000000E+00 -2.328207349E+02  2.328207349E+02  0.000000000E+00  0.00000E+00  9.000E+00
      25     1     1     2     0     0 -1.542164272E+02  7.955665378E+00 -1.252692010E+02  2.348688394E+02  1.250000000E+02  0.00000E+00  9.000E+00
      25     1     1     2     0     0  1.369336243E+02 -7.315503987E+00  1.645924934E+02  2.480323022E+02  1.250000000E+02  0.00000E+00  9.000E+00
      21     1     1     2   502   511  1.728280289E+01 -6.401613913E-01 -4.253569085E+00  1.781005144E+01  1.032382731E-07  0.00000E+00  9.000E+00
#rwgt            1           1   2.9463579483264998E-002           8      126049           0
</event>
<event>
      5   9999  3.19816E-02  3.82758E+02 -1.00000E+00  1.02265E-01
      21    -1     0     0   502   501  0.000000000E+00  0.000000000E+00  6.682052105E+02  6.682052105E+02  0.000000000E+00  0.00000E+00  9.000E+00
      21    -1     0     0   512   502  0.000000000E+00  0.000000000E+00 -4.309162014E+02  4.309162014E+02  0.000000000E+00  0.00000E+00  9.000E+00
      25     1     1     2     0     0 -1.021861160E+01 -7.446668613E+01  9.062922163E+01  1.717217609E+02  1.250000000E+02  0.00000E+00  9.000E+00
      25     1     1     2     0     0  3.450430008E+02 -1.109949091E+02  3.273456615E+02  5.041376046E+02  1.250000000E+02  0.00000E+00  9.000E+00
      21     1     1     2   512   501 -3.348243892E+02  1.854615952E+02 -1.806858740E+02  4.232620464E+02  7.136645101E-06  0.00000E+00  9.000E+00
#rwgt            2          11   5.1460642920212168E-003           8      126460           0
</event>
<event>
      5   9999  3.19816E-02  5.88911E+01 -1.00000E+00  1.35138E-01
       1    -1     0     0   502     0  0.000000000E+00  0.000000000E+00  7.816542257E+02  7.816542257E+02  0.000000000E+00  0.00000E+00  9.000E+00
      21    -1     0     0   501   502  0.000000000E+00  0.000000000E+00 -2.726753377E+03  2.726753377E+03  0.000000000E+00  0.00000E+00  9.000E+00
      25     1     1     2     0     0  2.073098432E+01 -2.200285168E+02 -2.566694365E+03  2.579222224E+03  1.250000000E+02  0.00000E+00  9.000E+00
      25     1     1     2     0     0 -1.469421873E+01  2.786094160E+02  9.178386005E-01  3.057204101E+02  1.250000000E+02  0.00000E+00  9.000E+00
       1     1     1     2   501     0 -6.036765585E+00 -5.858089923E+01  6.206773742E+02  6.234649686E+02  1.321449896E-05  0.00000E+00  9.000E+00
#rwgt            1           1   8.6129355852501213E-002           8      126495           0
</event>
<event>
      5   9999  3.19816E-02  3.09825E+02 -1.00000E+00  1.05139E-01
      21    -1     0     0   502   501  0.000000000E+00  0.000000000E+00  1.073980989E+02  1.073980989E+02  0.000000000E+00  0.00000E+00  9.000E+00
      21    -1     0     0   511   502  0.000000000E+00  0.000000000E+00 -2.651180092E+03  2.651180092E+03  0.000000000E+00  0.00000E+00  9.000E+00
      25     1     1     2     0     0  9.268277805E+01 -2.453104379E+02 -1.121660444E+03  1.158669262E+03  1.250000000E+02  0.00000E+00  9.000E+00
      25     1     1     2     0     0 -3.419826088E+02  6.135037841E+01 -4.643016354E+02  5.932259116E+02  1.250000000E+02  0.00000E+00  9.000E+00
      21     1     1     2   511   501  2.492998307E+02  1.839600595E+02 -9.578199140E+02  1.006683017E+03  1.525878906E-05  0.00000E+00  9.000E+00
#rwgt            1           1   3.3624950123526350E-002           8      126627           0
</event>
<event>
      5   9999  3.19816E-02  7.73768E+01 -1.00000E+00  1.29054E-01
      21    -1     0     0   502   501  0.000000000E+00  0.000000000E+00  6.310909567E+02  6.310909567E+02  0.000000000E+00  0.00000E+00  9.000E+00
       2    -1     0     0   501     0  0.000000000E+00  0.000000000E+00 -1.057280738E+03  1.057280738E+03  0.000000000E+00  0.00000E+00  9.000E+00
      25     1     1     2     0     0 -6.918251210E+01  2.376796787E+02  2.341777113E+02  3.629628771E+02  1.250000000E+02  0.00000E+00  9.000E+00
      25     1     1     2     0     0 -6.421341366E+00 -2.541484985E+02  2.702819583E+02  3.915482472E+02  1.250000000E+02  0.00000E+00  9.000E+00
       2     1     1     2   502     0  7.560385347E+01  1.646881977E+01 -9.306494508E+02  9.338605704E+02  1.078959322E-05  0.00000E+00  9.000E+00
#rwgt            1           1   2.6440785441724679E-002           8      126657           0
</event>
<event>
      5   9999  3.19816E-02  1.53352E+02 -1.00000E+00  1.16015E-01
      21    -1     0     0   511   501  0.000000000E+00  0.000000000E+00  6.396855261E+02  6.396855261E+02  0.000000000E+00  0.00000E+00  9.000E+00
      21    -1     0     0   501   502  0.000000000E+00  0.000000000E+00 -2.351336444E+02  2.351336444E+02  0.000000000E+00  0.00000E+00  9.000E+00
      25     1     1     2     0     0 -1.584103603E+02  1.269149125E+02 -1.270825443E+02  2.701410934E+02  1.250000000E+02  0.00000E+00  9.000E+00
      25     1     1     2     0     0  3.814142028E+01 -3.177256214E+01  2.610030475E+02  2.936185526E+02  1.250000000E+02  0.00000E+00  9.000E+00
      21     1     1     2   511   502  1.202689400E+02 -9.514235034E+01  2.706313785E+02  3.110595245E+02  0.000000000E+00  0.00000E+00  9.000E+00
#rwgt            2          11   2.6503132980663507E-003           8      126724           0
</event>
<event>
      5   9999  3.19816E-02  1.94843E+01 -1.00000E+00  1.67311E-01
      21    -1     0     0   502   512  0.000000000E+00  0.000000000E+00  1.297240452E+03  1.297240452E+03  0.000000000E+00  0.00000E+00  9.000E+00
      21    -1     0     0   501   502  0.000000000E+00  0.000000000E+00 -1.150682218E+02  1.150682218E+02  0.000000000E+00  0.00000E+00  9.000E+00
      25     1     1     2     0     0  2.048740036E+02 -2.284977442E+02  2.797558386E+02  4.336737318E+02  1.250000000E+02  0.00000E+00  9.000E+00
      25     1     1     2     0     0 -2.121749708E+02  2.104330007E+02  6.576608823E+02  7.331051098E+02  1.250000000E+02  0.00000E+00  9.000E+00
      21     1     1     2   501   512  7.300967115E+00  1.806474356E+01  2.447555098E+02  2.455298325E+02  3.814697266E-06  0.00000E+00  9.000E+00
#rwgt            1           1   2.7178150160842799E-002           8      126744           0
</event>
<event>
      5   9999  3.19816E-02  2.10465E+02 -1.00000E+00  1.10848E-01
      21    -1     0     0   502   511  0.000000000E+00  0.000000000E+00  1.131741721E+03  1.131741721E+03  0.000000000E+00  0.00000E+00  9.000E+00
      21    -1     0     0   501   502  0.000000000E+00  0.000000000E+00 -2.853639813E+02  2.853639813E+02  0.000000000E+00  0.00000E+00  9.000E+00
      25     1     1     2     0     0 -2.800591910E+02  7.208439334E+01  1.180666398E+02  3.364432220E+02  1.250000000E+02  0.00000E+00  9.000E+00
      25     1     1     2     0     0  3.004043494E+02 -2.815639786E+02  1.347494611E+02  4.508918545E+02  1.250000000E+02  0.00000E+00  9.000E+00
      21     1     1     2   501   511 -2.034515839E+01  2.094795852E+02  5.935616391E+02  6.297706261E+02  0.000000000E+00  0.00000E+00  9.000E+00
#rwgt            1           1   3.0023580504190597E-002           8      126850           0
</event>
<event>
      5   9999  3.19816E-02  6.16877E+01 -1.00000E+00  1.34063E-01
      21    -1     0     0   502   501  0.000000000E+00  0.000000000E+00  2.144685819E+03  2.144685819E+03  0.000000000E+00  0.00000E+00  9.000E+00
      21    -1     0     0   501   512  0.000000000E+00  0.000000000E+00 -1.890176655E+02  1.890176655E+02  0.000000000E+00  0.00000E+00  9.000E+00
      25     1     1     2     0     0 -3.105397004E+02  4.598366420E+02  8.915491438E+02  1.057529914E+03  1.250000000E+02  0.00000E+00  9.000E+00
      25     1     1     2     0     0  2.776204642E+02 -5.120065266E+02  1.058014844E+03  1.214184589E+03  1.250000000E+02  0.00000E+00  9.000E+00
      21     1     1     2   502   512  3.291923620E+01  5.216988463E+01  6.104164927E+00  6.198898131E+01  5.591411304E-07  0.00000E+00  9.000E+00
#rwgt            1           1   2.7068166257815534E-002           8      126925           0
</event>
<event>
      5   9999  3.19816E-02  9.51231E+01 -1.00000E+00  1.24812E-01
      21    -1     0     0   511   501  0.000000000E+00  0.000000000E+00  1.088010589E+02  1.088010589E+02  0.000000000E+00  0.00000E+00  9.000E+00
      21    -1     0     0   501   502  0.000000000E+00  0.000000000E+00 -1.692004051E+03  1.692004051E+03  0.000000000E+00  0.00000E+00  9.000E+00
      25     1     1     2     0     0 -5.095819881E+01  4.357946536E+01  2.061072565E+01  1.433377474E+02  1.250000000E+02  0.00000E+00  9.000E+00
      25     1     1     2     0     0  1.643560081E+01  4.505798775E+01 -1.533111412E+03  1.538946378E+03  1.250000000E+02  0.00000E+00  9.000E+00
      21     1     1     2   511   502  3.452259800E+01 -8.863745311E+01 -7.070230579E+01  1.185209851E+02  9.536743164E-07  0.00000E+00  9.000E+00
#rwgt            1           1   3.2824872795652826E-002           8      127049           0
</event>
<event>
      5   9999  3.19816E-02  5.95410E+01 -1.00000E+00  1.34882E-01
      21    -1     0     0   512   501  0.000000000E+00  0.000000000E+00  4.561868446E+02  4.561868446E+02  0.000000000E+00  0.00000E+00  9.000E+00
      21    -1     0     0   501   502  0.000000000E+00  0.000000000E+00 -3.893018820E+02  3.893018820E+02  0.000000000E+00  0.00000E+00  9.000E+00
      25     1     1     2     0     0 -2.549607922E+02 -2.917330662E+02  6.187320436E+01  4.117845078E+02  1.250000000E+02  0.00000E+00  9.000E+00
      25     1     1     2     0     0  1.967683878E+02  2.791326340E+02 -2.952926176E+01  3.648695700E+02  1.250000000E+02  0.00000E+00  9.000E+00
      21     1     1     2   512   502  5.819240437E+01  1.260043228E+01  3.454101995E+01  6.883464883E+01  1.261592536E-06  0.00000E+00  9.000E+00
#rwgt            1           1   2.7952942854528290E-002           8      127108           0
</event>
<event>
      5   9999  3.19816E-02  3.90158E+01 -1.00000E+00  1.45514E-01
      21    -1     0     0   502   501  0.000000000E+00  0.000000000E+00  1.436020009E+03  1.436020009E+03  0.000000000E+00  0.00000E+00  9.000E+00
      21    -1     0     0   501   511  0.000000000E+00  0.000000000E+00 -6.967493492E+01  6.967493492E+01  0.000000000E+00  0.00000E+00  9.000E+00
      25     1     1     2     0     0 -2.510087690E+02 -2.732155234E+01  7.107097251E+02  7.645163064E+02  1.250000000E+02  0.00000E+00  9.000E+00
      25     1     1     2     0     0  2.133647598E+02  3.757645623E+01  6.561000085E+02  7.021600472E+02  1.250000000E+02  0.00000E+00  9.000E+00
      21     1     1     2   502   511  3.764400926E+01 -1.025490389E+01 -4.646594566E-01  3.901859038E+01  1.116779652E-06  0.00000E+00  9.000E+00
#rwgt            1           1   2.7063872062287518E-002           8      127221           0
</event>
<event>
      5   9999  3.19816E-02  6.33012E+01 -1.00000E+00  1.33472E-01
      21    -1     0     0   502   512  0.000000000E+00  0.000000000E+00  2.349270337E+02  2.349270337E+02  0.000000000E+00  0.00000E+00  9.000E+00
      21    -1     0     0   501   502  0.000000000E+00  0.000000000E+00 -4.034679130E+02  4.034679130E+02  0.000000000E+00  0.00000E+00  9.000E+00
      25     1     1     2     0     0 -1.736790024E+02  7.936986131E+01 -1.127276120E+02  2.545515375E+02  1.250000000E+02  0.00000E+00  9.000E+00
      25     1     1     2     0     0  2.352835366E+02 -6.481242596E+01 -1.148559875E+02  2.972808285E+02  1.250000000E+02  0.00000E+00  9.000E+00
      21     1     1     2   501   512 -6.160453423E+01 -1.455743535E+01  5.904272026E+01  8.656258071E+01  9.536743164E-07  0.00000E+00  9.000E+00
#rwgt            1           1   3.0295182976352777E-002           8      127327           0
</event>
<event>
      5   9999  3.19816E-02  6.51804E+02 -1.00000E+00  9.56873E-02
      21    -1     0     0   502   501  0.000000000E+00  0.000000000E+00  5.854065482E+02  5.854065482E+02  0.000000000E+00  0.00000E+00  9.000E+00
       2    -1     0     0   501     0  0.000000000E+00  0.000000000E+00 -4.468476087E+03  4.468476087E+03  0.000000000E+00  0.00000E+00  9.000E+00
      25     1     1     2     0     0  7.704290991E+02 -7.244543218E+02 -9.270151285E+02  1.411870075E+03  1.250000000E+02  0.00000E+00  9.000E+00
      25     1     1     2     0     0 -1.374134695E+03  4.787134798E+02 -1.835258119E+03  2.345465864E+03  1.250000000E+02  0.00000E+00  9.000E+00
       2     1     1     2   502     0  6.037055960E+02  2.457408420E+02 -1.120796291E+03  1.296546696E+03  2.157918644E-05  0.00000E+00  9.000E+00
#rwgt            1           1   5.8342775416979707E-002           8      127409           0
</event>
<event>
      5   9999  3.19816E-02  5.70068E+01 -1.00000E+00  1.35902E-01
      21    -1     0     0   502   511  0.000000000E+00  0.000000000E+00  1.413564275E+03  1.413564275E+03  0.000000000E+00  0.00000E+00  9.000E+00
      21    -1     0     0   501   502  0.000000000E+00  0.000000000E+00 -7.126381854E+02  7.126381854E+02  0.000000000E+00  0.00000E+00  9.000E+00
      25     1     1     2     0     0 -2.559711118E+02 -2.279449352E+02 -4.580175744E+02  5.855640034E+02  1.250000000E+02  0.00000E+00  9.000E+00
      25     1     1     2     0     0  2.382907555E+02  2.821407015E+02  9.725218979E+00  3.900069736E+02  1.250000000E+02  0.00000E+00  9.000E+00
      21     1     1     2   501   511  1.768035632E+01 -5.419576623E+01  1.149218445E+03  1.150631483E+03  1.525878906E-05  0.00000E+00  9.000E+00
#rwgt            1           1   2.5049150258373943E-002           8      127462           0
</event>
<event>
      5   9999  3.19816E-02  3.70796E+01 -1.00000E+00  1.46912E-01
      21    -1     0     0   512   501  0.000000000E+00  0.000000000E+00  1.174979834E+03  1.174979834E+03  0.000000000E+00  0.00000E+00  9.000E+00
      21    -1     0     0   501   502  0.000000000E+00  0.000000000E+00 -6.009521603E+01  6.009521603E+01  0.000000000E+00  0.00000E+00  9.000E+00
      25     1     1     2     0     0 -4.075773196E+01 -2.097136438E+02  4.987916559E+02  5.568295261E+02  1.250000000E+02  0.00000E+00  9.000E+00
      25     1     1     2     0     0  5.805407940E+00  1.973348991E+02  4.390125357E+02  4.973246140E+02  1.250000000E+02  0.00000E+00  9.000E+00
      21     1     1     2   512   502  3.495232402E+01  1.237874471E+01  1.770804260E+02  1.809209096E+02  1.907348633E-06  0.00000E+00  9.000E+00
#rwgt            1           1   3.0999622419547023E-002           8      127593           0
</event>
<event>
      5   9999  3.19816E-02  5.69806E+01 -1.00000E+00  1.35913E-01
      21    -1     0     0   502   501  0.000000000E+00  0.000000000E+00  1.965052826E+02  1.965052826E+02  0.000000000E+00  0.00000E+00  9.000E+00
      21    -1     0     0   501   511  0.000000000E+00  0.000000000E+00 -9.849203153E+02  9.849203153E+02  0.000000000E+00  0.00000E+00  9.000E+00
      25     1     1     2     0     0  5.443881507E+00  3.389159651E+02 -4.311439687E+02  5.624978124E+02  1.250000000E+02  0.00000E+00  9.000E+00
      25     1     1     2     0     0 -4.665823866E+01 -3.782627308E+02 -1.931314643E+02  4.451791181E+02  1.250000000E+02  0.00000E+00  9.000E+00
      21     1     1     2   502   511  4.121435715E+01  3.934676564E+01 -1.641395997E+02  1.737486673E+02  2.697398305E-06  0.00000E+00  9.000E+00
#rwgt            1           1   3.2467978640469887E-002           8      127701           0
</event>
<event>
      5   9999  3.23676E-02  1.80842E+02 -1.00000E+00  1.13264E-01
      21    -1     0     0   502   501  0.000000000E+00  0.000000000E+00  6.708490003E+02  6.708490003E+02  0.000000000E+00  0.00000E+00  9.000E+00
      21    -1     0     0   512   502  0.000000000E+00  0.000000000E+00 -7.574525166E+02  7.574525166E+02  0.000000000E+00  0.00000E+00  9.000E+00
      25     1     1     2     0     0 -3.457147788E+02 -4.499040048E+02  1.485277400E+01  5.811866539E+02  1.250000000E+02  0.00000E+00  9.000E+00
      25     1     1     2     0     0  5.160745008E+02  3.892303306E+02 -5.666957631E+01  6.608097922E+02  1.250000000E+02  0.00000E+00  9.000E+00
      21     1     1     2   512   501 -1.703597220E+02  6.067367427E+01 -4.478671402E+01  1.863050708E+02  6.743495762E-07  0.00000E+00  9.000E+00
#rwgt            1           1   3.3670224969760257E-002           8      127860           0
</event>
<event>
      5   9999  3.19816E-02  2.05495E+01 -1.00000E+00  1.65404E-01
      21    -1     0     0   502   501  0.000000000E+00  0.000000000E+00  6.417007990E+02  6.417007990E+02  0.000000000E+00  0.00000E+00  9.000E+00
      21    -1     0     0   501   511  0.000000000E+00  0.000000000E+00 -7.764743154E+02  7.764743154E+02  0.000000000E+00  0.00000E+00  9.000E+00
      25     1     1     2     0     0  1.602668945E+01  1.492044339E+02 -3.706811740E+02  4.189849050E+02  1.250000000E+02  0.00000E+00  9.000E+00
      25     1     1     2     0     0 -3.651598456E+01 -1.476327844E+02  6.015645376E+02  6.329563563E+02  1.250000000E+02  0.00000E+00  9.000E+00
      21     1     1     2   502   511  2.048929511E+01 -1.571649553E+00 -3.656568799E+02  3.662338531E+02  7.629394531E-06  0.00000E+00  9.000E+00
#rwgt            1           1   2.8892176537348914E-002           8      127968           0
</event>
<event>
      5   9999  3.19816E-02  9.47982E+01 -1.00000E+00  1.24880E-01
      21    -1     0     0   502   501  0.000000000E+00  0.000000000E+00  4.251825771E+02  4.251825771E+02  0.000000000E+00  0.00000E+00  9.000E+00
      -1    -1     0     0     0   502  0.000000000E+00  0.000000000E+00 -1.208008340E+02  1.208008340E+02  0.000000000E+00  0.00000E+00  9.000E+00
      25     1     1     2     0     0 -1.532469544E-01 -1.597318394E+02  8.660428446E+01  2.205438416E+02  1.250000000E+02  0.00000E+00  9.000E+00
      25     1     1     2     0     0  1.778490009E+01  6.658774405E+01  1.001696156E+02  1.743822876E+02  1.250000000E+02  0.00000E+00  9.000E+00
      -1     1     1     2     0   501 -1.763165313E+01  9.314409534E+01  1.176078430E+02  1.510572819E+02  2.697398305E-06  0.00000E+00  9.000E+00
#rwgt            1           1   2.4768565072357428E-002           8      128180           0
</event>
<event>
      5   9999  3.19816E-02  7.41767E+01 -1.00000E+00  1.29959E-01
      21    -1     0     0   502   511  0.000000000E+00  0.000000000E+00  3.174401390E+01  3.174401390E+01  0.000000000E+00  0.00000E+00  9.000E+00
      21    -1     0     0   501   502  0.000000000E+00  0.000000000E+00 -1.461001015E+03  1.461001015E+03  0.000000000E+00  0.00000E+00  9.000E+00
      25     1     1     2     0     0  6.347399257E+01  2.978058362E+01 -8.823140774E+02  8.938786059E+02  1.250000000E+02  0.00000E+00  9.000E+00
      25     1     1     2     0     0 -1.043348852E+02  3.212720097E+01 -4.234191998E+02  4.547820841E+02  1.250000000E+02  0.00000E+00  9.000E+00
      21     1     1     2   501   511  4.086089258E+01 -6.190778459E+01 -1.235237238E+02  1.440843388E+02  1.907348633E-06  0.00000E+00  9.000E+00
#rwgt            1           1   2.9416053535831741E-002           8      128249           0
</event>
<event>
      5   9999  3.19816E-02  4.46937E+01 -1.00000E+00  1.41914E-01
      21    -1     0     0   512   501  0.000000000E+00  0.000000000E+00  8.925490661E+01  8.925490661E+01  0.000000000E+00  0.00000E+00  9.000E+00
      21    -1     0     0   501   502  0.000000000E+00  0.000000000E+00 -1.317139740E+03  1.317139740E+03  0.000000000E+00  0.00000E+00  9.000E+00
      25     1     1     2     0     0  2.379078630E+02 -3.537247847E+01 -8.469580817E+02  8.892774346E+02  1.250000000E+02  0.00000E+00  9.000E+00
      25     1     1     2     0     0 -2.642354375E+02 -7.437742227E-01 -3.692046644E+02  4.709118854E+02  1.250000000E+02  0.00000E+00  9.000E+00
      21     1     1     2   512   502  2.632757448E+01  3.611625269E+01 -1.172208744E+01  4.620532676E+01  1.155776944E-06  0.00000E+00  9.000E+00
#rwgt            1           1   1.5561685351539496E-002           8      128307           0
</event>
<event>
      5   9999  3.19816E-02  8.73926E+01 -1.00000E+00  1.26519E-01
      21    -1     0     0   502   501  0.000000000E+00  0.000000000E+00  1.573629818E+02  1.573629818E+02  0.000000000E+00  0.00000E+00  9.000E+00
       2    -1     0     0   501     0  0.000000000E+00  0.000000000E+00 -9.203617324E+02  9.203617324E+02  0.000000000E+00  0.00000E+00  9.000E+00
      25     1     1     2     0     0  3.450528199E+01  1.787152485E+02 -3.314780305E+02  3.982868806E+02  1.250000000E+02  0.00000E+00  9.000E+00
      25     1     1     2     0     0  8.236785631E+00 -1.024881074E+02  6.563772338E+01  1.746567134E+02  1.250000000E+02  0.00000E+00  9.000E+00
       2     1     1     2   502     0 -4.274206762E+01 -7.622714108E+01 -4.971584434E+02  5.047811202E+02  9.344061824E-06  0.00000E+00  9.000E+00
#rwgt            1           1   2.7185924304567025E-002           8      128419           0
</event>
<event>
      5   9999  3.19816E-02  2.89121E+01 -1.00000E+00  1.54162E-01
      21    -1     0     0   502   511  0.000000000E+00  0.000000000E+00  2.836691397E+02  2.836691397E+02  0.000000000E+00  0.00000E+00  9.000E+00
      21    -1     0     0   501   502  0.000000000E+00  0.000000000E+00 -1.851792678E+02  1.851792678E+02  0.000000000E+00  0.00000E+00  9.000E+00
      25     1     1     2     0     0  2.932527815E+01  5.105158556E+01 -1.284295762E+02  1.886409085E+02  1.250000000E+02  0.00000E+00  9.000E+00
      25     1     1     2     0     0 -6.027943303E-01 -4.774571468E+01  2.004500103E+02  2.410087618E+02  1.250000000E+02  0.00000E+00  9.000E+00
      21     1     1     2   501   511 -2.872248382E+01 -3.305870881E+00  2.646943773E+01  3.919873713E+01  3.371747881E-07  0.00000E+00  9.000E+00
#rwgt            1           1   2.9751354867689636E-002           8      128476           0
</event>
<event>
      5   9999  3.19816E-02  7.34757E+01 -1.00000E+00  1.30164E-01
      21    -1     0     0   502   501  0.000000000E+00  0.000000000E+00  1.896340314E+02  1.896340314E+02  0.000000000E+00  0.00000E+00  9.000E+00
      21    -1     0     0   512   502  0.000000000E+00  0.000000000E+00 -9.459252062E+02  9.459252062E+02  0.000000000E+00  0.00000E+00  9.000E+00
      25     1     1     2     0     0  1.916230386E+02 -2.508848397E+02 -9.886351502E+01  3.536404760E+02  1.250000000E+02  0.00000E+00  9.000E+00
      25     1     1     2     0     0 -2.512023794E+02  2.078850254E+02 -5.264235914E+02  6.317164054E+02  1.250000000E+02  0.00000E+00  9.000E+00
      21     1     1     2   512   501  5.957934084E+01  4.299981429E+01 -1.310040684E+02  1.502023562E+02  0.000000000E+00  0.00000E+00  9.000E+00
#rwgt            1           1   2.6262561919957194E-002           8      128610           0
</event>
<event>
      5   9999  3.19816E-02  7.45954E+01 -1.00000E+00  1.29837E-01
       1    -1     0     0   502     0  0.000000000E+00  0.000000000E+00  1.559371785E+02  1.559371785E+02  0.000000000E+00  0.00000E+00  9.000E+00
      21    -1     0     0   501   502  0.000000000E+00  0.000000000E+00 -4.447884981E+03  4.447884981E+03  0.000000000E+00  0.00000E+00  9.000E+00
      25     1     1     2     0     0 -1.936244017E+02  5.335023793E+01 -1.829654352E+03  1.844883927E+03  1.250000000E+02  0.00000E+00  9.000E+00
      25     1     1     2     0     0  2.176319920E+02  1.727631436E+01 -2.594752348E+03  2.606919044E+03  1.250000000E+02  0.00000E+00  9.000E+00
       1     1     1     2   501     0 -2.400759028E+01 -7.062655229E+01  1.324588971E+02  1.520191886E+02  7.387129490E-06  0.00000E+00  9.000E+00
#rwgt            1           1   2.1819638811637980E-003           8      128699           0
</event>
<event>
      5   9999  3.19816E-02  4.94708E+01 -1.00000E+00  1.39340E-01
      21    -1     0     0   502   501  0.000000000E+00  0.000000000E+00  5.946839462E+02  5.946839462E+02  0.000000000E+00  0.00000E+00  9.000E+00
      21    -1     0     0   511   502  0.000000000E+00  0.000000000E+00 -1.800638465E+02  1.800638465E+02  0.000000000E+00  0.00000E+00  9.000E+00
      25     1     1     2     0     0  6.940919575E+00  2.058879854E+02  3.654502508E+02  4.377407049E+02  1.250000000E+02  0.00000E+00  9.000E+00
      25     1     1     2     0     0  1.269664478E+01 -2.512941745E+02  5.766988315E+01  2.868114056E+02  1.250000000E+02  0.00000E+00  9.000E+00
      21     1     1     2   511   501 -1.963756435E+01  4.540618908E+01 -8.500034246E+00  5.019568231E+01  1.238859277E-06  0.00000E+00  9.000E+00
#rwgt            1           1   2.8537631576240466E-002           8      128756           0
</event>
<event>
      5   9999  3.19816E-02  1.54426E+02 -1.00000E+00  1.15895E-01
      21    -1     0     0   512   501  0.000000000E+00  0.000000000E+00  3.673622917E+02  3.673622917E+02  0.000000000E+00  0.00000E+00  9.000E+00
      21    -1     0     0   501   502  0.000000000E+00  0.000000000E+00 -8.459220752E+02  8.459220752E+02  0.000000000E+00  0.00000E+00  9.000E+00
      25     1     1     2     0     0  3.937611212E+02  1.993873206E+02 -3.010217317E+02  5.486731332E+02  1.250000000E+02  0.00000E+00  9.000E+00
      25     1     1     2     0     0 -2.645888444E+02 -2.840161987E+02 -2.657704742E+02  4.867559991E+02  1.250000000E+02  0.00000E+00  9.000E+00
      21     1     1     2   512   502 -1.291722768E+02  8.462887806E+01  8.823242245E+01  1.778552345E+02  3.303624740E-06  0.00000E+00  9.000E+00
#rwgt            1           1   2.8870652730822642E-002           8      128854           0
</event>
<event>
      5   9999  3.19816E-02  1.53533E+01 -1.00000E+00  1.76436E-01
      21    -1     0     0   511   501  0.000000000E+00  0.000000000E+00  1.007784202E+03  1.007784202E+03  0.000000000E+00  0.00000E+00  9.000E+00
      21    -1     0     0   501   502  0.000000000E+00  0.000000000E+00 -7.592933822E+01  7.592933822E+01  0.000000000E+00  0.00000E+00  9.000E+00
      25     1     1     2     0     0  1.026337850E+02  1.434555759E+02  3.724160470E+02  4.306180537E+02  1.250000000E+02  0.00000E+00  9.000E+00
      25     1     1     2     0     0 -9.131581663E+01 -1.538300021E+02  2.085193123E+02  3.018402748E+02  1.250000000E+02  0.00000E+00  9.000E+00
      21     1     1     2   511   502 -1.131796837E+01  1.037442617E+01  3.509195045E+02  3.512552117E+02  0.000000000E+00  0.00000E+00  9.000E+00
#rwgt            1           1   2.6894764058525301E-002           8      128929           0
</event>
<event>
      5   9999  3.19816E-02  3.95568E+01 -1.00000E+00  1.45141E-01
      21    -1     0     0   502   501  0.000000000E+00  0.000000000E+00  6.611312862E+01  6.611312862E+01  0.000000000E+00  0.00000E+00  9.000E+00
      21    -1     0     0   501   512  0.000000000E+00  0.000000000E+00 -2.859952904E+03  2.859952904E+03  0.000000000E+00  0.00000E+00  9.000E+00
      25     1     1     2     0     0 -2.884782168E+02 -2.489662450E+02 -9.180484408E+02  1.001819251E+03  1.250000000E+02  0.00000E+00  9.000E+00
      25     1     1     2     0     0  2.536826134E+02  2.677812866E+02 -1.691792572E+03  1.736044007E+03  1.250000000E+02  0.00000E+00  9.000E+00
      21     1     1     2   502   512  3.479560338E+01 -1.881504156E+01 -1.839987626E+02  1.882027747E+02  3.814697266E-06  0.00000E+00  9.000E+00
#rwgt            1           1   3.4337311921681803E-002           8      129082           0
</event>
<event>
      5   9999  3.19816E-02  1.29035E+02 -1.00000E+00  1.19045E-01
      21    -1     0     0   502   511  0.000000000E+00  0.000000000E+00  7.987496878E+02  7.987496878E+02  0.000000000E+00  0.00000E+00  9.000E+00
      21    -1     0     0   501   502  0.000000000E+00  0.000000000E+00 -1.931680080E+02  1.931680080E+02  0.000000000E+00  0.00000E+00  9.000E+00
      25     1     1     2     0     0  1.554949575E+01 -9.365635712E+01 -1.262047829E+02  2.014098987E+02  1.250000000E+02  0.00000E+00  9.000E+00
      25     1     1     2     0     0 -5.132975927E+00 -3.495746141E+01  5.644217636E+02  5.791763969E+02  1.250000000E+02  0.00000E+00  9.000E+00
      21     1     1     2   501   511 -1.041651983E+01  1.286138185E+02  1.673646991E+02  2.113314002E+02  3.814697266E-06  0.00000E+00  9.000E+00
#rwgt            2          11   3.4095980952666772E-003           8      129261           0
</event>
<event>
      5   9999  3.19816E-02  6.51337E+01 -1.00000E+00  1.32825E-01
      21    -1     0     0   512   501  0.000000000E+00  0.000000000E+00  8.189001503E+02  8.189001503E+02  0.000000000E+00  0.00000E+00  9.000E+00
      21    -1     0     0   501   502  0.000000000E+00  0.000000000E+00 -4.464422152E+02  4.464422152E+02  0.000000000E+00  0.00000E+00  9.000E+00
      25     1     1     2     0     0  1.747424434E+02  2.143777388E+01 -2.095235274E+02  3.008647673E+02  1.250000000E+02  0.00000E+00  9.000E+00
      25     1     1     2     0     0 -1.490373983E+02 -8.128466186E+01 -1.312119290E+02  2.483161546E+02  1.250000000E+02  0.00000E+00  9.000E+00
      21     1     1     2   512   502 -2.570504512E+01  5.984688797E+01  7.131933916E+02  7.161614435E+02  1.078959322E-05  0.00000E+00  9.000E+00
#rwgt            1           1   3.2921752675711062E-002           8      129311           0
</event>
<event>
      5   9999  3.19816E-02  2.75807E+01 -1.00000E+00  1.55620E-01
       2    -1     0     0   502     0  0.000000000E+00  0.000000000E+00  7.550448293E+02  7.550448293E+02  0.000000000E+00  0.00000E+00  9.000E+00
      21    -1     0     0   501   502  0.000000000E+00  0.000000000E+00 -7.599188860E+02  7.599188860E+02  0.000000000E+00  0.00000E+00  9.000E+00
      25     1     1     2     0     0 -1.485097924E+00 -4.127869688E+02 -5.577297719E+02  7.050409815E+02  1.250000000E+02  0.00000E+00  9.000E+00
      25     1     1     2     0     0  1.299908326E+00  3.852069024E+02  1.923101970E+02  4.483238330E+02  1.250000000E+02  0.00000E+00  9.000E+00
       2     1     1     2   501     0  1.851895984E-01  2.758006644E+01  3.605455182E+02  3.615989007E+02  5.394796609E-06  0.00000E+00  9.000E+00
#rwgt            1           1   2.8299667184914213E-002           8      129365           0
</event>
<event>
      5   9999  3.19816E-02  2.39781E+02 -1.00000E+00  1.08853E-01
      -3    -1     0     0     0   501  0.000000000E+00  0.000000000E+00  1.935095201E+02  1.935095201E+02  0.000000000E+00  0.00000E+00  9.000E+00
      21    -1     0     0   501   502  0.000000000E+00  0.000000000E+00 -1.311412888E+03  1.311412888E+03  0.000000000E+00  0.00000E+00  9.000E+00
      25     1     1     2     0     0  1.754084254E+01 -2.292641371E+01 -2.598299343E+02  2.897755966E+02  1.250000000E+02  0.00000E+00  9.000E+00
      25     1     1     2     0     0 -2.291944941E+02  1.356093814E+02 -9.213341633E+02  9.671616519E+02  1.250000000E+02  0.00000E+00  9.000E+00
      -3     1     1     2     0   502  2.116536515E+02 -1.126829677E+02  6.326072983E+01  2.479851596E+02  4.720447033E-06  0.00000E+00  9.000E+00
#rwgt            1           1   3.1447825238150054E-002           8      129585           0
</event>
<event>
      5   9999  3.19816E-02  4.27894E+02 -1.00000E+00  1.00812E-01
      21    -1     0     0   502   501  0.000000000E+00  0.000000000E+00  6.734972901E+02  6.734972901E+02  0.000000000E+00  0.00000E+00  9.000E+00
       1    -1     0     0   501     0  0.000000000E+00  0.000000000E+00 -6.151069472E+02  6.151069472E+02  0.000000000E+00  0.00000E+00  9.000E+00
      25     1     1     2     0     0 -1.119780836E+02  4.053226347E+01  2.132091739E+02  2.743448695E+02  1.250000000E+02  0.00000E+00  9.000E+00
      25     1     1     2     0     0 -1.594099427E+02 -3.713521052E+02  1.909602968E+02  4.641171736E+02  1.250000000E+02  0.00000E+00  9.000E+00
       1     1     1     2   502     0  2.713880264E+02  3.308198417E+02 -3.457791278E+02  5.501421941E+02  0.000000000E+00  0.00000E+00  9.000E+00
#rwgt            2          12   7.5306678519365352E-004           8      129681           0
</event>
<event>
      5   9999  3.19816E-02  8.49463E+01 -1.00000E+00  1.27101E-01
      21    -1     0     0   502   501  0.000000000E+00  0.000000000E+00  7.179610742E+02  7.179610742E+02  0.000000000E+00  0.00000E+00  9.000E+00
      21    -1     0     0   511   502  0.000000000E+00  0.000000000E+00 -1.984361842E+03  1.984361842E+03  0.000000000E+00  0.00000E+00  9.000E+00
      25     1     1     2     0     0  5.215407554E+02 -5.266439216E+02  4.052592488E+02  8.539429949E+02  1.250000000E+02  0.00000E+00  9.000E+00
      25     1     1     2     0     0 -4.397515156E+02  5.037008061E+02 -1.300896171E+03  1.468009450E+03  1.250000000E+02  0.00000E+00  9.000E+00
      21     1     1     2   511   501 -8.178923972E+01  2.294311550E+01 -3.707638451E+02  3.803704708E+02  0.000000000E+00  0.00000E+00  9.000E+00
#rwgt            1           1   3.3239272301306681E-002           8      129700           0
</event>
<event>
      5   9999  3.19816E-02  1.28250E+02 -1.00000E+00  1.19155E-01
      21    -1     0     0   502   501  0.000000000E+00  0.000000000E+00  5.277126276E+02  5.277126276E+02  0.000000000E+00  0.00000E+00  9.000E+00
      21    -1     0     0   512   502  0.000000000E+00  0.000000000E+00 -2.053568721E+02  2.053568721E+02  0.000000000E+00  0.00000E+00  9.000E+00
      25     1     1     2     0     0  2.861136049E+01  1.526402045E+02  3.161293450E+02  3.737384176E+02  1.250000000E+02  0.00000E+00  9.000E+00
      25     1     1     2     0     0 -1.485515182E+02 -1.072255779E+02  4.298923756E+01  2.259158088E+02  1.250000000E+02  0.00000E+00  9.000E+00
      21     1     1     2   512   501  1.199401577E+02 -4.541462657E+01 -3.676282708E+01  1.334152734E+02  1.581489940E-06  0.00000E+00  9.000E+00
#rwgt            1           1   3.1800096602373797E-002           8      129783           0
</event>
<event>
      5   9999  3.19816E-02  1.67533E+02 -1.00000E+00  1.14522E-01
       1    -1     0     0   502     0  0.000000000E+00  0.000000000E+00  7.608935766E+01  7.608935766E+01  0.000000000E+00  0.00000E+00  9.000E+00
      21    -1     0     0   501   502  0.000000000E+00  0.000000000E+00 -1.182804942E+03  1.182804942E+03  0.000000000E+00  0.00000E+00  9.000E+00
      25     1     1     2     0     0  3.254980284E-01 -5.679553446E+01 -2.265979452E+02  2.649480467E+02  1.250000000E+02  0.00000E+00  9.000E+00
      25     1     1     2     0     0 -1.678037020E+02  5.252105212E+01 -7.539808206E+02  7.842376050E+02  1.250000000E+02  0.00000E+00  9.000E+00
       1     1     1     2   501     0  1.674782039E+02  4.274482337E+00 -1.261368184E+02  2.097086478E+02  2.697398305E-06  0.00000E+00  9.000E+00
#rwgt            2          17   3.3556025635057715E-004           8      129910           0
</event>
<event>
      5   9999  3.19816E-02  3.57441E+02 -1.00000E+00  1.03177E-01
      21    -1     0     0   502   501  0.000000000E+00  0.000000000E+00  1.909423753E+03  1.909423753E+03  0.000000000E+00  0.00000E+00  9.000E+00
      21    -1     0     0   511   502  0.000000000E+00  0.000000000E+00 -6.932077394E+02  6.932077394E+02  0.000000000E+00  0.00000E+00  9.000E+00
      25     1     1     2     0     0  5.758569565E+00 -1.429087460E+02 -3.599771161E+02  4.070191579E+02  1.250000000E+02  0.00000E+00  9.000E+00
      25     1     1     2     0     0 -1.649844551E+02 -1.771091965E+02  1.768748948E+03  1.789604811E+03  1.250000000E+02  0.00000E+00  9.000E+00
      21     1     1     2   511   501  1.592258855E+02  3.200179425E+02 -1.925558183E+02  4.060075237E+02  5.394796609E-06  0.00000E+00  9.000E+00
#rwgt            1           1   2.7493936617240495E-002           8      129974           0
</event>
<event>
      5   9999  3.19816E-02  1.38192E+01 -1.00000E+00  1.80805E-01
      21    -1     0     0   512   501  0.000000000E+00  0.000000000E+00  2.983868866E+02  2.983868866E+02  0.000000000E+00  0.00000E+00  9.000E+00
      21    -1     0     0   501   502  0.000000000E+00  0.000000000E+00 -4.512066641E+02  4.512066641E+02  0.000000000E+00  0.00000E+00  9.000E+00
      25     1     1     2     0     0 -1.531503324E+02  1.375257176E+02  6.440922125E+01  2.492827613E+02  1.250000000E+02  0.00000E+00  9.000E+00
      25     1     1     2     0     0  1.442647992E+02 -1.269419012E+02 -3.216488598E+02  3.949804648E+02  1.250000000E+02  0.00000E+00  9.000E+00
      21     1     1     2   512   502  8.885533131E+00 -1.058381639E+01  1.044198611E+02  1.053303245E+02  1.348699152E-06  0.00000E+00  9.000E+00
#rwgt            1           1   2.9286504211462869E-002           8      130053           0
</event>
<event>
      5   9999  3.19816E-02  5.71710E+01 -1.00000E+00  1.35834E-01
      21    -1     0     0   502   511  0.000000000E+00  0.000000000E+00  1.858232781E+03  1.858232781E+03  0.000000000E+00  0.00000E+00  9.000E+00
      21    -1     0     0   501   502  0.000000000E+00  0.000000000E+00 -1.366759329E+03  1.366759329E+03  0.000000000E+00  0.00000E+00  9.000E+00
      25     1     1     2     0     0 -1.305701775E+02  1.406216456E+03  3.001243172E+02  1.449204229E+03  1.250000000E+02  0.00000E+00  9.000E+00
      25     1     1     2     0     0  8.442552588E+01 -1.439968466E+03 -1.260098357E+02  1.453320450E+03  1.250000000E+02  0.00000E+00  9.000E+00
      21     1     1     2   501   511  4.614465161E+01  3.375201054E+01  3.173589710E+02  3.224674302E+02  5.394796609E-06  0.00000E+00  9.000E+00
#rwgt            1           1   4.7635258176385524E-002           8      130290           0
</event>
<event>
      5   9999  3.19816E-02  5.40791E+01 -1.00000E+00  1.37160E-01
       1    -1     0     0   502     0  0.000000000E+00  0.000000000E+00  1.035321198E+03  1.035321198E+03  0.000000000E+00  0.00000E+00  9.000E+00
      21    -1     0     0   501   502  0.000000000E+00  0.000000000E+00 -9.889869384E+02  9.889869384E+02  0.000000000E+00  0.00000E+00  9.000E+00
      25     1     1     2     0     0 -1.424202835E+02 -5.036640342E+02 -6.667575485E+02  8.568264848E+02  1.250000000E+02  0.00000E+00  9.000E+00
      25     1     1     2     0     0  1.920614990E+02  4.822093873E+02  8.924791078E+01  5.412981638E+02  1.250000000E+02  0.00000E+00  9.000E+00
       1     1     1     2   501     0 -4.964121556E+01  2.145464687E+01  6.238438977E+02  6.261834881E+02  7.629394531E-06  0.00000E+00  9.000E+00
#rwgt            1           1   3.3742745711781402E-002           8      130432           0
</event>
<event>
      5   9999  3.19816E-02  1.72077E+01 -1.00000E+00  1.71944E-01
      -3    -1     0     0     0   501  0.000000000E+00  0.000000000E+00  5.043042218E+01  5.043042218E+01  0.000000000E+00  0.00000E+00  9.000E+00
      21    -1     0     0   501   502  0.000000000E+00  0.000000000E+00 -1.510108566E+03  1.510108566E+03  0.000000000E+00  0.00000E+00  9.000E+00
      25     1     1     2     0     0 -6.798673418E+01 -1.578380424E+02 -1.125925158E+03  1.145804305E+03  1.250000000E+02  0.00000E+00  9.000E+00
      25     1     1     2     0     0  5.207482188E+01  1.643891502E+02 -3.355485482E+02  3.974335265E+02  1.250000000E+02  0.00000E+00  9.000E+00
      -3     1     1     2     0   502  1.591191230E+01 -6.551107810E+00  1.795562804E+00  1.730115639E+01  5.179091453E-07  0.00000E+00  9.000E+00
#rwgt            1           1   3.0830333544379286E-002           8      130541           0
</event>
<event>
      5   9999  3.19816E-02  2.39380E+02 -1.00000E+00  1.08878E-01
      21    -1     0     0   502   501  0.000000000E+00  0.000000000E+00  6.297511198E+02  6.297511198E+02  0.000000000E+00  0.00000E+00  9.000E+00
      21    -1     0     0   511   502  0.000000000E+00  0.000000000E+00 -6.373056329E+02  6.373056329E+02  0.000000000E+00  0.00000E+00  9.000E+00
      25     1     1     2     0     0  9.934838428E+01 -3.218977870E+01 -2.753089039E+02  3.198847853E+02  1.250000000E+02  0.00000E+00  9.000E+00
      25     1     1     2     0     0  1.101623679E+02 -8.360305406E+01  5.478641161E+02  5.787100377E+02  1.250000000E+02  0.00000E+00  9.000E+00
      21     1     1     2   511   501 -2.095107522E+02  1.157928328E+02 -2.801097253E+02  3.684619297E+02  3.814697266E-06  0.00000E+00  9.000E+00
#rwgt            2          11   3.1895878722592364E-003           8      130705           0
</event>
<event>
      5   9999  3.19816E-02  8.00670E+01 -1.00000E+00  1.28332E-01
      21    -1     0     0   502   512  0.000000000E+00  0.000000000E+00  9.372014284E+02  9.372014284E+02  0.000000000E+00  0.00000E+00  9.000E+00
      21    -1     0     0   501   502  0.000000000E+00  0.000000000E+00 -3.609945908E+02  3.609945908E+02  0.000000000E+00  0.00000E+00  9.000E+00
      25     1     1     2     0     0  1.376468607E+02 -4.387941063E+02 -6.232243238E+01  4.806204444E+02  1.250000000E+02  0.00000E+00  9.000E+00
      25     1     1     2     0     0 -1.783497386E+02  3.698448755E+02  5.155436800E+02  6.708234844E+02  1.250000000E+02  0.00000E+00  9.000E+00
      21     1     1     2   501   512  4.070287792E+01  6.894923079E+01  1.229855900E+02  1.467520904E+02  1.348699152E-06  0.00000E+00  9.000E+00
#rwgt            1           1   3.0565108953157439E-002           8      130725           0
</event>
<event>
      5   9999  3.19816E-02  1.52192E+02 -1.00000E+00  1.16144E-01
      21    -1     0     0   511   501  0.000000000E+00  0.000000000E+00  1.657797733E+02  1.657797733E+02  0.000000000E+00  0.00000E+00  9.000E+00
      21    -1     0     0   501   502  0.000000000E+00  0.000000000E+00 -1.668564708E+03  1.668564708E+03  0.000000000E+00  0.00000E+00  9.000E+00
      25     1     1     2     0     0  6.131679074E+00  3.529562809E+02 -3.794083352E+02  5.330960688E+02  1.250000000E+02  0.00000E+00  9.000E+00
      25     1     1     2     0     0  9.688406419E+01 -4.649835817E+02 -9.575988166E+02  1.076204788E+03  1.250000000E+02  0.00000E+00  9.000E+00
      21     1     1     2   511   502 -1.030157433E+02  1.120273008E+02 -1.657777830E+02  2.250436243E+02  3.303624740E-06  0.00000E+00  9.000E+00
#rwgt            1           1   2.9533375529399136E-002           8      130789           0
</event>
<event>
      5   9999  3.19816E-02  3.98193E+01 -1.00000E+00  1.44962E-01
      21    -1     0     0   502   501  0.000000000E+00  0.000000000E+00  2.893685932E+01  2.893685932E+01  0.000000000E+00  0.00000E+00  9.000E+00
      21    -1     0     0   512   502  0.000000000E+00  0.000000000E+00 -2.664075980E+03  2.664075980E+03  0.000000000E+00  0.00000E+00  9.000E+00
      25     1     1     2     0     0  6.731270702E+01  1.584279603E+02 -1.745288039E+03  1.758205266E+03  1.250000000E+02  0.00000E+00  9.000E+00
      25     1     1     2     0     0 -1.021577169E+02 -1.391562320E+02 -5.081796511E+02  5.510646185E+02  1.250000000E+02  0.00000E+00  9.000E+00
      21     1     1     2   512   501  3.484500993E+01 -1.927172834E+01 -3.816714302E+02  3.837429541E+02  5.394796609E-06  0.00000E+00  9.000E+00
#rwgt            1           1   8.7695579210341781E-002           8      130868           0
</event>
<event>
      5   9999  3.19816E-02  8.75737E+01 -1.00000E+00  1.26476E-01
      21    -1     0     0   511   501  0.000000000E+00  0.000000000E+00  2.736678153E+02  2.736678153E+02  0.000000000E+00  0.00000E+00  9.000E+00
      21    -1     0     0   501   502  0.000000000E+00  0.000000000E+00 -4.202539999E+02  4.202539999E+02  0.000000000E+00  0.00000E+00  9.000E+00
      25     1     1     2     0     0  2.661426591E+02  9.238013490E-01 -1.311348354E+02  3.219535890E+02  1.250000000E+02  0.00000E+00  9.000E+00
      25     1     1     2     0     0 -1.786175278E+02  1.992898859E+00 -1.090640691E+02  2.437789245E+02  1.250000000E+02  0.00000E+00  9.000E+00
      21     1     1     2   511   502 -8.752513133E+01 -2.916700208E+00  9.361271986E+01  1.281893017E+02  2.697398305E-06  0.00000E+00  9.000E+00
#rwgt            1           1   2.9429682989956834E-002           8      130995           0
</event>
<event>
      5   9999  3.19816E-02  1.21236E+02 -1.00000E+00  1.20180E-01
      21    -1     0     0   502   512  0.000000000E+00  0.000000000E+00  1.289091887E+03  1.289091887E+03  0.000000000E+00  0.00000E+00  9.000E+00
      21    -1     0     0   501   502  0.000000000E+00  0.000000000E+00 -1.184653302E+02  1.184653302E+02  0.000000000E+00  0.00000E+00  9.000E+00
      25     1     1     2     0     0 -1.463517365E+02  2.694640064E+02  2.597119512E+02  4.208384240E+02  1.250000000E+02  0.00000E+00  9.000E+00
      25     1     1     2     0     0  1.660535026E+02 -1.498400665E+02  5.717453439E+02  6.265329597E+02  1.250000000E+02  0.00000E+00  9.000E+00
      21     1     1     2   501   512 -1.970176611E+01 -1.196239399E+02  3.391692615E+02  3.601858333E+02  3.814697266E-06  0.00000E+00  9.000E+00
#rwgt            1           1   2.7410271592441308E-002           8      131102           0
</event>
<event>
      5   9999  3.19816E-02  2.70347E+01 -1.00000E+00  1.56247E-01
      21    -1     0     0   511   501  0.000000000E+00  0.000000000E+00  1.038374716E+02  1.038374716E+02  0.000000000E+00  0.00000E+00  9.000E+00
      21    -1     0     0   501   502  0.000000000E+00  0.000000000E+00 -8.632913942E+02  8.632913942E+02  0.000000000E+00  0.00000E+00  9.000E+00
      25     1     1     2     0     0  2.471422527E+02 -5.299205127E+01 -4.303707188E+02  5.145205595E+02  1.250000000E+02  0.00000E+00  9.000E+00
      25     1     1     2     0     0 -2.531562297E+02  2.663473176E+01 -2.968619266E+02  4.105477915E+02  1.250000000E+02  0.00000E+00  9.000E+00
      21     1     1     2   511   502  6.013977059E+00  2.635731951E+01 -3.222127711E+01  4.206051486E+01  6.743495762E-07  0.00000E+00  9.000E+00
#rwgt            1           1   2.7758025684178782E-002           8      131154           0
</event>
<event>
      5   9999  3.19816E-02  7.78856E+01 -1.00000E+00  1.28915E-01
      21    -1     0     0   502   512  0.000000000E+00  0.000000000E+00  1.206806278E+02  1.206806278E+02  0.000000000E+00  0.00000E+00  9.000E+00
      21    -1     0     0   501   502  0.000000000E+00  0.000000000E+00 -8.984295314E+02  8.984295314E+02  0.000000000E+00  0.00000E+00  9.000E+00
      25     1     1     2     0     0  2.243726303E+02 -1.148438114E+02 -2.585818535E+02  3.821279278E+02  1.250000000E+02  0.00000E+00  9.000E+00
      25     1     1     2     0     0 -2.120392082E+02  3.794095191E+01 -4.971532393E+02  5.560453983E+02  1.250000000E+02  0.00000E+00  9.000E+00
      21     1     1     2   501   512 -1.233342215E+01  7.690285945E+01 -2.201381073E+01  8.093683313E+01  5.331201500E-07  0.00000E+00  9.000E+00
#rwgt            1           1   2.8881419694395852E-002           8      131262           0
</event>
<event>
      5   9999  3.19816E-02  4.75674E+01 -1.00000E+00  1.40323E-01
      21    -1     0     0   502   511  0.000000000E+00  0.000000000E+00  2.012793189E+03  2.012793189E+03  0.000000000E+00  0.00000E+00  9.000E+00
      21    -1     0     0   501   502  0.000000000E+00  0.000000000E+00 -2.083498067E+02  2.083498067E+02  0.000000000E+00  0.00000E+00  9.000E+00
      25     1     1     2     0     0 -1.661579766E+02  3.294738556E+01 -1.469055492E+02  2.567104279E+02  1.250000000E+02  0.00000E+00  9.000E+00
      25     1     1     2     0     0  1.256977366E+02 -7.934820540E+00  1.619336832E+03  1.629030282E+03  1.250000000E+02  0.00000E+00  9.000E+00
      21     1     1     2   501   511  4.046024004E+01 -2.501256502E+01  3.320120991E+02  3.354022859E+02  5.394796609E-06  0.00000E+00  9.000E+00
#rwgt            1           1   2.8626641899634941E-002           8      131330           0
</event>
<event>
      5   9999  3.19816E-02  1.38667E+01 -1.00000E+00  1.80659E-01
      21    -1     0     0   502   512  0.000000000E+00  0.000000000E+00  7.594839190E+02  7.594839190E+02  0.000000000E+00  0.00000E+00  9.000E+00
      21    -1     0     0   501   502  0.000000000E+00  0.000000000E+00 -9.780202637E+02  9.780202637E+02  0.000000000E+00  0.00000E+00  9.000E+00
      25     1     1     2     0     0 -6.640991647E+02  2.740319029E+02  2.096910660E+02  7.587598615E+02  1.250000000E+02  0.00000E+00  9.000E+00
      25     1     1     2     0     0  6.566141954E+02 -2.857049316E+02 -5.150111715E+02  8.908597064E+02  1.250000000E+02  0.00000E+00  9.000E+00
      21     1     1     2   501   512  7.484969238E+00  1.167302871E+01  8.678376088E+01  8.788461478E+01  9.536743164E-07  0.00000E+00  9.000E+00
#rwgt            1           1   3.4462102463304729E-002           8      131469           0
</event>
<event>
      5   9999  3.19816E-02  9.10565E+01 -1.00000E+00  1.25686E-01
      21    -1     0     0   511   501  0.000000000E+00  0.000000000E+00  2.447242775E+02  2.447242775E+02  0.000000000E+00  0.00000E+00  9.000E+00
      21    -1     0     0   501   502  0.000000000E+00  0.000000000E+00 -1.445018549E+03  1.445018549E+03  0.000000000E+00  0.00000E+00  9.000E+00
      25     1     1     2     0     0 -4.709004987E+02 -4.018550252E+00 -1.948770095E+02  5.247527773E+02  1.250000000E+02  0.00000E+00  9.000E+00
      25     1     1     2     0     0  4.519976698E+02  9.309141679E+01 -9.340232014E+02  1.049281776E+03  1.250000000E+02  0.00000E+00  9.000E+00
      21     1     1     2   511   502  1.890282888E+01 -8.907286654E+01 -7.139406032E+01  1.157082726E+02  2.132480600E-06  0.00000E+00  9.000E+00
#rwgt            1           1   3.0032328775512460E-002           8      131817           0
</event>
<event>
      5   9999  3.19816E-02  6.68120E+01 -1.00000E+00  1.32254E-01
      21    -1     0     0   512   501  0.000000000E+00  0.000000000E+00  1.367879826E+02  1.367879826E+02  0.000000000E+00  0.00000E+00  9.000E+00
      21    -1     0     0   501   502  0.000000000E+00  0.000000000E+00 -3.028079118E+02  3.028079118E+02  0.000000000E+00  0.00000E+00  9.000E+00
      25     1     1     2     0     0  1.280342426E+02 -4.283150335E+01 -5.228402034E+01  1.912744723E+02  1.250000000E+02  0.00000E+00  9.000E+00
      25     1     1     2     0     0 -8.725427049E+01 -1.009143544E+01 -9.058918095E+01  1.776134693E+02  1.250000000E+02  0.00000E+00  9.000E+00
      21     1     1     2   512   502 -4.077997212E+01  5.292293879E+01 -2.314672791E+01  7.070795280E+01  1.215700987E-06  0.00000E+00  9.000E+00
#rwgt            1           1   2.4360253760454517E-002           8      131930           0
</event>
<event>
      5   9999  3.19816E-02  7.43753E+01 -1.00000E+00  1.29901E-01
       2    -1     0     0   502     0  0.000000000E+00  0.000000000E+00  1.079543652E+03  1.079543652E+03  0.000000000E+00  0.00000E+00  9.000E+00
      21    -1     0     0   501   502  0.000000000E+00  0.000000000E+00 -6.925500602E+02  6.925500602E+02  0.000000000E+00  0.00000E+00  9.000E+00
      25     1     1     2     0     0  9.714660411E+01 -2.781383579E+02 -5.383520838E+02  6.262957568E+02  1.250000000E+02  0.00000E+00  9.000E+00
      25     1     1     2     0     0 -7.743708209E+01  3.498546416E+02  2.243227699E+02  4.408406481E+02  1.250000000E+02  0.00000E+00  9.000E+00
       2     1     1     2   501     0 -1.970952203E+01 -7.171628371E+01  7.010229057E+02  7.049573072E+02  7.629394531E-06  0.00000E+00  9.000E+00
#rwgt            1           1   3.1821501213500955E-002           8      131976           0
</event>
<event>
      5   9999  3.19816E-02  6.29478E+01 -1.00000E+00  1.33600E-01
      21    -1     0     0   502   511  0.000000000E+00  0.000000000E+00  4.469688004E+02  4.469688004E+02  0.000000000E+00  0.00000E+00  9.000E+00
      21    -1     0     0   501   502  0.000000000E+00  0.000000000E+00 -3.186075749E+02  3.186075749E+02  0.000000000E+00  0.00000E+00  9.000E+00
      25     1     1     2     0     0  2.535295289E+01 -1.292098211E+02 -7.204670123E+01  1.953296630E+02  1.250000000E+02  0.00000E+00  9.000E+00
      25     1     1     2     0     0 -7.465587229E+01  1.683461513E+02 -1.136722832E+02  2.499206152E+02  1.250000000E+02  0.00000E+00  9.000E+00
      21     1     1     2   501   511  4.930291939E+01 -3.913633018E+01  3.140802099E+02  3.203260971E+02  5.394796609E-06  0.00000E+00  9.000E+00
#rwgt            1           1   2.7997873400612688E-002           8      132059           0
</event>
<event>
      5   9999  3.19816E-02  4.81973E+01 -1.00000E+00  1.39992E-01
      21    -1     0     0   502   501  0.000000000E+00  0.000000000E+00  5.799774213E+02  5.799774213E+02  0.000000000E+00  0.00000E+00  9.000E+00
      21    -1     0     0   512   502  0.000000000E+00  0.000000000E+00 -5.588588011E+02  5.588588011E+02  0.000000000E+00  0.00000E+00  9.000E+00
      25     1     1     2     0     0  3.970862227E+02 -3.700177938E+02  7.851689265E+01  5.624771448E+02  1.250000000E+02  0.00000E+00  9.000E+00
      25     1     1     2     0     0 -3.490198718E+02  3.664677253E+02 -3.297597662E+01  5.223273683E+02  1.250000000E+02  0.00000E+00  9.000E+00
      21     1     1     2   512   501 -4.806635096E+01  3.550068490E+00 -2.442229580E+01  5.403170933E+01  4.768371582E-07  0.00000E+00  9.000E+00
#rwgt            1           1   3.2638864923169156E-002           8      132131           0
</event>
<event>
      5   9999  3.19816E-02  4.05930E+02 -1.00000E+00  1.01493E-01
      21    -1     0     0   502   501  0.000000000E+00  0.000000000E+00  5.023318138E+02  5.023318138E+02  0.000000000E+00  0.00000E+00  9.000E+00
       2    -1     0     0   501     0  0.000000000E+00  0.000000000E+00 -8.825675878E+02  8.825675878E+02  0.000000000E+00  0.00000E+00  9.000E+00
      25     1     1     2     0     0  1.875475529E+02 -2.209613787E+02  3.219169850E+01  3.172685313E+02  1.250000000E+02  0.00000E+00  9.000E+00
      25     1     1     2     0     0 -4.099493311E+02 -1.186219232E+02  5.552384668E+01  4.481489844E+02  1.250000000E+02  0.00000E+00  9.000E+00
       2     1     1     2   502     0  2.224017781E+02  3.395833019E+02 -4.679513192E+02  6.194818859E+02  7.629394531E-06  0.00000E+00  9.000E+00
#rwgt            1           1   2.9106993663670408E-002           8      132262           0
</event>
<event>
      5   9999  3.19816E-02  5.98462E+01 -1.00000E+00  1.34763E-01
      21    -1     0     0   502   501  0.000000000E+00  0.000000000E+00  2.093193769E+02  2.093193769E+02  0.000000000E+00  0.00000E+00  9.000E+00
      21    -1     0     0   511   502  0.000000000E+00  0.000000000E+00 -7.745297213E+02  7.745297213E+02  0.000000000E+00  0.00000E+00  9.000E+00
      25     1     1     2     0     0 -3.136323339E+02 -1.642836775E+02 -1.742467670E+02  4.139339360E+02  1.250000000E+02  0.00000E+00  9.000E+00
      25     1     1     2     0     0  2.586820268E+02  1.879909878E+02 -2.768210569E+02  4.410350326E+02  1.250000000E+02  0.00000E+00  9.000E+00
      21     1     1     2   511   501  5.495030709E+01 -2.370731028E+01 -1.141425205E+02  1.288801296E+02  2.336015456E-06  0.00000E+00  9.000E+00
#rwgt            1           1   3.1227596370843297E-002           8      132308           0
</event>
<event>
      5   9999  3.19816E-02  4.70680E+02 -1.00000E+00  9.96033E-02
       2    -1     0     0   502     0  0.000000000E+00  0.000000000E+00  1.100270259E+03  1.100270259E+03  0.000000000E+00  0.00000E+00  9.000E+00
      21    -1     0     0   501   502  0.000000000E+00  0.000000000E+00 -3.277325368E+02  3.277325368E+02  0.000000000E+00  0.00000E+00  9.000E+00
      25     1     1     2     0     0 -3.105138683E+00  6.656913967E+01 -9.687387092E+00  1.419856954E+02  1.250000000E+02  0.00000E+00  9.000E+00
      25     1     1     2     0     0 -1.018022081E+02 -5.254089280E+02  4.012296665E+02  6.804619581E+02  1.250000000E+02  0.00000E+00  9.000E+00
       2     1     1     2   501     0  1.049073467E+02  4.588397883E+02  3.809954423E+02  6.055551418E+02  1.078959322E-05  0.00000E+00  9.000E+00
#rwgt            2          18   7.6755054765005105E-004           8      132414           0
</event>
<event>
      5   9999  3.19816E-02  2.85930E+01 -1.00000E+00  1.54503E-01
      21    -1     0     0   511   501  0.000000000E+00  0.000000000E+00  1.075541602E+03  1.075541602E+03  0.000000000E+00  0.00000E+00  9.000E+00
      21    -1     0     0   501   502  0.000000000E+00  0.000000000E+00 -2.463692012E+02  2.463692012E+02  0.000000000E+00  0.00000E+00  9.000E+00
      25     1     1     2     0     0 -1.401854092E+02 -3.311411811E+02  8.412737040E+02  9.234028784E+02  1.250000000E+02  0.00000E+00  9.000E+00
      25     1     1     2     0     0  1.472129888E+02  3.034252924E+02 -3.569373394E+01  3.614382586E+02  1.250000000E+02  0.00000E+00  9.000E+00
      21     1     1     2   511   502 -7.027579593E+00  2.771588872E+01  2.359243103E+01  3.706966637E+01  3.371747881E-07  0.00000E+00  9.000E+00
#rwgt            1           1   2.3026056908331649E-002           8      132463           0
</event>
<event>
      5   9999  3.19816E-02  3.11267E+02 -1.00000E+00  1.05074E-01
       4    -1     0     0   502     0  0.000000000E+00  0.000000000E+00  5.382976628E+02  5.382976628E+02  0.000000000E+00  0.00000E+00  9.000E+00
      21    -1     0     0   501   502  0.000000000E+00  0.000000000E+00 -4.630846315E+02  4.630846315E+02  0.000000000E+00  0.00000E+00  9.000E+00
      25     1     1     2     0     0  6.120021018E+01 -1.839263615E+02  1.783063948E+02  2.915348052E+02  1.250000000E+02  0.00000E+00  9.000E+00
      25     1     1     2     0     0 -3.534783441E+02  7.687083422E+01 -2.524854033E+00  3.827367761E+02  1.250000000E+02  0.00000E+00  9.000E+00
       4     1     1     2   501     0  2.922781339E+02  1.070555273E+02 -1.005685096E+02  3.271107131E+02  4.672030912E-06  0.00000E+00  9.000E+00
#rwgt            2          20   1.4117520448928468E-005           8      132622           0
</event>
<event>
      5   9999  3.19816E-02  7.79985E+01 -1.00000E+00  1.28884E-01
      21    -1     0     0   511   501  0.000000000E+00  0.000000000E+00  9.133436958E+02  9.133436958E+02  0.000000000E+00  0.00000E+00  9.000E+00
      21    -1     0     0   501   502  0.000000000E+00  0.000000000E+00 -2.011247185E+02  2.011247185E+02  0.000000000E+00  0.00000E+00  9.000E+00
      25     1     1     2     0     0  1.178471064E+02  8.358865848E+01 -1.158263057E+02  2.234183014E+02  1.250000000E+02  0.00000E+00  9.000E+00
      25     1     1     2     0     0 -1.483011767E+02 -1.553962002E+02  6.744915594E+02  7.188220098E+02  1.250000000E+02  0.00000E+00  9.000E+00
      21     1     1     2   511   502  3.045407025E+01  7.180754169E+01  1.535537237E+02  1.722281031E+02  1.907348633E-06  0.00000E+00  9.000E+00
#rwgt            1           1   2.8633552919043580E-002           8      132641           0
</event>
<event>
      5   9999  3.19816E-02  1.00809E+02 -1.00000E+00  1.23671E-01
      21    -1     0     0   502   512  0.000000000E+00  0.000000000E+00  1.944274805E+03  1.944274805E+03  0.000000000E+00  0.00000E+00  9.000E+00
      21    -1     0     0   501   502  0.000000000E+00  0.000000000E+00 -2.631344704E+02  2.631344704E+02  0.000000000E+00  0.00000E+00  9.000E+00
      25     1     1     2     0     0 -5.588206925E+01 -4.748666806E+02  1.306048361E+03  1.396427045E+03  1.250000000E+02  0.00000E+00  9.000E+00
      25     1     1     2     0     0  1.192230616E+02  3.964425903E+02  1.034995988E+01  4.325655875E+02  1.250000000E+02  0.00000E+00  9.000E+00
      21     1     1     2   501   512 -6.334099237E+01  7.842409026E+01  3.647420128E+02  3.784166423E+02  5.394796609E-06  0.00000E+00  9.000E+00
#rwgt            1           1   3.6446708872257247E-002           8      132731           0
</event>
<event>
      5   9999  3.19816E-02  1.44485E+02 -1.00000E+00  1.17042E-01
      21    -1     0     0   502   501  0.000000000E+00  0.000000000E+00  4.616154126E+02  4.616154126E+02  0.000000000E+00  0.00000E+00  9.000E+00
      21    -1     0     0   511   502  0.000000000E+00  0.000000000E+00 -3.577672576E+02  3.577672576E+02  0.000000000E+00  0.00000E+00  9.000E+00
      25     1     1     2     0     0 -5.190005667E+01  8.948336162E+01 -7.080591653E+01  1.770292792E+02  1.250000000E+02  0.00000E+00  9.000E+00
      25     1     1     2     0     0  4.297098293E+01  5.472588920E+01  3.715451855E+02  3.981359732E+02  1.250000000E+02  0.00000E+00  9.000E+00
      21     1     1     2   511   501  8.929073745E+00 -1.442092508E+02 -1.968911140E+02  2.442174178E+02  2.697398305E-06  0.00000E+00  9.000E+00
#rwgt            2          11   3.2945631348778991E-003           8      132961           0
</event>
<event>
      5   9999  3.19816E-02  3.39207E+01 -1.00000E+00  1.49425E-01
      21    -1     0     0   502   501  0.000000000E+00  0.000000000E+00  1.610817094E+02  1.610817094E+02  0.000000000E+00  0.00000E+00  9.000E+00
      21    -1     0     0   512   502  0.000000000E+00  0.000000000E+00 -3.737386818E+02  3.737386818E+02  0.000000000E+00  0.00000E+00  9.000E+00
      25     1     1     2     0     0 -1.165095541E+02  4.056883683E+01 -1.996951467E+02  2.659388244E+02  1.250000000E+02  0.00000E+00  9.000E+00
      25     1     1     2     0     0  1.421491165E+02 -1.836007676E+01  5.063378770E+01  1.968050919E+02  1.250000000E+02  0.00000E+00  9.000E+00
      21     1     1     2   512   501 -2.563956233E+01 -2.220876007E+01 -6.359561348E+01  7.207647490E+01  9.536743164E-07  0.00000E+00  9.000E+00
#rwgt            1           1   2.2643755864792961E-002           8      132981           0
</event>
<event>
      5   9999  3.19816E-02  5.75758E+01 -1.00000E+00  1.35668E-01
      21    -1     0     0   502   511  0.000000000E+00  0.000000000E+00  1.698564854E+03  1.698564854E+03  0.000000000E+00  0.00000E+00  9.000E+00
      21    -1     0     0   501   502  0.000000000E+00  0.000000000E+00 -2.470684446E+02  2.470684446E+02  0.000000000E+00  0.00000E+00  9.000E+00
      25     1     1     2     0     0  5.343503553E+02  2.471505810E+02  7.504603090E+02  9.619924050E+02  1.250000000E+02  0.00000E+00  9.000E+00
      25     1     1     2     0     0 -5.333435697E+02 -3.047176064E+02  6.020971466E+02  8.691686585E+02  1.250000000E+02  0.00000E+00  9.000E+00
      21     1     1     2   501   511 -1.006785594E+00  5.756702539E+01  9.893895369E+01  1.144722350E+02  2.336015456E-06  0.00000E+00  9.000E+00
#rwgt            1           1   3.5515150486208999E-002           8      133117           0
</event>
<event>
      5   9999  3.19816E-02  1.84200E+01 -1.00000E+00  1.69373E-01
      21    -1     0     0   512   501  0.000000000E+00  0.000000000E+00  1.478835768E+02  1.478835768E+02  0.000000000E+00  0.00000E+00  9.000E+00
      21    -1     0     0   501   502  0.000000000E+00  0.000000000E+00 -6.557411301E+02  6.557411301E+02  0.000000000E+00  0.00000E+00  9.000E+00
      25     1     1     2     0     0 -6.895459658E+01 -2.520847200E+02 -3.427561149E+02  4.487852457E+02  1.250000000E+02  0.00000E+00  9.000E+00
      25     1     1     2     0     0  5.360057556E+01  2.622606443E+02 -1.520284399E+02  3.322518830E+02  1.250000000E+02  0.00000E+00  9.000E+00
      21     1     1     2   512   502  1.535402102E+01 -1.017592428E+01 -1.307299855E+01  2.258757817E+01  1.685873940E-07  0.00000E+00  9.000E+00
#rwgt            1           1   2.4048125519436917E-002           8      133225           0
</event>
<event>
      5   9999  3.19816E-02  7.89513E+01 -1.00000E+00  1.28627E-01
      21    -1     0     0   502   501  0.000000000E+00  0.000000000E+00  9.080507851E+02  9.080507851E+02  0.000000000E+00  0.00000E+00  9.000E+00
      21    -1     0     0   501   511  0.000000000E+00  0.000000000E+00 -1.816211411E+03  1.816211411E+03  0.000000000E+00  0.00000E+00  9.000E+00
      25     1     1     2     0     0 -4.385045522E+02 -7.763410712E+02 -1.268500910E+03  1.555542111E+03  1.250000000E+02  0.00000E+00  9.000E+00
      25     1     1     2     0     0  5.137346686E+02  8.002938315E+02  4.411350771E+02  1.055755030E+03  1.250000000E+02  0.00000E+00  9.000E+00
      21     1     1     2   502   511 -7.523011639E+01 -2.395276027E+01 -8.079479306E+01  1.129650553E+02  0.000000000E+00  0.00000E+00  9.000E+00
#rwgt            1           1   6.9534715815698658E-002           8      133454           0
</event>
<event>
      5   9999  3.19816E-02  4.28007E+02 -1.00000E+00  1.00809E-01
       2    -1     0     0   502     0  0.000000000E+00  0.000000000E+00  2.673539400E+03  2.673539400E+03  0.000000000E+00  0.00000E+00  9.000E+00
      21    -1     0     0   501   502  0.000000000E+00  0.000000000E+00 -4.304238884E+02  4.304238884E+02  0.000000000E+00  0.00000E+00  9.000E+00
      25     1     1     2     0     0  6.321441196E+01  3.832516967E+02  2.263466843E+02  4.666216309E+02  1.250000000E+02  0.00000E+00  9.000E+00
      25     1     1     2     0     0 -7.394073149E+01  4.462089657E+01 -2.705670202E+02  3.103059274E+02  1.250000000E+02  0.00000E+00  9.000E+00
       2     1     1     2   501     0  1.072631953E+01 -4.278725933E+02  2.287335847E+03  2.327035730E+03  0.000000000E+00  0.00000E+00  9.000E+00
#rwgt            1           1   2.7734646407981425E-002           8      133568           0
</event>
<event>
      5   9999  3.19816E-02  6.59713E+00 -1.00000E+00  2.19258E-01
      21    -1     0     0   511   501  0.000000000E+00  0.000000000E+00  6.594698928E+01  6.594698928E+01  0.000000000E+00  0.00000E+00  9.000E+00
      21    -1     0     0   501   502  0.000000000E+00  0.000000000E+00 -7.685156306E+02  7.685156306E+02  0.000000000E+00  0.00000E+00  9.000E+00
      25     1     1     2     0     0  1.113409227E+02 -1.258183257E+02 -2.413379883E+02  3.195247671E+02  1.250000000E+02  0.00000E+00  9.000E+00
      25     1     1     2     0     0 -1.124396821E+02  1.323233117E+02 -4.611206103E+02  5.083398058E+02  1.250000000E+02  0.00000E+00  9.000E+00
      21     1     1     2   511   502  1.098759426E+00 -6.504985986E+00 -1.100426909E-01  6.598047010E+00  9.472058814E-08  0.00000E+00  9.000E+00
#rwgt            1           1   2.9014953940492780E-002           8      133603           0
</event>
<event>
      5   9999  3.19816E-02  5.24449E+01 -1.00000E+00  1.37903E-01
      21    -1     0     0   502   501  0.000000000E+00  0.000000000E+00  2.694779487E+02  2.694779487E+02  0.000000000E+00  0.00000E+00  9.000E+00
      21    -1     0     0   501   512  0.000000000E+00  0.000000000E+00 -5.851899254E+02  5.851899254E+02  0.000000000E+00  0.00000E+00  9.000E+00
      25     1     1     2     0     0 -2.572641093E+02  2.344572056E+01  1.339832099E+02  3.167191567E+02  1.250000000E+02  0.00000E+00  9.000E+00
      25     1     1     2     0     0  2.053259563E+02 -3.071884069E+01 -3.578593168E+02  4.321928807E+02  1.250000000E+02  0.00000E+00  9.000E+00
      21     1     1     2   502   512  5.193815296E+01  7.273120138E+00 -9.183586981E+01  1.057558367E+02  1.348699152E-06  0.00000E+00  9.000E+00
#rwgt            1           1   2.7357022526012659E-002           8      133908           0
</event>
<event>
      5   9999  3.19816E-02  1.60442E+02 -1.00000E+00  1.15247E-01
      21    -1     0     0   502   511  0.000000000E+00  0.000000000E+00  4.500049454E+02  4.500049454E+02  0.000000000E+00  0.00000E+00  9.000E+00
      21    -1     0     0   501   502  0.000000000E+00  0.000000000E+00 -2.806463402E+02  2.806463402E+02  0.000000000E+00  0.00000E+00  9.000E+00
      25     1     1     2     0     0 -1.286281214E+02  1.422501967E+02  1.136163515E+02  2.555660138E+02  1.250000000E+02  0.00000E+00  9.000E+00
      25     1     1     2     0     0  2.718338485E+02 -6.990613284E+01  6.745525559E+00  3.073288316E+02  1.250000000E+02  0.00000E+00  9.000E+00
      21     1     1     2   501   511 -1.432057271E+02 -7.234406390E+01  4.899672819E+01  1.677564402E+02  3.754619538E-06  0.00000E+00  9.000E+00
#rwgt            1           1   3.1728743485299436E-002           8      134010           0
</event>
<event>
      5   9999  3.19816E-02  1.45576E+02 -1.00000E+00  1.16911E-01
       2    -1     0     0   502     0  0.000000000E+00  0.000000000E+00  1.881858840E+03  1.881858840E+03  0.000000000E+00  0.00000E+00  9.000E+00
      21    -1     0     0   501   502  0.000000000E+00  0.000000000E+00 -1.799774521E+02  1.799774521E+02  0.000000000E+00  0.00000E+00  9.000E+00
      25     1     1     2     0     0 -3.205818328E+02 -1.369085453E+02  9.325081028E+01  3.818865996E+02  1.250000000E+02  0.00000E+00  9.000E+00
      25     1     1     2     0     0  1.754051739E+02  1.261362146E+02  4.710761614E+02  5.331182510E+02  1.250000000E+02  0.00000E+00  9.000E+00
       2     1     1     2   501     0  1.451766589E+02  1.077233070E+01  1.137554416E+03  1.146831442E+03  2.157918644E-05  0.00000E+00  9.000E+00
#rwgt            1           1   3.0182141342778693E-002           8      134048           0
</event>
<event>
      5   9999  3.19816E-02  5.16835E+01 -1.00000E+00  1.38260E-01
      21    -1     0     0   511   501  0.000000000E+00  0.000000000E+00  1.104319108E+02  1.104319108E+02  0.000000000E+00  0.00000E+00  9.000E+00
      21    -1     0     0   501   502  0.000000000E+00  0.000000000E+00 -5.568741727E+02  5.568741727E+02  0.000000000E+00  0.00000E+00  9.000E+00
      25     1     1     2     0     0  1.424012557E+02 -1.137084026E+02 -3.131937563E+02  3.833054232E+02  1.250000000E+02  0.00000E+00  9.000E+00
      25     1     1     2     0     0 -1.300566737E+02  6.352080504E+01 -1.318636235E+02  2.322986144E+02  1.250000000E+02  0.00000E+00  9.000E+00
      21     1     1     2   511   502 -1.234458198E+01  5.018759755E+01 -1.384882144E+00  5.170204590E+01  1.257626225E-06  0.00000E+00  9.000E+00
#rwgt            1           1   2.5830793504967465E-002           8      134127           0
</event>
<event>
      5   9999  3.19816E-02  5.66420E+01 -1.00000E+00  1.36054E-01
      21    -1     0     0   512   501  0.000000000E+00  0.000000000E+00  1.679664752E+03  1.679664752E+03  0.000000000E+00  0.00000E+00  9.000E+00
      21    -1     0     0   501   502  0.000000000E+00  0.000000000E+00 -1.522693604E+02  1.522693604E+02  0.000000000E+00  0.00000E+00  9.000E+00
      25     1     1     2     0     0  1.198801807E+01  4.648164610E+02  5.671332543E+02  7.439510623E+02  1.250000000E+02  0.00000E+00  9.000E+00
      25     1     1     2     0     0 -6.655242261E+00 -4.084260161E+02  6.875288316E+02  8.094300446E+02  1.250000000E+02  0.00000E+00  9.000E+00
      21     1     1     2   512   502 -5.332775810E+00 -5.639044484E+01  2.727333054E+02  2.785530051E+02  3.814697266E-06  0.00000E+00  9.000E+00
#rwgt            1           1   2.9330801832238608E-002           8      134185           0
</event>
<event>
      5   9999  3.19816E-02  1.23573E+02 -1.00000E+00  1.19830E-01
      21    -1     0     0   502   501  0.000000000E+00  0.000000000E+00  2.702822182E+02  2.702822182E+02  0.000000000E+00  0.00000E+00  9.000E+00
      21    -1     0     0   511   502  0.000000000E+00  0.000000000E+00 -1.011078217E+03  1.011078217E+03  0.000000000E+00  0.00000E+00  9.000E+00
      25     1     1     2     0     0  2.283215794E+02 -8.576512882E+01 -3.259393775E+00  2.740839736E+02  1.250000000E+02  0.00000E+00  9.000E+00
      25     1     1     2     0     0 -3.510821484E+02  7.161894102E+01 -1.519292065E+02  4.087730806E+02  1.250000000E+02  0.00000E+00  9.000E+00
      21     1     1     2   511   501  1.227605690E+02  1.414618780E+01 -5.856073989E+02  5.985033814E+02  1.078959322E-05  0.00000E+00  9.000E+00
#rwgt            1           1   2.5841884310452430E-002           8      134362           0
</event>
<event>
      5   9999  3.19816E-02  2.75398E+01 -1.00000E+00  1.55666E-01
      21    -1     0     0   502   501  0.000000000E+00  0.000000000E+00  7.700172945E+02  7.700172945E+02  0.000000000E+00  0.00000E+00  9.000E+00
      21    -1     0     0   512   502  0.000000000E+00  0.000000000E+00 -3.227409803E+02  3.227409803E+02  0.000000000E+00  0.00000E+00  9.000E+00
      25     1     1     2     0     0  1.209652438E+02 -2.521560642E+02  6.228933939E+02  6.941444022E+02  1.250000000E+02  0.00000E+00  9.000E+00
      25     1     1     2     0     0 -1.082908610E+02  2.766060439E+02 -1.347064988E+02  3.492973732E+02  1.250000000E+02  0.00000E+00  9.000E+00
      21     1     1     2   512   501 -1.267438280E+01 -2.444997973E+01 -4.091058091E+01  4.931649945E+01  4.768371582E-07  0.00000E+00  9.000E+00
#rwgt            1           1   2.5756919448292500E-002           8      134425           0
</event>
<event>
      5   9999  3.19816E-02  1.64755E+01 -1.00000E+00  1.73629E-01
      21    -1     0     0   502   511  0.000000000E+00  0.000000000E+00  6.545371032E+01  6.545371032E+01  0.000000000E+00  0.00000E+00  9.000E+00
      21    -1     0     0   501   502  0.000000000E+00  0.000000000E+00 -1.005050578E+03  1.005050578E+03  0.000000000E+00  0.00000E+00  9.000E+00
      25     1     1     2     0     0  1.692845626E+02 -7.976103862E+00 -6.557012096E+02  6.886871261E+02  1.250000000E+02  0.00000E+00  9.000E+00
      25     1     1     2     0     0 -1.746171982E+02 -7.612469863E+00 -2.927225280E+02  3.631261406E+02  1.250000000E+02  0.00000E+00  9.000E+00
      21     1     1     2   501   511  5.332635525E+00  1.558857372E+01  8.826870357E+00  1.869102118E+01  6.951036328E-07  0.00000E+00  9.000E+00
#rwgt            1           1   2.6921375744790532E-002           8      134613           0
</event>
<event>
      5   9999  3.19816E-02  1.03327E+01 -1.00000E+00  1.94128E-01
      21    -1     0     0   502   501  0.000000000E+00  0.000000000E+00  8.706990643E+02  8.706990643E+02  0.000000000E+00  0.00000E+00  9.000E+00
      21    -1     0     0   512   502  0.000000000E+00  0.000000000E+00 -4.269214337E+02  4.269214337E+02  0.000000000E+00  0.00000E+00  9.000E+00
      25     1     1     2     0     0 -2.915067448E+02 -3.907390696E+02 -1.363536759E+02  5.214120518E+02  1.250000000E+02  0.00000E+00  9.000E+00
      25     1     1     2     0     0  2.841792543E+02  3.834539854E+02  5.845846890E+02  7.649569047E+02  1.250000000E+02  0.00000E+00  9.000E+00
      21     1     1     2   512   501  7.327490504E+00  7.285084184E+00 -4.453382422E+00  1.125154139E+01  1.788139343E-07  0.00000E+00  9.000E+00
#rwgt            1           1   2.7331234050916756E-002           8      134723           0
</event>
<event>
      5   9999  3.19816E-02  6.79938E+00 -1.00000E+00  2.17354E-01
      21    -1     0     0   511   501  0.000000000E+00  0.000000000E+00  2.152337960E+02  2.152337960E+02  0.000000000E+00  0.00000E+00  9.000E+00
      21    -1     0     0   501   502  0.000000000E+00  0.000000000E+00 -8.239414517E+02  8.239414517E+02  0.000000000E+00  0.00000E+00  9.000E+00
      25     1     1     2     0     0  1.750521019E+02 -2.361802647E+02 -8.101146406E+01  3.295636708E+02  1.250000000E+02  0.00000E+00  9.000E+00
      25     1     1     2     0     0 -1.694769645E+02  2.322880464E+02 -5.786882923E+02  6.581681530E+02  1.250000000E+02  0.00000E+00  9.000E+00
      21     1     1     2   511   502 -5.575137422E+00  3.892218325E+00  5.099210069E+01  5.144342381E+01  1.168007728E-06  0.00000E+00  9.000E+00
#rwgt            1           1   2.4819982786334689E-002           8      135118           0
</event>
<event>
      5   9999  3.19816E-02  4.82125E+01 -1.00000E+00  1.39984E-01
      21    -1     0     0   502   501  0.000000000E+00  0.000000000E+00  1.010441667E+02  1.010441667E+02  0.000000000E+00  0.00000E+00  9.000E+00
      21    -1     0     0   512   502  0.000000000E+00  0.000000000E+00 -8.062010329E+02  8.062010329E+02  0.000000000E+00  0.00000E+00  9.000E+00
      25     1     1     2     0     0  2.296041080E+02 -4.052726875E+01 -3.448156667E+02  4.346071214E+02  1.250000000E+02  0.00000E+00  9.000E+00
      25     1     1     2     0     0 -1.850519584E+02  2.210034928E+01 -1.851270888E+02  2.909118282E+02  1.250000000E+02  0.00000E+00  9.000E+00
      21     1     1     2   512   501 -4.455214962E+01  1.842691947E+01 -1.752141107E+02  1.817262501E+02  1.907348633E-06  0.00000E+00  9.000E+00
#rwgt            1           1   2.5853354199801306E-002           8      135447           0
</event>
<event>
      5   9999  3.19816E-02  5.02532E+01 -1.00000E+00  1.38950E-01
      21    -1     0     0   502   501  0.000000000E+00  0.000000000E+00  3.265876610E+02  3.265876610E+02  0.000000000E+00  0.00000E+00  9.000E+00
      21    -1     0     0   511   502  0.000000000E+00  0.000000000E+00 -5.634768135E+02  5.634768135E+02  0.000000000E+00  0.00000E+00  9.000E+00
      25     1     1     2     0     0  3.082959811E+02 -2.648284779E+02 -9.152002323E+01  4.349499388E+02  1.250000000E+02  0.00000E+00  9.000E+00
      25     1     1     2     0     0 -2.672033411E+02  2.359012859E+02 -1.091652036E+02  3.931781834E+02  1.250000000E+02  0.00000E+00  9.000E+00
      21     1     1     2   511   501 -4.109263994E+01  2.892719194E+01 -3.620392577E+01  6.193635227E+01  8.259061849E-07  0.00000E+00  9.000E+00
#rwgt            1           1   2.8671182248435567E-002           8      135540           0
</event>
<event>
      5   9999  3.19816E-02  8.11400E+01 -1.00000E+00  1.28053E-01
      21    -1     0     0   512   501  0.000000000E+00  0.000000000E+00  9.749483305E+02  9.749483305E+02  0.000000000E+00  0.00000E+00  9.000E+00
      21    -1     0     0   501   502  0.000000000E+00  0.000000000E+00 -1.291784445E+03  1.291784445E+03  0.000000000E+00  0.00000E+00  9.000E+00
      25     1     1     2     0     0 -9.532910150E+02 -3.729220238E+02 -2.215839762E+02  1.054779149E+03  1.250000000E+02  0.00000E+00  9.000E+00
      25     1     1     2     0     0  9.806628764E+02  4.493057683E+02 -1.729684137E+02  1.099599210E+03  1.250000000E+02  0.00000E+00  9.000E+00
      21     1     1     2   512   502 -2.737186133E+01 -7.638374450E+01  7.771627593E+01  1.123544158E+02  9.536743164E-07  0.00000E+00  9.000E+00
#rwgt            1           1   1.7944880287930412E-002           8      135681           0
</event>
<event>
      5   9999  3.19816E-02  1.91214E+02 -1.00000E+00  1.12363E-01
      21    -1     0     0   502   501  0.000000000E+00  0.000000000E+00  7.013562255E+02  7.013562255E+02  0.000000000E+00  0.00000E+00  9.000E+00
      21    -1     0     0   511   502  0.000000000E+00  0.000000000E+00 -4.389833017E+02  4.389833017E+02  0.000000000E+00  0.00000E+00  9.000E+00
      25     1     1     2     0     0 -1.031138630E+02  3.107381416E+02  7.931753497E+01  3.593145317E+02  1.250000000E+02  0.00000E+00  9.000E+00
      25     1     1     2     0     0  4.479274475E+01 -4.928408329E+02  2.625053150E+02  5.739621215E+02  1.250000000E+02  0.00000E+00  9.000E+00
      21     1     1     2   511   501  5.832111824E+01  1.821026913E+02 -7.944992615E+01  2.070628740E+02  2.336015456E-06  0.00000E+00  9.000E+00
#rwgt            1           1   2.8822335839819278E-002           8      135872           0
</event>
<event>
      5   9999  3.19816E-02  7.07492E+02 -1.00000E+00  9.47500E-02
      21    -1     0     0   502   512  0.000000000E+00  0.000000000E+00  2.936440393E+03  2.936440393E+03  0.000000000E+00  0.00000E+00  9.000E+00
      21    -1     0     0   501   502  0.000000000E+00  0.000000000E+00 -3.147256489E+02  3.147256489E+02  0.000000000E+00  0.00000E+00  9.000E+00
      25     1     1     2     0     0 -3.474266511E+02 -1.594084214E+01  1.251299610E+02  3.901818748E+02  1.250000000E+02  0.00000E+00  9.000E+00
      25     1     1     2     0     0 -2.065810445E+02 -4.240820268E+02  3.492506377E+02  6.001019091E+02  1.250000000E+02  0.00000E+00  9.000E+00
      21     1     1     2   501   512  5.540076956E+02  4.400228689E+02  2.147334146E+03  2.260882258E+03  4.315837288E-05  0.00000E+00  9.000E+00
#rwgt            2          11   7.4541572653529181E-004           8      136055           0
</event>
<event>
      5   9999  3.19816E-02  6.69220E+01 -1.00000E+00  1.32217E-01
      21    -1     0     0   502   501  0.000000000E+00  0.000000000E+00  9.737838894E+02  9.737838894E+02  0.000000000E+00  0.00000E+00  9.000E+00
      21    -1     0     0   511   502  0.000000000E+00  0.000000000E+00 -1.862721249E+02  1.862721249E+02  0.000000000E+00  0.00000E+00  9.000E+00
      25     1     1     2     0     0 -3.745512074E+02 -7.374924197E+01  3.546705398E+02  5.358579565E+02  1.250000000E+02  0.00000E+00  9.000E+00
      25     1     1     2     0     0  3.134409390E+02  4.647133384E+01  4.404999185E+02  5.568392814E+02  1.250000000E+02  0.00000E+00  9.000E+00
      21     1     1     2   511   501  6.111026842E+01  2.727790814E+01 -7.658693836E+00  6.735877648E+01  1.130918620E-06  0.00000E+00  9.000E+00
#rwgt            1           1   2.8640053578449041E-002           8      136120           0
</event>
<event>
      5   9999  3.19816E-02  8.55181E+01 -1.00000E+00  1.26963E-01
      21    -1     0     0   502   501  0.000000000E+00  0.000000000E+00  1.255290777E+03  1.255290777E+03  0.000000000E+00  0.00000E+00  9.000E+00
      21    -1     0     0   501   512  0.000000000E+00  0.000000000E+00 -2.743888515E+02  2.743888515E+02  0.000000000E+00  0.00000E+00  9.000E+00
      25     1     1     2     0     0 -2.061448268E+02  2.781151675E+01  2.097590469E+02  3.207694309E+02  1.250000000E+02  0.00000E+00  9.000E+00
      25     1     1     2     0     0  1.541951659E+02 -9.574218437E+01  9.687980760E+02  9.935478987E+02  1.250000000E+02  0.00000E+00  9.000E+00
      21     1     1     2   502   512  5.194966087E+01  6.793066762E+01 -1.976551971E+02  2.153622990E+02  3.814697266E-06  0.00000E+00  9.000E+00
#rwgt            1           1   2.9923034935335421E-002           8      136217           0
</event>
<event>
      5   9999  3.19816E-02  3.13176E+01 -1.00000E+00  1.51755E-01
      21    -1     0     0   511   501  0.000000000E+00  0.000000000E+00  1.952119162E+03  1.952119162E+03  0.000000000E+00  0.00000E+00  9.000E+00
      21    -1     0     0   501   502  0.000000000E+00  0.000000000E+00 -2.778384334E+02  2.778384334E+02  0.000000000E+00  0.00000E+00  9.000E+00
      25     1     1     2     0     0 -3.258244527E+02  6.051290727E+02  5.530645020E+02  8.909815441E+02  1.250000000E+02  0.00000E+00  9.000E+00
      25     1     1     2     0     0  2.977362608E+02 -6.189798433E+02  1.046951890E+03  1.258378396E+03  1.250000000E+02  0.00000E+00  9.000E+00
      21     1     1     2   511   502  2.808819184E+01  1.385077059E+01  7.426433688E+01  8.059765566E+01  9.536743164E-07  0.00000E+00  9.000E+00
#rwgt            1           1   2.7385785396514224E-002           8      136322           0
</event>
<event>
      5   9999  3.44139E-02  1.08908E+02 -1.00000E+00  1.22184E-01
      21    -1     0     0   512   501  0.000000000E+00  0.000000000E+00  1.405392863E+02  1.405392863E+02  0.000000000E+00  0.00000E+00  9.000E+00
      21    -1     0     0   501   502  0.000000000E+00  0.000000000E+00 -9.457253557E+02  9.457253557E+02  0.000000000E+00  0.00000E+00  9.000E+00
      25     1     1     2     0     0 -5.767614337E+01 -8.280600240E+01 -1.059579834E+01  1.609988897E+02  1.250000000E+02  0.00000E+00  9.000E+00
      25     1     1     2     0     0 -4.148511193E+01  1.278387028E+02 -7.954533618E+02  8.163545793E+02  1.250000000E+02  0.00000E+00  9.000E+00
      21     1     1     2   512   502  9.916125530E+01 -4.503270038E+01  8.630907620E-01  1.089111729E+02  2.564298916E-06  0.00000E+00  9.000E+00
#rwgt            1           1   3.1919446717231952E-002           8      136499           0
</event>
<event>
      5   9999  3.19816E-02  1.88932E+02 -1.00000E+00  1.12556E-01
      21    -1     0     0   502   501  0.000000000E+00  0.000000000E+00  2.078272300E+03  2.078272300E+03  0.000000000E+00  0.00000E+00  9.000E+00
      -1    -1     0     0     0   502  0.000000000E+00  0.000000000E+00 -1.060247060E+02  1.060247060E+02  0.000000000E+00  0.00000E+00  9.000E+00
      25     1     1     2     0     0  1.893325670E+02  1.852203429E+02  1.123209518E+03  1.160766134E+03  1.250000000E+02  0.00000E+00  9.000E+00
      25     1     1     2     0     0 -3.384332497E+02 -6.918409369E+01  6.653310656E+02  7.600091645E+02  1.250000000E+02  0.00000E+00  9.000E+00
      -1     1     1     2     0   501  1.491006827E+02 -1.160362492E+02  1.837070105E+02  2.635217077E+02  2.697398305E-06  0.00000E+00  9.000E+00
#rwgt            1           1   3.3404050228006903E-002           8      136533           0
</event>
<event>
      5   9999  3.19816E-02  3.89079E+01 -1.00000E+00  1.45590E-01
      21    -1     0     0   511   501  0.000000000E+00  0.000000000E+00  1.354170899E+02  1.354170899E+02  0.000000000E+00  0.00000E+00  9.000E+00
      21    -1     0     0   501   502  0.000000000E+00  0.000000000E+00 -3.349689540E+02  3.349689540E+02  0.000000000E+00  0.00000E+00  9.000E+00
      25     1     1     2     0     0 -8.992689972E+01  9.713564181E+01 -3.403563044E+01  1.852177215E+02  1.250000000E+02  0.00000E+00  9.000E+00
      25     1     1     2     0     0  5.122696484E+01 -1.011528727E+02 -1.770397568E+02  2.445898221E+02  1.250000000E+02  0.00000E+00  9.000E+00
      21     1     1     2   511   502  3.869993487E+01  4.017230936E+00  1.152352317E+01  4.057850034E+01  2.920019320E-07  0.00000E+00  9.000E+00
#rwgt            1           1   2.4363855486967519E-002           8      136584           0
</event>
<event>
      5   9999  3.19816E-02  2.43343E+01 -1.00000E+00  1.59634E-01
      21    -1     0     0   502   501  0.000000000E+00  0.000000000E+00  2.013097511E+02  2.013097511E+02  0.000000000E+00  0.00000E+00  9.000E+00
      21    -1     0     0   512   502  0.000000000E+00  0.000000000E+00 -5.423901003E+02  5.423901003E+02  0.000000000E+00  0.00000E+00  9.000E+00
      25     1     1     2     0     0  1.113539427E+02 -1.920441760E+02 -1.012438343E+01  2.549669964E+02  1.250000000E+02  0.00000E+00  9.000E+00
      25     1     1     2     0     0 -8.777260873E+01  1.980506638E+02 -1.218387678E+02  2.782045679E+02  1.250000000E+02  0.00000E+00  9.000E+00
      21     1     1     2   512   501 -2.358133398E+01 -6.006487745E+00 -2.091171979E+02  2.105282871E+02  0.000000000E+00  0.00000E+00  9.000E+00
#rwgt            1           1   3.1747235495035650E-002           8      136766           0
</event>
<event>
      5   9999  3.19816E-02  2.06834E+02 -1.00000E+00  1.11119E-01
       1    -1     0     0   502     0  0.000000000E+00  0.000000000E+00  8.723078787E+02  8.723078787E+02  0.000000000E+00  0.00000E+00  9.000E+00
      21    -1     0     0   501   502  0.000000000E+00  0.000000000E+00 -1.241557027E+03  1.241557027E+03  0.000000000E+00  0.00000E+00  9.000E+00
      25     1     1     2     0     0  5.337363783E+01 -7.682932641E+01  7.332303527E+01  1.724898783E+02  1.250000000E+02  0.00000E+00  9.000E+00
      25     1     1     2     0     0  3.552791668E+01 -1.099234882E+02 -1.171433696E+03  1.183734477E+03  1.250000000E+02  0.00000E+00  9.000E+00
       1     1     1     2   501     0 -8.890155451E+01  1.867528146E+02  7.288615125E+02  7.576405511E+02  1.078959322E-05  0.00000E+00  9.000E+00
#rwgt            1           1   2.9819173510107124E-002           8      136883           0
</event>
<event>
      5   9999  3.19816E-02  9.80456E+01 -1.00000E+00  1.24215E-01
      21    -1     0     0   502   501  0.000000000E+00  0.000000000E+00  4.546972880E+02  4.546972880E+02  0.000000000E+00  0.00000E+00  9.000E+00
      21    -1     0     0   511   502  0.000000000E+00  0.000000000E+00 -5.280285581E+02  5.280285581E+02  0.000000000E+00  0.00000E+00  9.000E+00
      25     1     1     2     0     0  2.231220416E+02  2.107914055E+02  2.287781296E+02  4.027168914E+02  1.250000000E+02  0.00000E+00  9.000E+00
      25     1     1     2     0     0 -2.901458159E+02 -1.392320039E+02 -1.066609887E+02  3.613470795E+02  1.250000000E+02  0.00000E+00  9.000E+00
      21     1     1     2   511   501  6.702377427E+01 -7.155940153E+01 -1.954484110E+02  2.186618751E+02  3.814697266E-06  0.00000E+00  9.000E+00
#rwgt            1           1   2.8448208565175211E-002           8      136925           0
</event>
<event>
      5   9999  3.82578E-02  2.04676E+01 -1.00000E+00  1.65545E-01
      21    -1     0     0   512   501  0.000000000E+00  0.000000000E+00  9.323049199E+02  9.323049199E+02  0.000000000E+00  0.00000E+00  9.000E+00
      21    -1     0     0   501   502  0.000000000E+00  0.000000000E+00 -1.721732117E+03  1.721732117E+03  0.000000000E+00  0.00000E+00  9.000E+00
      25     1     1     2     0     0  6.866845351E+02 -8.019971082E+02 -1.013351676E+03  1.468755130E+03  1.250000000E+02  0.00000E+00  9.000E+00
      25     1     1     2     0     0 -6.897503627E+02  7.817604273E+02  9.451013490E+01  1.054259026E+03  1.250000000E+02  0.00000E+00  9.000E+00
      21     1     1     2   512   502  3.065827565E+00  2.023668090E+01  1.294143447E+02  1.310228803E+02  0.000000000E+00  0.00000E+00  9.000E+00
#rwgt            1           1   9.3331037180830606E-002           8      136976           0
</event>
<event>
      5   9999  3.19816E-02  1.08223E+01 -1.00000E+00  1.91872E-01
      21    -1     0     0   502   501  0.000000000E+00  0.000000000E+00  5.368845971E+02  5.368845971E+02  0.000000000E+00  0.00000E+00  9.000E+00
      21    -1     0     0   501   511  0.000000000E+00  0.000000000E+00 -3.964052207E+02  3.964052207E+02  0.000000000E+00  0.00000E+00  9.000E+00
      25     1     1     2     0     0 -2.878807621E+02 -9.784280969E+01  3.697868981E+02  4.947887414E+02  1.250000000E+02  0.00000E+00  9.000E+00
      25     1     1     2     0     0  2.891145379E+02  1.085945279E+02 -1.622587683E+02  3.705845321E+02  1.250000000E+02  0.00000E+00  9.000E+00
      21     1     1     2   502   511 -1.233775814E+00 -1.075171825E+01 -6.704875349E+01  6.791654432E+01  1.348699152E-06  0.00000E+00  9.000E+00
#rwgt            1           1   2.8054994394633229E-002           8      137229           0
</event>
<event>
      5   9999  3.19816E-02  2.56244E+02 -1.00000E+00  1.07865E-01
      21    -1     0     0   502   501  0.000000000E+00  0.000000000E+00  1.686333018E+03  1.686333018E+03  0.000000000E+00  0.00000E+00  9.000E+00
      21    -1     0     0   501   512  0.000000000E+00  0.000000000E+00 -1.053636762E+02  1.053636762E+02  0.000000000E+00  0.00000E+00  9.000E+00
      25     1     1     2     0     0  6.358420388E+01 -2.614519699E+02  6.381910211E+02  7.037846709E+02  1.250000000E+02  0.00000E+00  9.000E+00
      25     1     1     2     0     0  8.962490398E+00  1.569212024E+01  7.666280423E+02  7.769621124E+02  1.250000000E+02  0.00000E+00  9.000E+00
      21     1     1     2   502   512 -7.254669427E+01  2.457598497E+02  1.761502785E+02  3.109499111E+02  3.814697266E-06  0.00000E+00  9.000E+00
#rwgt            2          11   7.1059228463442930E-003           8      137487           0
</event>
<event>
      5   9999  3.19816E-02  1.63265E+02 -1.00000E+00  1.14954E-01
       1    -1     0     0   502     0  0.000000000E+00  0.000000000E+00  5.853873318E+02  5.853873318E+02  0.000000000E+00  0.00000E+00  9.000E+00
      21    -1     0     0   501   502  0.000000000E+00  0.000000000E+00 -2.534704700E+02  2.534704700E+02  0.000000000E+00  0.00000E+00  9.000E+00
      25     1     1     2     0     0  8.821149316E+01  1.086358704E+02  2.502513893E+02  3.127839154E+02  1.250000000E+02  0.00000E+00  9.000E+00
      25     1     1     2     0     0 -1.039579892E+02 -2.711394185E+02 -4.513505955E+01  3.193525034E+02  1.250000000E+02  0.00000E+00  9.000E+00
       1     1     1     2   501     0  1.574649606E+01  1.625035481E+02  1.268005320E+02  2.067213830E+02  3.015782986E-06  0.00000E+00  9.000E+00
#rwgt            1           1   2.7037384579817410E-002           8      137537           0
</event>
<event>
      5   9999  3.19816E-02  6.39269E+01 -1.00000E+00  1.33248E-01
      21    -1     0     0   502   501  0.000000000E+00  0.000000000E+00  1.050128015E+02  1.050128015E+02  0.000000000E+00  0.00000E+00  9.000E+00
      21    -1     0     0   501   511  0.000000000E+00  0.000000000E+00 -1.450519758E+03  1.450519758E+03  0.000000000E+00  0.00000E+00  9.000E+00
      25     1     1     2     0     0  1.512867385E+02  5.716332845E+01 -1.164180430E+03  1.181988323E+03  1.250000000E+02  0.00000E+00  9.000E+00
      25     1     1     2     0     0 -1.735769491E+02  2.751564235E+00 -3.889800375E+01  2.174271902E+02  1.250000000E+02  0.00000E+00  9.000E+00
      21     1     1     2   502   511  2.229021054E+01 -5.991489268E+01 -1.424285224E+02  1.561170453E+02  3.303624740E-06  0.00000E+00  9.000E+00
#rwgt            1           1   2.9137533271007370E-002           8      137638           0
</event>
<event>
      5   9999  3.19816E-02  2.41119E+01 -1.00000E+00  1.59937E-01
      21    -1     0     0   502   501  0.000000000E+00  0.000000000E+00  1.172029088E+02  1.172029088E+02  0.000000000E+00  0.00000E+00  9.000E+00
      21    -1     0     0   512   502  0.000000000E+00  0.000000000E+00 -6.054522536E+02  6.054522536E+02  0.000000000E+00  0.00000E+00  9.000E+00
      25     1     1     2     0     0 -2.221208873E+02 -1.697326318E+01 -3.280229893E+02  4.157521638E+02  1.250000000E+02  0.00000E+00  9.000E+00
      25     1     1     2     0     0  1.984849125E+02  2.174029419E+01 -1.329562968E+02  2.705018997E+02  1.250000000E+02  0.00000E+00  9.000E+00
      21     1     1     2   512   501  2.363597482E+01 -4.767031013E+00 -2.727005878E+01  3.640109883E+01  3.371747881E-07  0.00000E+00  9.000E+00
#rwgt            1           1   2.8417425864307757E-002           8      137732           0
</event>
<event>
      5   9999  3.19816E-02  9.82205E+01 -1.00000E+00  1.24180E-01
      21    -1     0     0   502   501  0.000000000E+00  0.000000000E+00  9.000306258E+02  9.000306258E+02  0.000000000E+00  0.00000E+00  9.000E+00
      21    -1     0     0   511   502  0.000000000E+00  0.000000000E+00 -2.030348040E+02  2.030348040E+02  0.000000000E+00  0.00000E+00  9.000E+00
      25     1     1     2     0     0  1.240785573E+02  7.624727793E+01  6.553768000E+02  6.829003483E+02  1.250000000E+02  0.00000E+00  9.000E+00
      25     1     1     2     0     0 -1.483089815E+02  1.893753617E+01  1.699383376E+02  2.585695707E+02  1.250000000E+02  0.00000E+00  9.000E+00
      21     1     1     2   511   501  2.423042423E+01 -9.518481410E+01 -1.283193159E+02  1.615955108E+02  1.907348633E-06  0.00000E+00  9.000E+00
#rwgt            1           1   2.6592085788067245E-002           8      137834           0
</event>
<event>
      5   9999  3.19816E-02  1.30980E+01 -1.00000E+00  1.83117E-01
      21    -1     0     0   502   512  0.000000000E+00  0.000000000E+00  1.412918032E+02  1.412918032E+02  0.000000000E+00  0.00000E+00  9.000E+00
      21    -1     0     0   501   502  0.000000000E+00  0.000000000E+00 -9.409981505E+02  9.409981505E+02  0.000000000E+00  0.00000E+00  9.000E+00
      25     1     1     2     0     0  2.485497806E+01  1.220850665E+02 -4.015733100E+02  4.386441117E+02  1.250000000E+02  0.00000E+00  9.000E+00
      25     1     1     2     0     0 -3.777846370E+01 -1.242161913E+02 -5.048875730E+02  5.360907907E+02  1.250000000E+02  0.00000E+00  9.000E+00
      21     1     1     2   501   512  1.292348564E+01  2.131124757E+00  1.067545357E+02  1.075550513E+02  2.336015456E-06  0.00000E+00  9.000E+00
#rwgt            1           1   3.6214684972850117E-002           8      137874           0
</event>
<event>
      5   9999  3.19816E-02  2.19647E+01 -1.00000E+00  1.63080E-01
      21    -1     0     0   511   501  0.000000000E+00  0.000000000E+00  4.764899171E+02  4.764899171E+02  0.000000000E+00  0.00000E+00  9.000E+00
      21    -1     0     0   501   502  0.000000000E+00  0.000000000E+00 -2.927642510E+02  2.927642510E+02  0.000000000E+00  0.00000E+00  9.000E+00
      25     1     1     2     0     0 -1.550308901E+02 -2.575630449E+02  1.207806926E+02  3.472553451E+02  1.250000000E+02  0.00000E+00  9.000E+00
      25     1     1     2     0     0  1.769228781E+02  2.557771702E+02 -2.040330936E+01  3.358049443E+02  1.250000000E+02  0.00000E+00  9.000E+00
      21     1     1     2   511   502 -2.189198799E+01  1.785874685E+00  8.334828278E+01  8.619387872E+01  0.000000000E+00  0.00000E+00  9.000E+00
#rwgt            1           1   2.8080343640226886E-002           8      138008           0
</event>
<event>
      5   9999  3.19816E-02  3.26909E+01 -1.00000E+00  1.50493E-01
      21    -1     0     0   502   501  0.000000000E+00  0.000000000E+00  5.434424863E+02  5.434424863E+02  0.000000000E+00  0.00000E+00  9.000E+00
      21    -1     0     0   512   502  0.000000000E+00  0.000000000E+00 -1.183397078E+03  1.183397078E+03  0.000000000E+00  0.00000E+00  9.000E+00
      25     1     1     2     0     0  4.869309194E+02  1.687336587E+02 -9.328273098E+02  1.073016569E+03  1.250000000E+02  0.00000E+00  9.000E+00
      25     1     1     2     0     0 -4.808542892E+02 -2.008547900E+02  3.076695027E+02  6.179393312E+02  1.250000000E+02  0.00000E+00  9.000E+00
      21     1     1     2   512   501 -6.076630211E+00  3.212113133E+01 -1.479678459E+01  3.588366407E+01  1.685873940E-07  0.00000E+00  9.000E+00
#rwgt            1           1   3.3255937240665272E-002           8      138152           0
</event>
<event>
      5   9999  3.19816E-02  1.71678E+01 -1.00000E+00  1.72033E-01
      21    -1     0     0   502   501  0.000000000E+00  0.000000000E+00  8.915878500E+02  8.915878500E+02  0.000000000E+00  0.00000E+00  9.000E+00
      21    -1     0     0   511   502  0.000000000E+00  0.000000000E+00 -1.092668084E+03  1.092668084E+03  0.000000000E+00  0.00000E+00  9.000E+00
      25     1     1     2     0     0  9.214000206E+02 -1.701866927E+02 -3.621038402E+02  1.012267603E+03  1.250000000E+02  0.00000E+00  9.000E+00
      25     1     1     2     0     0 -9.083590731E+02  1.813520658E+02  1.736522623E+02  9.506760150E+02  1.250000000E+02  0.00000E+00  9.000E+00
      21     1     1     2   511   501 -1.304094758E+01 -1.116537308E+01 -1.262865601E+01  2.131231622E+01  2.384185791E-07  0.00000E+00  9.000E+00
#rwgt            2          11   5.7194354015279013E-003           8      138377           0
</event>
<event>
      5   9999  3.19816E-02  2.56170E+00 -1.00000E+00  3.19364E-01
      21    -1     0     0   512   501  0.000000000E+00  0.000000000E+00  1.797351549E+03  1.797351549E+03  0.000000000E+00  0.00000E+00  9.000E+00
      21    -1     0     0   501   502  0.000000000E+00  0.000000000E+00 -1.502732291E+02  1.502732291E+02  0.000000000E+00  0.00000E+00  9.000E+00
      25     1     1     2     0     0 -7.550820832E+00  3.489255169E+02  3.305589395E+02  4.966892829E+02  1.250000000E+02  0.00000E+00  9.000E+00
      25     1     1     2     0     0  8.031257998E+00 -3.514417615E+02  4.506065160E+02  5.850188416E+02  1.250000000E+02  0.00000E+00  9.000E+00
      21     1     1     2   512   502 -4.804371651E-01  2.516244578E+00  8.659128645E+02  8.659166537E+02  1.078959322E-05  0.00000E+00  9.000E+00
#rwgt            1           1   2.8446201733520471E-002           8      138397           0
</event>
<event>
      5   9999  3.19816E-02  1.23565E+02 -1.00000E+00  1.19831E-01
      21    -1     0     0   502   501  0.000000000E+00  0.000000000E+00  3.201326431E+02  3.201326431E+02  0.000000000E+00  0.00000E+00  9.000E+00
       2    -1     0     0   501     0  0.000000000E+00  0.000000000E+00 -3.033923762E+02  3.033923762E+02  0.000000000E+00  0.00000E+00  9.000E+00
      25     1     1     2     0     0  4.977040388E+01  3.380805808E+01  1.713092519E+02  2.204357904E+02  1.250000000E+02  0.00000E+00  9.000E+00
      25     1     1     2     0     0 -1.551896962E+02  3.065248581E+01  4.501511700E+00  2.016647721E+02  1.250000000E+02  0.00000E+00  9.000E+00
       2     1     1     2   502     0  1.054192923E+02 -6.446054389E+01 -1.590704966E+02  2.014244568E+02  1.907348633E-06  0.00000E+00  9.000E+00
#rwgt            2          13   2.9076897760635118E-004           8      138934           0
</event>
<event>
      5   9999  3.19816E-02  2.41183E+01 -1.00000E+00  1.59928E-01
      21    -1     0     0   511   501  0.000000000E+00  0.000000000E+00  2.420971880E+02  2.420971880E+02  0.000000000E+00  0.00000E+00  9.000E+00
      21    -1     0     0   501   502  0.000000000E+00  0.000000000E+00 -1.513044581E+02  1.513044581E+02  0.000000000E+00  0.00000E+00  9.000E+00
      25     1     1     2     0     0 -2.323324436E+01  8.568507583E+01  6.002187756E+01  1.646491471E+02  1.250000000E+02  0.00000E+00  9.000E+00
      25     1     1     2     0     0  7.234027315E+00 -1.037326854E+02 -2.821447263E+01  1.650268392E+02  1.250000000E+02  0.00000E+00  9.000E+00
      21     1     1     2   511   502  1.599921705E+01  1.804760959E+01  5.898532493E+01  6.372565979E+01  0.000000000E+00  0.00000E+00  9.000E+00
#rwgt            1           1   3.2197810604456492E-002           8      138953           0
</event>
<event>
      5   9999  3.19816E-02  1.94850E+02 -1.00000E+00  1.12062E-01
      21    -1     0     0   512   501  0.000000000E+00  0.000000000E+00  3.503242034E+02  3.503242034E+02  0.000000000E+00  0.00000E+00  9.000E+00
      21    -1     0     0   501   502  0.000000000E+00  0.000000000E+00 -5.910375449E+02  5.910375449E+02  0.000000000E+00  0.00000E+00  9.000E+00
      25     1     1     2     0     0  1.599486085E+02  1.893401021E+02 -4.416228420E+02  5.216214779E+02  1.250000000E+02  0.00000E+00  9.000E+00
      25     1     1     2     0     0 -1.203921227E+02  1.452200991E+00  8.910673925E+01  1.950932676E+02  1.250000000E+02  0.00000E+00  9.000E+00
      21     1     1     2   512   502 -3.955648583E+01 -1.907923031E+02  1.118027612E+02  2.246470029E+02  4.672030912E-06  0.00000E+00  9.000E+00
#rwgt            1           1   2.6526921587210463E-002           8      139048           0
</event>
<event>
      5   9999  3.19816E-02  1.36357E+02 -1.00000E+00  1.18059E-01
      21    -1     0     0   502   501  0.000000000E+00  0.000000000E+00  2.313431967E+02  2.313431967E+02  0.000000000E+00  0.00000E+00  9.000E+00
      21    -1     0     0   501   511  0.000000000E+00  0.000000000E+00 -1.380469982E+03  1.380469982E+03  0.000000000E+00  0.00000E+00  9.000E+00
      25     1     1     2     0     0 -9.413981156E+01 -4.928404344E+02 -5.709830434E+02  7.703250182E+02  1.250000000E+02  0.00000E+00  9.000E+00
      25     1     1     2     0     0  1.101290765E+02  3.574237336E+02 -2.054883681E+02  4.446690997E+02  1.250000000E+02  0.00000E+00  9.000E+00
      21     1     1     2   502   511 -1.598926491E+01  1.354167008E+02 -3.726553742E+02  3.968190612E+02  7.629394531E-06  0.00000E+00  9.000E+00
#rwgt            1           1   2.5854368596605146E-002           8      139099           0
</event>
<event>
      5   9999  3.19816E-02  6.98442E+01 -1.00000E+00  1.31270E-01
      21    -1     0     0   502   512  0.000000000E+00  0.000000000E+00  1.906480833E+02  1.906480833E+02  0.000000000E+00  0.00000E+00  9.000E+00
      21    -1     0     0   501   502  0.000000000E+00  0.000000000E+00 -6.450197032E+02  6.450197032E+02  0.000000000E+00  0.00000E+00  9.000E+00
      25     1     1     2     0     0 -1.839576646E+02  1.231133617E+01 -4.305199572E+02  4.847312915E+02  1.250000000E+02  0.00000E+00  9.000E+00
      25     1     1     2     0     0  2.402226568E+02 -5.369328393E+01  3.058796208E+00  2.760873952E+02  1.250000000E+02  0.00000E+00  9.000E+00
      21     1     1     2   501   512 -5.626499214E+01  4.138194776E+01 -2.691045894E+01  7.484909980E+01  8.920806376E-07  0.00000E+00  9.000E+00
#rwgt            1           1   2.9823578302139050E-002           8      139161           0
</event>
<event>
      5   9999  3.19816E-02  4.16930E+01 -1.00000E+00  1.43732E-01
      21    -1     0     0   511   501  0.000000000E+00  0.000000000E+00  3.395488055E+02  3.395488055E+02  0.000000000E+00  0.00000E+00  9.000E+00
      21    -1     0     0   501   502  0.000000000E+00  0.000000000E+00 -1.938078306E+02  1.938078306E+02  0.000000000E+00  0.00000E+00  9.000E+00
      25     1     1     2     0     0  1.530828774E+01  3.150333585E+01  1.031131732E+02  1.657833838E+02  1.250000000E+02  0.00000E+00  9.000E+00
      25     1     1     2     0     0  9.935780662E+00 -6.468534279E+01 -1.288640310E+02  1.910859801E+02  1.250000000E+02  0.00000E+00  9.000E+00
      21     1     1     2   511   502 -2.524406841E+01  3.318200694E+01  1.714918326E+02  1.764872721E+02  1.907348633E-06  0.00000E+00  9.000E+00
#rwgt            1           1   2.5889858615582437E-002           8      139265           0
</event>
<event>
      5   9999  3.19816E-02  6.20458E+01 -1.00000E+00  1.33930E-01
      21    -1     0     0   502   501  0.000000000E+00  0.000000000E+00  4.563794266E+02  4.563794266E+02  0.000000000E+00  0.00000E+00  9.000E+00
      21    -1     0     0   512   502  0.000000000E+00  0.000000000E+00 -1.570567635E+02  1.570567635E+02  0.000000000E+00  0.00000E+00  9.000E+00
      25     1     1     2     0     0 -7.501873255E+01 -8.768861134E+01  3.623836996E+02  4.003299246E+02  1.250000000E+02  0.00000E+00  9.000E+00
      25     1     1     2     0     0  5.531940598E+01  2.885307447E+01 -5.655983911E+01  1.507207749E+02  1.250000000E+02  0.00000E+00  9.000E+00
      21     1     1     2   512   501  1.969932658E+01  5.883553687E+01 -6.501197463E+00  6.238549058E+01  1.367014043E-06  0.00000E+00  9.000E+00
#rwgt            1           1   2.6950810798996812E-002           8      139358           0
</event>
<event>
      5   9999  3.19816E-02  2.01831E+02 -1.00000E+00  1.11504E-01
      21    -1     0     0   502   511  0.000000000E+00  0.000000000E+00  1.081223686E+03  1.081223686E+03  0.000000000E+00  0.00000E+00  9.000E+00
      21    -1     0     0   501   502  0.000000000E+00  0.000000000E+00 -3.796647927E+02  3.796647927E+02  0.000000000E+00  0.00000E+00  9.000E+00
      25     1     1     2     0     0 -2.283278378E+02 -3.168885710E+02 -1.216339614E+02  4.277520175E+02  1.250000000E+02  0.00000E+00  9.000E+00
      25     1     1     2     0     0  3.633346474E+01  3.791304495E+02  6.659335196E+02  7.772724560E+02  1.250000000E+02  0.00000E+00  9.000E+00
      21     1     1     2   501   511  1.919943730E+02 -6.224187849E+01  1.572593354E+02  2.558640054E+02  1.907348633E-06  0.00000E+00  9.000E+00
#rwgt            1           1   3.0941792909413391E-002           8      139465           0
</event>
<event>
      5   9999  3.19816E-02  1.61751E+02 -1.00000E+00  1.15110E-01
      21    -1     0     0   502   512  0.000000000E+00  0.000000000E+00  1.826866460E+02  1.826866460E+02  0.000000000E+00  0.00000E+00  9.000E+00
      21    -1     0     0   501   502  0.000000000E+00  0.000000000E+00 -1.421939976E+03  1.421939976E+03  0.000000000E+00  0.00000E+00  9.000E+00
      25     1     1     2     0     0  1.836087848E+02  9.940057658E+01 -3.013513737E+02  3.873374639E+02  1.250000000E+02  0.00000E+00  9.000E+00
      25     1     1     2     0     0 -1.925447837E+02  6.210331734E+01 -1.011861040E+03  1.039431614E+03  1.250000000E+02  0.00000E+00  9.000E+00
      21     1     1     2   501   512  8.935998822E+00 -1.615038939E+02  7.395908403E+01  1.778575439E+02  1.348699152E-06  0.00000E+00  9.000E+00
#rwgt            1           1   3.1229178901111036E-002           8      139582           0
</event>
<event>
      5   9999  3.19816E-02  1.57959E+02 -1.00000E+00  1.15511E-01
      21    -1     0     0   502   501  0.000000000E+00  0.000000000E+00  5.117740428E+02  5.117740428E+02  0.000000000E+00  0.00000E+00  9.000E+00
      21    -1     0     0   511   502  0.000000000E+00  0.000000000E+00 -2.741633813E+03  2.741633813E+03  0.000000000E+00  0.00000E+00  9.000E+00
      25     1     1     2     0     0  2.858369260E+02 -4.990886768E+02 -2.041151816E+03  2.124315888E+03  1.250000000E+02  0.00000E+00  9.000E+00
      25     1     1     2     0     0 -3.431847957E+02  3.519073469E+02  3.177975330E+02  5.985272399E+02  1.250000000E+02  0.00000E+00  9.000E+00
      21     1     1     2   511   501  5.734786977E+01  1.471813299E+02 -5.065054874E+02  5.305647282E+02  9.344061824E-06  0.00000E+00  9.000E+00
#rwgt            1           1   2.4243335337669161E-002           8      139642           0
</event>
<event>
      5   9999  3.19816E-02  4.97134E+01 -1.00000E+00  1.39218E-01
      21    -1     0     0   512   501  0.000000000E+00  0.000000000E+00  3.483454149E+02  3.483454149E+02  0.000000000E+00  0.00000E+00  9.000E+00
      21    -1     0     0   501   502  0.000000000E+00  0.000000000E+00 -4.781833684E+02  4.781833684E+02  0.000000000E+00  0.00000E+00  9.000E+00
      25     1     1     2     0     0 -2.091942514E+02  1.462859390E+02 -6.062223622E+01  2.906232377E+02  1.250000000E+02  0.00000E+00  9.000E+00
      25     1     1     2     0     0  1.613910694E+02 -1.599344634E+02 -2.428560452E+02  3.552888523E+02  1.250000000E+02  0.00000E+00  9.000E+00
      21     1     1     2   512   502  4.780318191E+01  1.364852434E+01  1.736403280E+02  1.806166934E+02  1.907348633E-06  0.00000E+00  9.000E+00
#rwgt            1           1   3.1986200451293821E-002           8      139731           0
</event>
<event>
      5   9999  3.19816E-02  6.13956E+01 -1.00000E+00  1.34172E-01
      21    -1     0     0   502   501  0.000000000E+00  0.000000000E+00  1.192782213E+03  1.192782213E+03  0.000000000E+00  0.00000E+00  9.000E+00
      21    -1     0     0   501   511  0.000000000E+00  0.000000000E+00 -2.681793938E+02  2.681793938E+02  0.000000000E+00  0.00000E+00  9.000E+00
      25     1     1     2     0     0  2.318889937E+01 -7.483565621E+01  1.128567863E+03  1.138168933E+03  1.250000000E+02  0.00000E+00  9.000E+00
      25     1     1     2     0     0 -3.149686815E+01  1.356665100E+02 -1.688923763E+02  2.520854804E+02  1.250000000E+02  0.00000E+00  9.000E+00
      21     1     1     2   502   511  8.307968780E+00 -6.083085375E+01 -3.507266736E+01  7.070719277E+01  4.768371582E-07  0.00000E+00  9.000E+00
#rwgt            1           1   3.0080475383309119E-002           8      139829           0
</event>
<event>
      5   9999  3.19816E-02  7.55022E+01 -1.00000E+00  1.29578E-01
      21    -1     0     0   502   501  0.000000000E+00  0.000000000E+00  9.991270728E+02  9.991270728E+02  0.000000000E+00  0.00000E+00  9.000E+00
      21    -1     0     0   501   512  0.000000000E+00  0.000000000E+00 -1.267687098E+03  1.267687098E+03  0.000000000E+00  0.00000E+00  9.000E+00
      25     1     1     2     0     0  3.935675596E+02  3.393331978E+02  8.566399007E+02  1.009702611E+03  1.250000000E+02  0.00000E+00  9.000E+00
      25     1     1     2     0     0 -3.257465521E+02 -3.061535152E+02 -1.060657001E+03  1.157781959E+03  1.250000000E+02  0.00000E+00  9.000E+00
      21     1     1     2   502   512 -6.782100747E+01 -3.317968255E+01 -6.454292439E+01  9.932960021E+01  1.348699152E-06  0.00000E+00  9.000E+00
#rwgt            1           1   2.6431282783603825E-002           8      140016           0
</event>
<event>
      5   9999  3.19816E-02  4.98896E+01 -1.00000E+00  1.39130E-01
      21    -1     0     0   502   511  0.000000000E+00  0.000000000E+00  7.283409955E+02  7.283409955E+02  0.000000000E+00  0.00000E+00  9.000E+00
      21    -1     0     0   501   502  0.000000000E+00  0.000000000E+00 -4.939176339E+01  4.939176339E+01  0.000000000E+00  0.00000E+00  9.000E+00
      25     1     1     2     0     0  7.646293092E+01  9.126309605E+01  3.887961809E+02  4.253974645E+02  1.250000000E+02  0.00000E+00  9.000E+00
      25     1     1     2     0     0 -3.354478006E+01 -6.582679004E+01  1.789109605E+02  2.304182075E+02  1.250000000E+02  0.00000E+00  9.000E+00
      21     1     1     2   501   511 -4.291815086E+01 -2.543630602E+01  1.112420907E+02  1.219170869E+02  1.907348633E-06  0.00000E+00  9.000E+00
#rwgt            1           1   2.4381283108175427E-002           8      140208           0
</event>
<event>
      5   9999  3.19816E-02  1.35145E+02 -1.00000E+00  1.18217E-01
      21    -1     0     0   502   501  0.000000000E+00  0.000000000E+00  9.599223603E+02  9.599223603E+02  0.000000000E+00  0.00000E+00  9.000E+00
      21    -1     0     0   512   502  0.000000000E+00  0.000000000E+00 -6.723279957E+02  6.723279957E+02  0.000000000E+00  0.00000E+00  9.000E+00
      25     1     1     2     0     0 -2.289913440E+02 -1.732612284E+02  8.204913466E+02  8.782297756E+02  1.250000000E+02  0.00000E+00  9.000E+00
      25     1     1     2     0     0  2.682692323E+02  4.394944513E+01 -1.249117311E+02  3.242342907E+02  1.250000000E+02  0.00000E+00  9.000E+00
      21     1     1     2   512   501 -3.927788826E+01  1.293117832E+02 -4.079852509E+02  4.297862896E+02  7.629394531E-06  0.00000E+00  9.000E+00
#rwgt            1           1   3.2366932312440790E-002           8      140297           0
</event>
<event>
      5   9999  3.19816E-02  2.15079E+01 -1.00000E+00  1.63806E-01
      21    -1     0     0   502   511  0.000000000E+00  0.000000000E+00  4.927669437E+02  4.927669437E+02  0.000000000E+00  0.00000E+00  9.000E+00
      21    -1     0     0   501   502  0.000000000E+00  0.000000000E+00 -1.054704777E+02  1.054704777E+02  0.000000000E+00  0.00000E+00  9.000E+00
      25     1     1     2     0     0 -1.492749321E+02 -8.968095555E+01  1.131821996E+02  2.424064550E+02  1.250000000E+02  0.00000E+00  9.000E+00
      25     1     1     2     0     0  1.295432328E+02  9.823956178E+01  2.531645122E+02  3.258062782E+02  1.250000000E+02  0.00000E+00  9.000E+00
      21     1     1     2   501   511  1.973169925E+01 -8.558606235E+00  2.094975424E+01  3.002468815E+01  2.384185791E-07  0.00000E+00  9.000E+00
#rwgt            1           1   2.4654918981293111E-002           8      140409           0
</event>
<event>
      5   9999  3.19816E-02  8.02702E+01 -1.00000E+00  1.28279E-01
      21    -1     0     0   512   501  0.000000000E+00  0.000000000E+00  8.881911339E+02  8.881911339E+02  0.000000000E+00  0.00000E+00  9.000E+00
      21    -1     0     0   501   502  0.000000000E+00  0.000000000E+00 -1.299819342E+02  1.299819342E+02  0.000000000E+00  0.00000E+00  9.000E+00
      25     1     1     2     0     0  8.488969150E+00  1.654312912E+02 -8.229799154E+00  2.076831825E+02  1.250000000E+02  0.00000E+00  9.000E+00
      25     1     1     2     0     0  5.629499886E+01 -1.180356620E+02  4.779193858E+02  5.110122149E+02  1.250000000E+02  0.00000E+00  9.000E+00
      21     1     1     2   512   502 -6.478396801E+01 -4.739562921E+01  2.885196130E+02  2.994776707E+02  3.814697266E-06  0.00000E+00  9.000E+00
#rwgt            1           1   2.7211194689569378E-002           8      140537           0
</event>
<event>
      5   9999  3.19816E-02  3.28375E+02 -1.00000E+00  1.04332E-01
      21    -1     0     0   502   501  0.000000000E+00  0.000000000E+00  1.412226974E+03  1.412226974E+03  0.000000000E+00  0.00000E+00  9.000E+00
       1    -1     0     0   501     0  0.000000000E+00  0.000000000E+00 -6.146769876E+02  6.146769876E+02  0.000000000E+00  0.00000E+00  9.000E+00
      25     1     1     2     0     0  5.565622251E+02  5.370357866E+02  3.378321611E+02  8.531849246E+02  1.250000000E+02  0.00000E+00  9.000E+00
      25     1     1     2     0     0 -2.369369531E+02 -6.123335016E+02  5.110435437E+02  8.413572015E+02  1.250000000E+02  0.00000E+00  9.000E+00
       1     1     1     2   502     0 -3.196252720E+02  7.529771503E+01 -5.132571833E+01  3.323618356E+02  4.156969970E-06  0.00000E+00  9.000E+00
#rwgt            1           1   2.6819292838349450E-002           8      140621           0
</event>
<event>
      5   9999  3.19816E-02  2.33023E+01 -1.00000E+00  1.61073E-01
      21    -1     0     0   502   501  0.000000000E+00  0.000000000E+00  1.784913906E+02  1.784913906E+02  0.000000000E+00  0.00000E+00  9.000E+00
      21    -1     0     0   511   502  0.000000000E+00  0.000000000E+00 -6.916110223E+02  6.916110223E+02  0.000000000E+00  0.00000E+00  9.000E+00
      25     1     1     2     0     0  1.276383823E+02 -1.249170764E+02  7.544668714E+01  2.306795076E+02  1.250000000E+02  0.00000E+00  9.000E+00
      25     1     1     2     0     0 -1.077611628E+02  1.127559105E+02 -3.781946624E+02  4.277646154E+02  1.250000000E+02  0.00000E+00  9.000E+00
      21     1     1     2   511   501 -1.987721947E+01  1.216116582E+01 -2.103716565E+02  2.116582899E+02  0.000000000E+00  0.00000E+00  9.000E+00
#rwgt            1           1   2.6873225678142550E-002           8      140665           0
</event>
<event>
      5   9999  3.19816E-02  3.59188E+01 -1.00000E+00  1.47800E-01
      21    -1     0     0   512   501  0.000000000E+00  0.000000000E+00  2.095999094E+02  2.095999094E+02  0.000000000E+00  0.00000E+00  9.000E+00
      21    -1     0     0   501   502  0.000000000E+00  0.000000000E+00 -1.051492317E+03  1.051492317E+03  0.000000000E+00  0.00000E+00  9.000E+00
      25     1     1     2     0     0 -2.120975809E+02 -2.656958040E+02 -7.254091303E+02  8.108162864E+02  1.250000000E+02  0.00000E+00  9.000E+00
      25     1     1     2     0     0  2.342503134E+02  2.374218960E+02 -1.628309497E+02  3.916392271E+02  1.250000000E+02  0.00000E+00  9.000E+00
      21     1     1     2   512   502 -2.215273258E+01  2.827390802E+01  4.634767203E+01  5.863671323E+01  1.348699152E-06  0.00000E+00  9.000E+00
#rwgt            1           1   3.0964009492886815E-002           8      140789           0
</event>
<event>
      5   9999  3.19816E-02  4.60563E+01 -1.00000E+00  1.41142E-01
      21    -1     0     0   502   511  0.000000000E+00  0.000000000E+00  3.748868739E+01  3.748868739E+01  0.000000000E+00  0.00000E+00  9.000E+00
      21    -1     0     0   501   502  0.000000000E+00  0.000000000E+00 -1.609865407E+03  1.609865407E+03  0.000000000E+00  0.00000E+00  9.000E+00
      25     1     1     2     0     0 -2.561655186E+01 -1.425917662E+02 -4.439001058E+02  4.833848606E+02  1.250000000E+02  0.00000E+00  9.000E+00
      25     1     1     2     0     0  6.049892370E+01  1.125185157E+02 -1.088216871E+03  1.102797123E+03  1.250000000E+02  0.00000E+00  9.000E+00
      21     1     1     2   501   511 -3.488237185E+01  3.007325046E+01 -4.025974303E+01  6.117211103E+01  0.000000000E+00  0.00000E+00  9.000E+00
#rwgt            1           1   2.7207560332535418E-002           8      140960           0
</event>
<event>
      5   9999  3.19816E-02  7.51030E+01 -1.00000E+00  1.29691E-01
      21    -1     0     0   502   501  0.000000000E+00  0.000000000E+00  1.413856133E+03  1.413856133E+03  0.000000000E+00  0.00000E+00  9.000E+00
      21    -1     0     0   512   502  0.000000000E+00  0.000000000E+00 -5.862864736E+02  5.862864736E+02  0.000000000E+00  0.00000E+00  9.000E+00
      25     1     1     2     0     0 -6.727205649E+02 -2.375168142E+02  9.008063756E+02  1.155873835E+03  1.250000000E+02  0.00000E+00  9.000E+00
      25     1     1     2     0     0  7.311103357E+02  1.902823337E+02 -6.085952949E+01  7.681527009E+02  1.250000000E+02  0.00000E+00  9.000E+00
      21     1     1     2   512   501 -5.838977083E+01  4.723448050E+01 -1.237718695E+01  7.611607086E+01  8.920806376E-07  0.00000E+00  9.000E+00
#rwgt            1           1   2.9107514759488948E-002           8      141100           0
</event>
<event>
      5   9999  3.19816E-02  1.86435E+01 -1.00000E+00  1.68926E-01
      21    -1     0     0   511   501  0.000000000E+00  0.000000000E+00  6.497710404E+02  6.497710404E+02  0.000000000E+00  0.00000E+00  9.000E+00
      21    -1     0     0   501   502  0.000000000E+00  0.000000000E+00 -3.235396547E+02  3.235396547E+02  0.000000000E+00  0.00000E+00  9.000E+00
      25     1     1     2     0     0  1.043051224E+02  2.568828968E+02  3.050455586E+02  4.307507099E+02  1.250000000E+02  0.00000E+00  9.000E+00
      25     1     1     2     0     0 -1.179970237E+02 -2.695364267E+02 -1.620273550E+02  3.584006790E+02  1.250000000E+02  0.00000E+00  9.000E+00
      21     1     1     2   511   502  1.369190127E+01  1.265352993E+01  1.832131821E+02  1.841593062E+02  0.000000000E+00  0.00000E+00  9.000E+00
#rwgt            1           1   3.2596567918980933E-002           8      141208           0
</event>
<event>
      5   9999  3.19816E-02  1.71092E+01 -1.00000E+00  1.72165E-01
      21    -1     0     0   502   512  0.000000000E+00  0.000000000E+00  7.374982789E+01  7.374982789E+01  0.000000000E+00  0.00000E+00  9.000E+00
      21    -1     0     0   501   502  0.000000000E+00  0.000000000E+00 -3.910006588E+02  3.910006588E+02  0.000000000E+00  0.00000E+00  9.000E+00
      25     1     1     2     0     0  5.210537624E+01 -2.885422219E+01 -2.539990843E+02  2.892889061E+02  1.250000000E+02  0.00000E+00  9.000E+00
      25     1     1     2     0     0 -6.853844843E+01  2.409202275E+01 -4.743412657E+01  1.521609044E+02  1.250000000E+02  0.00000E+00  9.000E+00
      21     1     1     2   501   512  1.643307220E+01  4.762199442E+00 -1.581762005E+01  2.330067616E+01  2.384185791E-07  0.00000E+00  9.000E+00
#rwgt            1           1   2.6224625984584457E-002           8      141455           0
</event>
<event>
      5   9999  3.19816E-02  3.98417E+01 -1.00000E+00  1.44947E-01
      21    -1     0     0   502   501  0.000000000E+00  0.000000000E+00  3.060590240E+02  3.060590240E+02  0.000000000E+00  0.00000E+00  9.000E+00
      21    -1     0     0   501   511  0.000000000E+00  0.000000000E+00 -2.517590206E+02  2.517590206E+02  0.000000000E+00  0.00000E+00  9.000E+00
      25     1     1     2     0     0  2.069062118E+02  2.778569250E+01  1.533679962E+02  2.876264373E+02  1.250000000E+02  0.00000E+00  9.000E+00
      25     1     1     2     0     0 -1.671559694E+02 -3.048335357E+01 -7.637309572E+01  2.243394809E+02  1.250000000E+02  0.00000E+00  9.000E+00
      21     1     1     2   502   511 -3.975024247E+01  2.697661068E+00 -2.269489702E+01  4.585212647E+01  6.743495762E-07  0.00000E+00  9.000E+00
#rwgt            1           1   2.7732743338152781E-002           8      141589           0
</event>
<event>
      5   9999  3.19816E-02  2.49726E+01 -1.00000E+00  1.58787E-01
       2    -1     0     0   502     0  0.000000000E+00  0.000000000E+00  1.653681730E+02  1.653681730E+02  0.000000000E+00  0.00000E+00  9.000E+00
      21    -1     0     0   501   502  0.000000000E+00  0.000000000E+00 -4.445082121E+02  4.445082121E+02  0.000000000E+00  0.00000E+00  9.000E+00
      25     1     1     2     0     0  5.960926095E+01 -5.013083236E+01 -8.277066702E+01  1.689448066E+02  1.250000000E+02  0.00000E+00  9.000E+00
      25     1     1     2     0     0 -7.629936043E+01  3.155479818E+01 -2.994697868E+02  3.348498931E+02  1.250000000E+02  0.00000E+00  9.000E+00
       2     1     1     2   501     0  1.669009948E+01  1.857603419E+01  1.031004147E+02  1.060816854E+02  1.348699152E-06  0.00000E+00  9.000E+00
#rwgt            1           1   2.6798597946671481E-002           8      141671           0
</event>
<event>
      5   9999  3.19816E-02  3.72502E+01 -1.00000E+00  1.46785E-01
      -2    -1     0     0     0   501  0.000000000E+00  0.000000000E+00  4.531463559E+02  4.531463559E+02  0.000000000E+00  0.00000E+00  9.000E+00
      21    -1     0     0   501   502  0.000000000E+00  0.000000000E+00 -3.051872186E+02  3.051872186E+02  0.000000000E+00  0.00000E+00  9.000E+00
      25     1     1     2     0     0 -1.018263515E+02 -6.330850638E+01  3.354703338E+01  1.764283886E+02  1.250000000E+02  0.00000E+00  9.000E+00
      25     1     1     2     0     0  7.149353583E+01  4.168684297E+01 -2.085284694E+02  2.568233656E+02  1.250000000E+02  0.00000E+00  9.000E+00
      -2     1     1     2     0   502  3.033281570E+01  2.162166342E+01  3.229405733E+02  3.250818203E+02  0.000000000E+00  0.00000E+00  9.000E+00
#rwgt            1           1   2.8751845764394483E-002           8      141795           0
</event>
<event>
      5   9999  3.19816E-02  1.69743E+02 -1.00000E+00  1.14304E-01
      21    -1     0     0   502   511  0.000000000E+00  0.000000000E+00  5.674596182E+02  5.674596182E+02  0.000000000E+00  0.00000E+00  9.000E+00
      21    -1     0     0   501   502  0.000000000E+00  0.000000000E+00 -1.500793406E+03  1.500793406E+03  0.000000000E+00  0.00000E+00  9.000E+00
      25     1     1     2     0     0  3.545927400E+02 -5.384613856E+02 -9.151777781E+02  1.126433327E+03  1.250000000E+02  0.00000E+00  9.000E+00
      25     1     1     2     0     0 -5.242762082E+02  5.429552730E+02 -5.873252942E+01  7.672942597E+02  1.250000000E+02  0.00000E+00  9.000E+00
      21     1     1     2   501   511  1.696834682E+02 -4.493887398E+00  4.057651958E+01  1.745254376E+02  2.611744678E-06  0.00000E+00  9.000E+00
#rwgt            2          11   6.9791101158414824E-003           8      141885           0
</event>
<event>
      5   9999  3.19816E-02  7.13497E+01 -1.00000E+00  1.30802E-01
      21    -1     0     0   512   501  0.000000000E+00  0.000000000E+00  7.343453796E+02  7.343453796E+02  0.000000000E+00  0.00000E+00  9.000E+00
      21    -1     0     0   501   502  0.000000000E+00  0.000000000E+00 -1.929461564E+02  1.929461564E+02  0.000000000E+00  0.00000E+00  9.000E+00
      25     1     1     2     0     0  1.378533703E+02  1.409296013E+01 -3.367241971E+01  1.896338447E+02  1.250000000E+02  0.00000E+00  9.000E+00
      25     1     1     2     0     0 -1.739948480E+02  4.742589513E+01  7.405642559E+01  2.315875144E+02  1.250000000E+02  0.00000E+00  9.000E+00
      21     1     1     2   512   502  3.614147775E+01 -6.151885526E+01  5.010152173E+02  5.060701769E+02  5.394796609E-06  0.00000E+00  9.000E+00
#rwgt            1           1   2.8083311361340482E-002           8      141905           0
</event>
<event>
      5   9999  3.19816E-02  4.49899E+01 -1.00000E+00  1.41743E-01
      21    -1     0     0   502   501  0.000000000E+00  0.000000000E+00  1.586114614E+03  1.586114614E+03  0.000000000E+00  0.00000E+00  9.000E+00
      21    -1     0     0   501   511  0.000000000E+00  0.000000000E+00 -8.326795358E+02  8.326795358E+02  0.000000000E+00  0.00000E+00  9.000E+00
      25     1     1     2     0     0  4.353305171E+02  1.011748700E+03  3.340035575E+02  1.157726854E+03  1.250000000E+02  0.00000E+00  9.000E+00
      25     1     1     2     0     0 -3.980858912E+02 -1.036986129E+03  4.518065565E+02  1.205639570E+03  1.250000000E+02  0.00000E+00  9.000E+00
      21     1     1     2   502   511 -3.724462588E+01  2.523742875E+01 -3.237503533E+01  5.542772663E+01  1.348699152E-06  0.00000E+00  9.000E+00
#rwgt            1           1   2.8765848688042817E-002           8      142024           0
</event>
<event>
      5   9999  3.19816E-02  4.52678E+01 -1.00000E+00  1.41585E-01
      21    -1     0     0   502   501  0.000000000E+00  0.000000000E+00  2.994692414E+02  2.994692414E+02  0.000000000E+00  0.00000E+00  9.000E+00
      21    -1     0     0   512   502  0.000000000E+00  0.000000000E+00 -4.321470971E+02  4.321470971E+02  0.000000000E+00  0.00000E+00  9.000E+00
      25     1     1     2     0     0  1.393330387E+02  2.033596192E+02 -2.330811077E+02  3.615530849E+02  1.250000000E+02  0.00000E+00  9.000E+00
      25     1     1     2     0     0 -1.128237083E+02 -2.400532798E+02  1.247574442E+02  3.186599852E+02  1.250000000E+02  0.00000E+00  9.000E+00
      21     1     1     2   512   501 -2.650933040E+01  3.669366058E+01 -2.435419217E+01  5.140326839E+01  6.743495762E-07  0.00000E+00  9.000E+00
#rwgt            1           1   2.4506680853826887E-002           8      142247           0
</event>
<event>
      5   9999  3.19816E-02  6.98518E+01 -1.00000E+00  1.31267E-01
      21    -1     0     0   502   501  0.000000000E+00  0.000000000E+00  2.973047481E+02  2.973047481E+02  0.000000000E+00  0.00000E+00  9.000E+00
      21    -1     0     0   511   502  0.000000000E+00  0.000000000E+00 -1.675829256E+02  1.675829256E+02  0.000000000E+00  0.00000E+00  9.000E+00
      25     1     1     2     0     0  8.025674357E+01 -3.019237404E+01  1.844929470E+02  2.387789183E+02  1.250000000E+02  0.00000E+00  9.000E+00
      25     1     1     2     0     0 -1.513783704E+01  5.546677194E+01 -7.036455338E+01  1.545376565E+02  1.250000000E+02  0.00000E+00  9.000E+00
      21     1     1     2   511   501 -6.511890653E+01 -2.527439790E+01  1.559342887E+01  7.157109892E+01  1.572478528E-06  0.00000E+00  9.000E+00
#rwgt            1           1   2.7587061853542986E-002           8      142375           0
</event>
<event>
      5   9999  3.19816E-02  4.44131E+01 -1.00000E+00  1.42077E-01
      21    -1     0     0   502   512  0.000000000E+00  0.000000000E+00  8.725109592E+01  8.725109592E+01  0.000000000E+00  0.00000E+00  9.000E+00
      21    -1     0     0   501   502  0.000000000E+00  0.000000000E+00 -1.018093437E+03  1.018093437E+03  0.000000000E+00  0.00000E+00  9.000E+00
      25     1     1     2     0     0 -3.639644757E+01  1.054601519E+02 -8.557285995E+02  8.719764796E+02  1.250000000E+02  0.00000E+00  9.000E+00
      25     1     1     2     0     0 -5.674011368E+00 -1.196939334E+02 -7.562427302E+01  1.889520118E+02  1.250000000E+02  0.00000E+00  9.000E+00
      21     1     1     2   501   512  4.207045894E+01  1.423378159E+01  5.105319192E-01  4.441604098E+01  1.499641047E-06  0.00000E+00  9.000E+00
#rwgt            1           1   2.7417551384554092E-002           8      142445           0
</event>
<event>
      5   9999  3.19816E-02  1.23235E+02 -1.00000E+00  1.19880E-01
      21    -1     0     0   502   501  0.000000000E+00  0.000000000E+00  9.706538767E+01  9.706538767E+01  0.000000000E+00  0.00000E+00  9.000E+00
      -2    -1     0     0     0   502  0.000000000E+00  0.000000000E+00 -1.334961416E+03  1.334961416E+03  0.000000000E+00  0.00000E+00  9.000E+00
      25     1     1     2     0     0  3.087558528E+01  7.397312072E+01  1.200618714E+00  1.484983698E+02  1.250000000E+02  0.00000E+00  9.000E+00
      25     1     1     2     0     0 -1.453332028E+02 -2.829724938E+01 -5.413966377E+02  5.750285153E+02  1.250000000E+02  0.00000E+00  9.000E+00
      -2     1     1     2     0   501  1.144576175E+02 -4.567587134E+01 -6.977000095E+02  7.084999187E+02  1.078959322E-05  0.00000E+00  9.000E+00
#rwgt            1           1   2.8657991923129778E-002           8      142527           0
</event>
<event>
      5   9999  3.19816E-02  4.70981E+02 -1.00000E+00  9.95953E-02
      21    -1     0     0   502   501  0.000000000E+00  0.000000000E+00  1.538236885E+03  1.538236885E+03  0.000000000E+00  0.00000E+00  9.000E+00
      21    -1     0     0   501   511  0.000000000E+00  0.000000000E+00 -9.462375741E+02  9.462375741E+02  0.000000000E+00  0.00000E+00  9.000E+00
      25     1     1     2     0     0  7.016492987E+02 -3.650027603E+02  6.205950405E+02  1.013065624E+03  1.250000000E+02  0.00000E+00  9.000E+00
      25     1     1     2     0     0 -2.716230206E+02  1.729081213E+02  5.961736900E+02  6.890024327E+02  1.250000000E+02  0.00000E+00  9.000E+00
      21     1     1     2   502   511 -4.300262781E+02  1.920946390E+02 -6.247694200E+02  7.824064023E+02  1.078959322E-05  0.00000E+00  9.000E+00
#rwgt            2          11   3.4443214785774413E-003           8      142748           0
</event>
<event>
      5   9999  3.19816E-02  1.70578E+02 -1.00000E+00  1.14223E-01
      21    -1     0     0   502   512  0.000000000E+00  0.000000000E+00  5.517887391E+02  5.517887391E+02  0.000000000E+00  0.00000E+00  9.000E+00
      21    -1     0     0   501   502  0.000000000E+00  0.000000000E+00 -2.904931514E+02  2.904931514E+02  0.000000000E+00  0.00000E+00  9.000E+00
      25     1     1     2     0     0 -6.326380891E+01 -1.520636902E+02  2.379837327E+02  3.152569308E+02  1.250000000E+02  0.00000E+00  9.000E+00
      25     1     1     2     0     0 -7.655580324E+01  2.497742160E+02 -1.107580969E+02  3.100650029E+02  1.250000000E+02  0.00000E+00  9.000E+00
      21     1     1     2   501   512  1.398196121E+02 -9.771052584E+01  1.340699519E+02  2.169599567E+02  3.814697266E-06  0.00000E+00  9.000E+00
#rwgt            2          11   3.4160640774104135E-003           8      142843           0
</event>
<event>
      5   9999  3.19816E-02  5.24394E+01 -1.00000E+00  1.37905E-01
      21    -1     0     0   511   501  0.000000000E+00  0.000000000E+00  3.738526461E+02  3.738526461E+02  0.000000000E+00  0.00000E+00  9.000E+00
      21    -1     0     0   501   502  0.000000000E+00  0.000000000E+00 -2.983769939E+02  2.983769939E+02  0.000000000E+00  0.00000E+00  9.000E+00
      25     1     1     2     0     0 -4.471524698E+01  2.343148976E+02 -3.922579414E+01  2.721517729E+02  1.250000000E+02  0.00000E+00  9.000E+00
      25     1     1     2     0     0 -9.845631989E-01 -2.085969358E+02 -3.106995282E+01  2.451611571E+02  1.250000000E+02  0.00000E+00  9.000E+00
      21     1     1     2   511   502  4.569981018E+01 -2.571796186E+01  1.457713991E+02  1.549167099E+02  1.907348633E-06  0.00000E+00  9.000E+00
#rwgt            1           1   2.5477547636934043E-002           8      142878           0
</event>
<event>
      5   9999  3.19816E-02  1.34151E+01 -1.00000E+00  1.82078E-01
      21    -1     0     0   502   512  0.000000000E+00  0.000000000E+00  1.618913811E+02  1.618913811E+02  0.000000000E+00  0.00000E+00  9.000E+00
      21    -1     0     0   501   502  0.000000000E+00  0.000000000E+00 -3.479063119E+02  3.479063119E+02  0.000000000E+00  0.00000E+00  9.000E+00
      25     1     1     2     0     0  5.032058220E+01  1.844870037E+02 -7.924462399E+01  2.418105167E+02  1.250000000E+02  0.00000E+00  9.000E+00
      25     1     1     2     0     0 -5.760212398E+01 -1.732200207E+02 -1.177735386E+02  2.506367624E+02  1.250000000E+02  0.00000E+00  9.000E+00
      21     1     1     2   501   512  7.281541781E+00 -1.126698299E+01  1.100323169E+01  1.735041395E+01  1.192092896E-07  0.00000E+00  9.000E+00
#rwgt            1           1   3.1608591521124080E-002           8      142990           0
</event>
<event>
      5   9999  3.19816E-02  2.75346E+02 -1.00000E+00  1.06816E-01
      21    -1     0     0   502   501  0.000000000E+00  0.000000000E+00  7.269591394E+02  7.269591394E+02  0.000000000E+00  0.00000E+00  9.000E+00
       1    -1     0     0   501     0  0.000000000E+00  0.000000000E+00 -1.590116946E+03  1.590116946E+03  0.000000000E+00  0.00000E+00  9.000E+00
      25     1     1     2     0     0 -1.606473405E+02 -3.524048343E+02  4.705441289E+02  6.221201753E+02  1.250000000E+02  0.00000E+00  9.000E+00
      25     1     1     2     0     0  4.326444001E+02  3.952183857E+02 -3.973312033E+02  7.189407726E+02  1.250000000E+02  0.00000E+00  9.000E+00
       1     1     1     2   502     0 -2.719970596E+02 -4.281355145E+01 -9.363707325E+02  9.760151379E+02  1.525878906E-05  0.00000E+00  9.000E+00
#rwgt            1           1   2.8575555540715541E-002           8      143134           0
</event>
<event>
      5   9999  3.19816E-02  6.53468E+01 -1.00000E+00  1.32752E-01
       2    -1     0     0   502     0  0.000000000E+00  0.000000000E+00  1.581727492E+03  1.581727492E+03  0.000000000E+00  0.00000E+00  9.000E+00
      21    -1     0     0   501   502  0.000000000E+00  0.000000000E+00 -1.206525039E+02  1.206525039E+02  0.000000000E+00  0.00000E+00  9.000E+00
      25     1     1     2     0     0 -6.509842769E+00 -1.265410511E+02 -1.196129329E+00  1.779928268E+02  1.250000000E+02  0.00000E+00  9.000E+00
      25     1     1     2     0     0 -5.716770542E+01  1.412165503E+02  2.919069966E+02  3.522001637E+02  1.250000000E+02  0.00000E+00  9.000E+00
       2     1     1     2   501     0  6.367754819E+01 -1.467549918E+01  1.170364120E+03  1.172187005E+03  1.525878906E-05  0.00000E+00  9.000E+00
#rwgt            1           1   2.3841169604694099E-002           8      143171           0
</event>
<event>
      5   9999  3.19816E-02  2.75249E+01 -1.00000E+00  1.55683E-01
      21    -1     0     0   502   511  0.000000000E+00  0.000000000E+00  3.297871005E+02  3.297871005E+02  0.000000000E+00  0.00000E+00  9.000E+00
      21    -1     0     0   501   502  0.000000000E+00  0.000000000E+00 -1.957360084E+02  1.957360084E+02  0.000000000E+00  0.00000E+00  9.000E+00
      25     1     1     2     0     0  4.554178224E+00 -1.924141916E+02  1.151049471E+02  2.567452249E+02  1.250000000E+02  0.00000E+00  9.000E+00
      25     1     1     2     0     0 -2.810098505E+01  1.781605735E+02 -2.080382789E+01  2.204283434E+02  1.250000000E+02  0.00000E+00  9.000E+00
      21     1     1     2   501   511  2.354680683E+01  1.425361812E+01  3.974997289E+01  4.834954070E+01  4.768371582E-07  0.00000E+00  9.000E+00
#rwgt            1           1   3.0467005883441933E-002           8      143264           0
</event>
<event>
      5   9999  3.19816E-02  4.17108E+00 -1.00000E+00  2.59257E-01
      21    -1     0     0   512   501  0.000000000E+00  0.000000000E+00  1.594616007E+02  1.594616007E+02  0.000000000E+00  0.00000E+00  9.000E+00
      21    -1     0     0   501   502  0.000000000E+00  0.000000000E+00 -2.093327697E+02  2.093327697E+02  0.000000000E+00  0.00000E+00  9.000E+00
      25     1     1     2     0     0 -5.075027448E+01 -1.387341304E+01  9.559796980E+01  1.659277969E+02  1.250000000E+02  0.00000E+00  9.000E+00
      25     1     1     2     0     0  4.750958108E+01  1.649939964E+01 -1.459886998E+02  1.986632602E+02  1.250000000E+02  0.00000E+00  9.000E+00
      21     1     1     2   512   502  3.240693400E+00 -2.625986597E+00  5.195610414E-01  4.203313336E+00  4.344397705E-08  0.00000E+00  9.000E+00
#rwgt            1           1   2.5625022976195781E-002           8      143364           0
</event>
<event>
      5   9999  3.19816E-02  1.26702E+01 -1.00000E+00  1.84580E-01
      21    -1     0     0   502   501  0.000000000E+00  0.000000000E+00  2.741702410E+01  2.741702410E+01  0.000000000E+00  0.00000E+00  9.000E+00
      21    -1     0     0   501   511  0.000000000E+00  0.000000000E+00 -4.339448310E+03  4.339448310E+03  0.000000000E+00  0.00000E+00  9.000E+00
      25     1     1     2     0     0 -4.465182890E+01 -2.653723246E+02 -3.102703027E+03  3.116858567E+03  1.250000000E+02  0.00000E+00  9.000E+00
      25     1     1     2     0     0  5.440377087E+01  2.572832210E+02 -1.033786776E+03  1.074008624E+03  1.250000000E+02  0.00000E+00  9.000E+00
      21     1     1     2   502   511 -9.751941972E+00  8.089103622E+00 -1.755414832E+02  1.759981429E+02  2.697398305E-06  0.00000E+00  9.000E+00
#rwgt            1           1   5.1372921281858637E-003           8      143617           0
</event>
<event>
      5   9999  3.19816E-02  1.82209E+01 -1.00000E+00  1.69778E-01
      21    -1     0     0   512   501  0.000000000E+00  0.000000000E+00  1.720035513E+03  1.720035513E+03  0.000000000E+00  0.00000E+00  9.000E+00
      21    -1     0     0   501   502  0.000000000E+00  0.000000000E+00 -5.159343125E+02  5.159343125E+02  0.000000000E+00  0.00000E+00  9.000E+00
      25     1     1     2     0     0 -8.689967785E+02 -1.271482568E+02  4.777019831E+02  1.007544671E+03  1.250000000E+02  0.00000E+00  9.000E+00
      25     1     1     2     0     0  8.525396675E+02  1.349689420E+02  5.081097494E+02  1.009376549E+03  1.250000000E+02  0.00000E+00  9.000E+00
      21     1     1     2   512   502  1.645711105E+01 -7.820685260E+00  2.182894680E+02  2.190486053E+02  0.000000000E+00  0.00000E+00  9.000E+00
#rwgt            1           1   3.0792751709956052E-002           8      143809           0
</event>
<event>
      5   9999  3.19816E-02  5.70645E+01 -1.00000E+00  1.35878E-01
      21    -1     0     0   511   501  0.000000000E+00  0.000000000E+00  7.601438928E+02  7.601438928E+02  0.000000000E+00  0.00000E+00  9.000E+00
      21    -1     0     0   501   502  0.000000000E+00  0.000000000E+00 -1.616123972E+02  1.616123972E+02  0.000000000E+00  0.00000E+00  9.000E+00
      25     1     1     2     0     0  1.672907859E+02  2.150860656E+02  1.134453129E+02  3.205355857E+02  1.250000000E+02  0.00000E+00  9.000E+00
      25     1     1     2     0     0 -2.069027515E+02 -1.740098942E+02  4.155281566E+02  5.112502721E+02  1.250000000E+02  0.00000E+00  9.000E+00
      21     1     1     2   511   502  3.961196558E+01 -4.107617146E+01  6.955802606E+01  8.997043219E+01  0.000000000E+00  0.00000E+00  9.000E+00
#rwgt            1           1   2.7966145067639059E-002           8      144046           0
</event>
<event>
      5   9999  3.19816E-02  1.54938E+02 -1.00000E+00  1.15839E-01
      21    -1     0     0   512   501  0.000000000E+00  0.000000000E+00  3.925142960E+02  3.925142960E+02  0.000000000E+00  0.00000E+00  9.000E+00
      21    -1     0     0   501   502  0.000000000E+00  0.000000000E+00 -8.330880375E+02  8.330880375E+02  0.000000000E+00  0.00000E+00  9.000E+00
      25     1     1     2     0     0  4.220636406E+01  3.226240088E+02 -6.767114076E+02  7.612036242E+02  1.250000000E+02  0.00000E+00  9.000E+00
      25     1     1     2     0     0 -4.576380953E+01 -1.677269955E+02  2.225963848E+02  3.088702346E+02  1.250000000E+02  0.00000E+00  9.000E+00
      21     1     1     2   512   502  3.557445473E+00 -1.548970133E+02  1.354128137E+01  1.555284747E+02  3.057898364E-06  0.00000E+00  9.000E+00
#rwgt            1           1   2.6846760792216158E-002           8      144089           0
</event>
<event>
      5   9999  3.19816E-02  7.33870E+01 -1.00000E+00  1.30190E-01
      21    -1     0     0   502   501  0.000000000E+00  0.000000000E+00  3.299913130E+02  3.299913130E+02  0.000000000E+00  0.00000E+00  9.000E+00
      21    -1     0     0   501   511  0.000000000E+00  0.000000000E+00 -5.265221701E+02  5.265221701E+02  0.000000000E+00  0.00000E+00  9.000E+00
      25     1     1     2     0     0 -2.864926422E+02 -8.033153274E+01  1.232018606E+02  3.454488206E+02  1.250000000E+02  0.00000E+00  9.000E+00
      25     1     1     2     0     0  2.494508944E+02  1.436842143E+02 -3.020438440E+02  4.355759243E+02  1.250000000E+02  0.00000E+00  9.000E+00
      21     1     1     2   502   511  3.704174781E+01 -6.335268152E+01 -1.768887362E+01  7.548873815E+01  1.039242493E-06  0.00000E+00  9.000E+00
#rwgt            1           1   2.7623160729899066E-002           8      144172           0
</event>
<event>
      5   9999  3.19816E-02  9.27254E+01 -1.00000E+00  1.25321E-01
      21    -1     0     0   502   501  0.000000000E+00  0.000000000E+00  2.137504928E+03  2.137504928E+03  0.000000000E+00  0.00000E+00  9.000E+00
      21    -1     0     0   501   512  0.000000000E+00  0.000000000E+00 -2.946812653E+02  2.946812653E+02  0.000000000E+00  0.00000E+00  9.000E+00
      25     1     1     2     0     0  6.086505244E+02  3.686794748E+02  5.542675611E+02  9.106138288E+02  1.250000000E+02  0.00000E+00  9.000E+00
      25     1     1     2     0     0 -5.227174386E+02 -4.035149705E+02  1.253762277E+03  1.422533901E+03  1.250000000E+02  0.00000E+00  9.000E+00
      21     1     1     2   502   512 -8.593308578E+01  3.483549566E+01  3.479382420E+01  9.903846320E+01  6.743495762E-07  0.00000E+00  9.000E+00
#rwgt            1           1   1.8667548998607050E-002           8      144288           0
</event>
<event>
      5   9999  4.30405E-02  1.17341E+02 -1.00000E+00  1.20783E-01
      21    -1     0     0   502   501  0.000000000E+00  0.000000000E+00  2.851696247E+02  2.851696247E+02  0.000000000E+00  0.00000E+00  9.000E+00
      21    -1     0     0   511   502  0.000000000E+00  0.000000000E+00 -1.619221026E+03  1.619221026E+03  0.000000000E+00  0.00000E+00  9.000E+00
      25     1     1     2     0     0  1.466918400E+02  1.039321031E+01 -3.028645207E+02  3.591356744E+02  1.250000000E+02  0.00000E+00  9.000E+00
      25     1     1     2     0     0 -2.617509065E+02  1.263529847E+01  1.712656594E+02  3.370906612E+02  1.250000000E+02  0.00000E+00  9.000E+00
      21     1     1     2   511   501  1.150590665E+02 -2.302850878E+01 -1.202452540E+03  1.208164315E+03  2.157918644E-05  0.00000E+00  9.000E+00
#rwgt            1           1   4.1697903404864053E-002           8      144411           0
</event>
<event>
      5   9999  3.19816E-02  7.84535E+00 -1.00000E+00  2.08785E-01
      21    -1     0     0   502   512  0.000000000E+00  0.000000000E+00  7.232704350E+02  7.232704350E+02  0.000000000E+00  0.00000E+00  9.000E+00
      21    -1     0     0   501   502  0.000000000E+00  0.000000000E+00 -1.269379713E+02  1.269379713E+02  0.000000000E+00  0.00000E+00  9.000E+00
      25     1     1     2     0     0 -2.011514913E+02  1.775518946E+02  3.243451393E+02  4.391029118E+02  1.250000000E+02  0.00000E+00  9.000E+00
      25     1     1     2     0     0  1.998200332E+02 -1.852834320E+02  2.603501062E+02  3.970707414E+02  1.250000000E+02  0.00000E+00  9.000E+00
      21     1     1     2   501   512  1.331458070E+00  7.731537366E+00  1.163721813E+01  1.403475317E+01  0.000000000E+00  0.00000E+00  9.000E+00
#rwgt            1           1   2.9618573001886656E-002           8      144473           0
</event>
<event>
      5   9999  3.19816E-02  6.85906E+01 -1.00000E+00  1.31670E-01
      -3    -1     0     0     0   501  0.000000000E+00  0.000000000E+00  1.480223860E+02  1.480223860E+02  0.000000000E+00  0.00000E+00  9.000E+00
      21    -1     0     0   501   502  0.000000000E+00  0.000000000E+00 -1.314931628E+03  1.314931628E+03  0.000000000E+00  0.00000E+00  9.000E+00
      25     1     1     2     0     0  1.536764306E+02 -1.358326893E+02 -4.228407328E+02  4.862985196E+02  1.250000000E+02  0.00000E+00  9.000E+00
      25     1     1     2     0     0 -9.370208567E+01  1.025498404E+02 -8.389876010E+02  8.595474073E+02  1.250000000E+02  0.00000E+00  9.000E+00
      -3     1     1     2     0   502 -5.997434493E+01  3.328284890E+01  9.491909184E+01  1.171080872E+02  3.015782986E-06  0.00000E+00  9.000E+00
#rwgt            1           1   2.7378172566430169E-002           8      144671           0
</event>
<event>
      5   9999  3.19816E-02  1.56963E+01 -1.00000E+00  1.75547E-01
      21    -1     0     0   502   501  0.000000000E+00  0.000000000E+00  3.191921119E+03  3.191921119E+03  0.000000000E+00  0.00000E+00  9.000E+00
      21    -1     0     0   501   511  0.000000000E+00  0.000000000E+00 -8.664951877E+01  8.664951877E+01  0.000000000E+00  0.00000E+00  9.000E+00
      25     1     1     2     0     0  2.219231532E+02 -1.115110245E+02  2.927423949E+03  2.940598676E+03  1.250000000E+02  0.00000E+00  9.000E+00
      25     1     1     2     0     0 -2.081663612E+02  1.190691727E+02  1.747200127E+02  3.219670552E+02  1.250000000E+02  0.00000E+00  9.000E+00
      21     1     1     2   502   511 -1.375679207E+01 -7.558148115E+00  3.127638952E+00  1.600490726E+01  4.172325134E-07  0.00000E+00  9.000E+00
#rwgt            1           1   3.8022754876497609E-002           8      144718           0
</event>
<event>
      5   9999  3.19816E-02  4.19980E+01 -1.00000E+00  1.43539E-01
       2    -1     0     0   502     0  0.000000000E+00  0.000000000E+00  2.316070802E+03  2.316070802E+03  0.000000000E+00  0.00000E+00  9.000E+00
      21    -1     0     0   501   502  0.000000000E+00  0.000000000E+00 -5.322089351E+01  5.322089351E+01  0.000000000E+00  0.00000E+00  9.000E+00
      25     1     1     2     0     0 -1.382028090E+02 -6.428908044E+01  1.798218582E+02  2.668220436E+02  1.250000000E+02  0.00000E+00  9.000E+00
      25     1     1     2     0     0  1.782714495E+02  7.687208803E+01  1.471969125E+03  1.489969172E+03  1.250000000E+02  0.00000E+00  9.000E+00
       2     1     1     2   501     0 -4.006864051E+01 -1.258300759E+01  6.110589246E+02  6.125004794E+02  1.321449896E-05  0.00000E+00  9.000E+00
#rwgt            1           1   3.1822575753348466E-002           8      144935           0
</event>
<event>
      5   9999  3.19816E-02  1.58963E+02 -1.00000E+00  1.15403E-01
      21    -1     0     0   502   501  0.000000000E+00  0.000000000E+00  1.203292614E+03  1.203292614E+03  0.000000000E+00  0.00000E+00  9.000E+00
      21    -1     0     0   501   511  0.000000000E+00  0.000000000E+00 -1.126110947E+03  1.126110947E+03  0.000000000E+00  0.00000E+00  9.000E+00
      25     1     1     2     0     0  5.238868360E+02  1.018489727E+02 -4.354590978E+02  7.000573234E+02  1.250000000E+02  0.00000E+00  9.000E+00
      25     1     1     2     0     0 -3.691130590E+02 -6.559526682E+01  1.022007270E+03  1.095751363E+03  1.250000000E+02  0.00000E+00  9.000E+00
      21     1     1     2   502   511 -1.547737770E+02 -3.625370592E+01 -5.093665052E+02  5.335948743E+02  0.000000000E+00  0.00000E+00  9.000E+00
#rwgt            2          11   3.2422372832201056E-003           8      145042           0
</event>
<event>
      5   9999  3.19816E-02  8.51857E+02 -1.00000E+00  9.26945E-02
      21    -1     0     0   502   501  0.000000000E+00  0.000000000E+00  6.610027241E+02  6.610027241E+02  0.000000000E+00  0.00000E+00  9.000E+00
       1    -1     0     0   501     0  0.000000000E+00  0.000000000E+00 -1.830176610E+03  1.830176610E+03  0.000000000E+00  0.00000E+00  9.000E+00
      25     1     1     2     0     0  8.843866913E+01 -5.160510044E+01 -2.380722592E+02  2.877288397E+02  1.250000000E+02  0.00000E+00  9.000E+00
      25     1     1     2     0     0 -3.347049774E+02  8.670882566E+02  4.924011583E+00  9.378265898E+02  1.250000000E+02  0.00000E+00  9.000E+00
       1     1     1     2   502     0  2.462663083E+02 -8.154831561E+02 -9.360256388E+02  1.265623905E+03  1.525878906E-05  0.00000E+00  9.000E+00
#rwgt            2          12   4.3104667142165697E-004           8      145107           0
</event>
<event>
      5   9999  3.19816E-02  2.05703E+02 -1.00000E+00  1.11205E-01
      21    -1     0     0   502   501  0.000000000E+00  0.000000000E+00  3.654214360E+02  3.654214360E+02  0.000000000E+00  0.00000E+00  9.000E+00
      21    -1     0     0   511   502  0.000000000E+00  0.000000000E+00 -1.127250533E+03  1.127250533E+03  0.000000000E+00  0.00000E+00  9.000E+00
      25     1     1     2     0     0 -1.569116947E+02  2.728776462E+02  9.531805305E+01  3.518437452E+02  1.250000000E+02  0.00000E+00  9.000E+00
      25     1     1     2     0     0  3.146053245E+02 -4.049621937E+02 -7.233117687E+02  8.954193449E+02  1.250000000E+02  0.00000E+00  9.000E+00
      21     1     1     2   511   501 -1.576936298E+02  1.320845474E+02 -1.338353811E+02  2.454088788E+02  5.046370146E-06  0.00000E+00  9.000E+00
#rwgt            2          11   5.1287550205329690E-003           8      145141           0
</event>
<event>
      5   9999  3.19816E-02  7.88055E+01 -1.00000E+00  1.28667E-01
      21    -1     0     0   502   512  0.000000000E+00  0.000000000E+00  2.957167250E+02  2.957167250E+02  0.000000000E+00  0.00000E+00  9.000E+00
      21    -1     0     0   501   502  0.000000000E+00  0.000000000E+00 -1.741671432E+02  1.741671432E+02  0.000000000E+00  0.00000E+00  9.000E+00
      25     1     1     2     0     0  2.850346639E+01 -1.349257242E+02  9.628684267E+01  2.095556125E+02  1.250000000E+02  0.00000E+00  9.000E+00
      25     1     1     2     0     0  2.528702411E+01  7.733322367E+01 -4.390344534E+01  1.554746718E+02  1.250000000E+02  0.00000E+00  9.000E+00
      21     1     1     2   501   512 -5.379049050E+01  5.759250056E+01  6.916618442E+01  1.048535839E+02  1.651812370E-06  0.00000E+00  9.000E+00
#rwgt            2          11   2.0350946648260921E-003           8      145311           0
</event>
<event>
      5   9999  3.19816E-02  3.85737E+01 -1.00000E+00  1.45825E-01
      21    -1     0     0   502   501  0.000000000E+00  0.000000000E+00  1.461930341E+03  1.461930341E+03  0.000000000E+00  0.00000E+00  9.000E+00
      21    -1     0     0   511   502  0.000000000E+00  0.000000000E+00 -1.032942180E+03  1.032942180E+03  0.000000000E+00  0.00000E+00  9.000E+00
      25     1     1     2     0     0  1.847381815E+02  3.745351841E+02  9.672187501E+02  1.060915600E+03  1.250000000E+02  0.00000E+00  9.000E+00
      25     1     1     2     0     0 -2.033013480E+02 -4.083484759E+02  3.224371444E+02  5.724252161E+02  1.250000000E+02  0.00000E+00  9.000E+00
      21     1     1     2   511   501  1.856316650E+01  3.381329183E+01 -8.606677342E+02  8.615317049E+02  1.525878906E-05  0.00000E+00  9.000E+00
#rwgt            1           1   3.2353135318995467E-002           8      145331           0
</event>
<event>
      5   9999  3.19816E-02  6.98113E+01 -1.00000E+00  1.31280E-01
      21    -1     0     0   502   501  0.000000000E+00  0.000000000E+00  1.490968003E+02  1.490968003E+02  0.000000000E+00  0.00000E+00  9.000E+00
      21    -1     0     0   512   502  0.000000000E+00  0.000000000E+00 -1.468793992E+03  1.468793992E+03  0.000000000E+00  0.00000E+00  9.000E+00
      25     1     1     2     0     0  4.276362816E+01 -2.568937992E+02 -8.718861298E+02  9.184952778E+02  1.250000000E+02  0.00000E+00  9.000E+00
      25     1     1     2     0     0 -1.116718218E+02  2.680868120E+02 -8.152444654E+01  3.265154973E+02  1.250000000E+02  0.00000E+00  9.000E+00
      21     1     1     2   512   501  6.890819363E+01 -1.119301280E+01 -3.662866156E+02  3.728800175E+02  7.629394531E-06  0.00000E+00  9.000E+00
#rwgt            1           1   2.8798320280967328E-002           8      145461           0
</event>
<event>
      5   9999  3.19816E-02  4.35255E+02 -1.00000E+00  1.00594E-01
      21    -1     0     0   502   501  0.000000000E+00  0.000000000E+00  7.114842762E+02  7.114842762E+02  0.000000000E+00  0.00000E+00  9.000E+00
      -5    -1     0     0     0   502  0.000000000E+00  0.000000000E+00 -1.054351417E+03  1.054351417E+03  0.000000000E+00  0.00000E+00  9.000E+00
      25     1     1     2     0     0 -3.581041087E+02 -2.530369171E+02 -2.410283336E+02  5.157382007E+02  1.250000000E+02  0.00000E+00  9.000E+00
      25     1     1     2     0     0  1.431590166E+02  6.315149571E+02  2.345946838E+02  6.999752215E+02  1.250000000E+02  0.00000E+00  9.000E+00
      -5     1     1     2     0   501  2.149450921E+02 -3.784780400E+02 -3.364334912E+02  5.501222712E+02  9.344061824E-06  0.00000E+00  9.000E+00
#rwgt            2           6   1.3040637456245820E-005           8      145548           0
</event>
<event>
      5   9999  3.19816E-02  1.53521E+02 -1.00000E+00  1.15996E-01
      21    -1     0     0   511   501  0.000000000E+00  0.000000000E+00  5.061099912E+02  5.061099912E+02  0.000000000E+00  0.00000E+00  9.000E+00
      21    -1     0     0   501   502  0.000000000E+00  0.000000000E+00 -2.668495004E+02  2.668495004E+02  0.000000000E+00  0.00000E+00  9.000E+00
      25     1     1     2     0     0  2.028341233E+02  1.837870201E+02 -7.069030892E+00  3.009889060E+02  1.250000000E+02  0.00000E+00  9.000E+00
      25     1     1     2     0     0 -5.039523700E+01 -2.019831548E+02  1.904408906E+02  3.085929480E+02  1.250000000E+02  0.00000E+00  9.000E+00
      21     1     1     2   511   502 -1.524388863E+02  1.819613473E+01  5.588863116E+01  1.633776376E+02  1.907348633E-06  0.00000E+00  9.000E+00
#rwgt            1           1   2.6628752468258670E-002           8      145567           0
</event>
<event>
      5   9999  3.19816E-02  9.24104E+01 -1.00000E+00  1.25390E-01
      21    -1     0     0   502   501  0.000000000E+00  0.000000000E+00  6.953464118E+02  6.953464118E+02  0.000000000E+00  0.00000E+00  9.000E+00
      21    -1     0     0   512   502  0.000000000E+00  0.000000000E+00 -7.805020194E+02  7.805020194E+02  0.000000000E+00  0.00000E+00  9.000E+00
      25     1     1     2     0     0  1.996769158E+02  6.389583687E+02  1.239402096E+02  6.921884448E+02  1.250000000E+02  0.00000E+00  9.000E+00
      25     1     1     2     0     0 -2.767259414E+02 -5.879375258E+02 -1.972539785E+02  6.904939630E+02  1.250000000E+02  0.00000E+00  9.000E+00
      21     1     1     2   512   501  7.704902560E+01 -5.102084285E+01 -1.184183867E+01  9.316602328E+01  1.430511475E-06  0.00000E+00  9.000E+00
#rwgt            1           1   3.3531192531432601E-002           8      145631           0
</event>
<event>
      5   9999  3.19816E-02  8.39638E+01 -1.00000E+00  1.27341E-01
      21    -1     0     0   502   501  0.000000000E+00  0.000000000E+00  8.545060520E+02  8.545060520E+02  0.000000000E+00  0.00000E+00  9.000E+00
      -1    -1     0     0     0   502  0.000000000E+00  0.000000000E+00 -5.948949340E+01  5.948949340E+01  0.000000000E+00  0.00000E+00  9.000E+00
      25     1     1     2     0     0  6.807820559E+01  1.140902649E+02  4.066686432E+02  4.457079940E+02  1.250000000E+02  0.00000E+00  9.000E+00
      25     1     1     2     0     0  8.493303678E+00 -7.964137003E+01  3.409498995E+02  3.718692217E+02  1.250000000E+02  0.00000E+00  9.000E+00
      -1     1     1     2     0   501 -7.657150927E+01 -3.444889484E+01  4.739801586E+01  9.641832966E+01  6.743495762E-07  0.00000E+00  9.000E+00
#rwgt            1           1   2.0489956514418692E-002           8      145707           0
</event>
<event>
      5   9999  3.19816E-02  9.73650E+00 -1.00000E+00  1.97107E-01
      21    -1     0     0   502   511  0.000000000E+00  0.000000000E+00  4.310675391E+02  4.310675391E+02  0.000000000E+00  0.00000E+00  9.000E+00
      21    -1     0     0   501   502  0.000000000E+00  0.000000000E+00 -3.308328139E+02  3.308328139E+02  0.000000000E+00  0.00000E+00  9.000E+00
      25     1     1     2     0     0 -3.059277830E+02 -1.503186859E+02  1.915658377E+00  3.630649880E+02  1.250000000E+02  0.00000E+00  9.000E+00
      25     1     1     2     0     0  3.018129651E+02  1.591429589E+02  7.155432377E+01  3.703546524E+02  1.250000000E+02  0.00000E+00  9.000E+00
      21     1     1     2   501   511  4.114817904E+00 -8.824273009E+00  2.676474313E+01  2.848071269E+01  3.371747881E-07  0.00000E+00  9.000E+00
#rwgt            1           1   2.8222601831455117E-002           8      145742           0
</event>
<event>
      5   9999  3.19816E-02  1.61931E+01 -1.00000E+00  1.74308E-01
      21    -1     0     0   512   501  0.000000000E+00  0.000000000E+00  5.906333630E+02  5.906333630E+02  0.000000000E+00  0.00000E+00  9.000E+00
      21    -1     0     0   501   502  0.000000000E+00  0.000000000E+00 -4.870684571E+02  4.870684571E+02  0.000000000E+00  0.00000E+00  9.000E+00
      25     1     1     2     0     0  4.524788755E+01 -1.177716614E+02 -4.536987719E+02  4.872218296E+02  1.250000000E+02  0.00000E+00  9.000E+00
      25     1     1     2     0     0 -2.916035151E+01  1.159253258E+02  4.516821849E+02  4.836639365E+02  1.250000000E+02  0.00000E+00  9.000E+00
      21     1     1     2   512   502 -1.608753604E+01  1.846335639E+00  1.055814929E+02  1.068160541E+02  1.348699152E-06  0.00000E+00  9.000E+00
#rwgt            1           1   3.1073195087567018E-002           8      145870           0
</event>
<event>
      5   9999  3.19816E-02  7.07542E+01 -1.00000E+00  1.30985E-01
      21    -1     0     0   502   501  0.000000000E+00  0.000000000E+00  1.193432187E+02  1.193432187E+02  0.000000000E+00  0.00000E+00  9.000E+00
      21    -1     0     0   501   511  0.000000000E+00  0.000000000E+00 -1.058841025E+03  1.058841025E+03  0.000000000E+00  0.00000E+00  9.000E+00
      25     1     1     2     0     0  4.338026622E+01  8.908041209E+01 -1.987195208E+02  2.548168268E+02  1.250000000E+02  0.00000E+00  9.000E+00
      25     1     1     2     0     0 -5.212411175E+01 -1.592922379E+02 -3.253628261E+01  2.115999758E+02  1.250000000E+02  0.00000E+00  9.000E+00
      21     1     1     2   502   511  8.743845531E+00  7.021182581E+01 -7.082420033E+02  7.117674413E+02  1.078959322E-05  0.00000E+00  9.000E+00
#rwgt            1           1   3.0228144000497857E-002           8      146145           0
</event>
<event>
      5   9999  3.19816E-02  1.17088E+02 -1.00000E+00  1.20823E-01
      21    -1     0     0   502   512  0.000000000E+00  0.000000000E+00  3.959698097E+02  3.959698097E+02  0.000000000E+00  0.00000E+00  9.000E+00
      21    -1     0     0   501   502  0.000000000E+00  0.000000000E+00 -1.017743193E+03  1.017743193E+03  0.000000000E+00  0.00000E+00  9.000E+00
      25     1     1     2     0     0 -1.857249843E+02  3.419372332E+02 -2.613828223E+02  4.851400015E+02  1.250000000E+02  0.00000E+00  9.000E+00
      25     1     1     2     0     0  3.002656651E+02 -3.176453745E+02 -5.451482965E+02  7.098378116E+02  1.250000000E+02  0.00000E+00  9.000E+00
      21     1     1     2   501   512 -1.145406808E+02 -2.429185875E+01  1.847577359E+02  2.187351891E+02  2.697398305E-06  0.00000E+00  9.000E+00
#rwgt            1           1   2.7697338743803496E-002           8      146261           0
</event>
<event>
      5   9999  3.19816E-02  7.07857E+01 -1.00000E+00  1.30976E-01
      21    -1     0     0   511   501  0.000000000E+00  0.000000000E+00  3.134079536E+02  3.134079536E+02  0.000000000E+00  0.00000E+00  9.000E+00
      21    -1     0     0   501   502  0.000000000E+00  0.000000000E+00 -3.185844570E+02  3.185844570E+02  0.000000000E+00  0.00000E+00  9.000E+00
      25     1     1     2     0     0  1.605394196E+02  5.964274244E+01 -1.848472534E+02  2.812892978E+02  1.250000000E+02  0.00000E+00  9.000E+00
      25     1     1     2     0     0 -1.290634655E+02 -1.230452224E+02  8.798035542E+01  2.348681499E+02  1.250000000E+02  0.00000E+00  9.000E+00
      21     1     1     2   511   502 -3.147595407E+01  6.340247995E+01  9.169039459E+01  1.158349628E+02  2.336015456E-06  0.00000E+00  9.000E+00
#rwgt            1           1   2.9041156738964687E-002           8      146353           0
</event>
<event>
      5   9999  3.19816E-02  3.81579E+01 -1.00000E+00  1.46122E-01
      21    -1     0     0   502   501  0.000000000E+00  0.000000000E+00  4.352186448E+02  4.352186448E+02  0.000000000E+00  0.00000E+00  9.000E+00
      21    -1     0     0   512   502  0.000000000E+00  0.000000000E+00 -1.340575949E+02  1.340575949E+02  0.000000000E+00  0.00000E+00  9.000E+00
      25     1     1     2     0     0 -1.203270662E+02  1.044559578E+02  8.925022404E+01  2.213148266E+02  1.250000000E+02  0.00000E+00  9.000E+00
      25     1     1     2     0     0  1.523286831E+02 -8.367325560E+01  2.220883416E+02  3.084695655E+02  1.250000000E+02  0.00000E+00  9.000E+00
      21     1     1     2   512   501 -3.200161691E+01 -2.078270224E+01 -1.017751574E+01  3.949184757E+01  8.596304120E-07  0.00000E+00  9.000E+00
#rwgt            1           1   3.0477322373197970E-002           8      146419           0
</event>
<event>
      5   9999  3.19816E-02  8.49914E+01 -1.00000E+00  1.27090E-01
      21    -1     0     0   502   501  0.000000000E+00  0.000000000E+00  6.124534200E+02  6.124534200E+02  0.000000000E+00  0.00000E+00  9.000E+00
      21    -1     0     0   501   511  0.000000000E+00  0.000000000E+00 -5.357288743E+02  5.357288743E+02  0.000000000E+00  0.00000E+00  9.000E+00
      25     1     1     2     0     0  4.531206222E+02 -1.249247116E+02  1.083735951E+02  4.982913986E+02  1.250000000E+02  0.00000E+00  9.000E+00
      25     1     1     2     0     0 -4.127566617E+02  5.012973662E+01  1.417965075E+02  4.567409570E+02  1.250000000E+02  0.00000E+00  9.000E+00
      21     1     1     2   502   511 -4.036396050E+01  7.479497494E+01 -1.734455569E+02  1.931499386E+02  4.264961200E-06  0.00000E+00  9.000E+00
#rwgt            1           1   2.6436858073123470E-002           8      146523           0
</event>
<event>
      5   9999  3.19816E-02  2.64141E+02 -1.00000E+00  1.07420E-01
      21    -1     0     0   502   501  0.000000000E+00  0.000000000E+00  5.972709898E+02  5.972709898E+02  0.000000000E+00  0.00000E+00  9.000E+00
       2    -1     0     0   501     0  0.000000000E+00  0.000000000E+00 -7.285862537E+02  7.285862537E+02  0.000000000E+00  0.00000E+00  9.000E+00
      25     1     1     2     0     0 -3.150213279E+02  1.667437693E+02 -1.412446099E+02  4.032579341E+02  1.250000000E+02  0.00000E+00  9.000E+00
      25     1     1     2     0     0  4.401541334E+02  6.587649081E+01  2.835295779E+02  5.423000966E+02  1.250000000E+02  0.00000E+00  9.000E+00
       2     1     1     2   502     0 -1.251328056E+02 -2.326202601E+02 -2.736002318E+02  3.802992128E+02  0.000000000E+00  0.00000E+00  9.000E+00
#rwgt            1           1   3.0177910252287728E-002           8      146616           0
</event>
<event>
      5   9999  3.19816E-02  3.89583E+02 -1.00000E+00  1.02031E-01
      21    -1     0     0   502   501  0.000000000E+00  0.000000000E+00  1.907141908E+03  1.907141908E+03  0.000000000E+00  0.00000E+00  9.000E+00
      21    -1     0     0   511   502  0.000000000E+00  0.000000000E+00 -1.569646046E+02  1.569646046E+02  0.000000000E+00  0.00000E+00  9.000E+00
      25     1     1     2     0     0  1.173492569E+02  3.549290817E+02  5.403053867E+02  6.688052123E+02  1.250000000E+02  0.00000E+00  9.000E+00
      25     1     1     2     0     0 -1.671631836E+02  3.145593951E+01  8.098881746E+02  8.369449573E+02  1.250000000E+02  0.00000E+00  9.000E+00
      21     1     1     2   511   501  4.981392662E+01 -3.863850212E+02  3.999837419E+02  5.583563430E+02  9.344061824E-06  0.00000E+00  9.000E+00
#rwgt            1           1   2.8401159743386081E-002           8      146653           0
</event>
<event>
      5   9999  3.19816E-02  7.98557E+01 -1.00000E+00  1.28387E-01
      21    -1     0     0   502   501  0.000000000E+00  0.000000000E+00  3.168925126E+01  3.168925126E+01  0.000000000E+00  0.00000E+00  9.000E+00
      21    -1     0     0   512   502  0.000000000E+00  0.000000000E+00 -1.177708162E+03  1.177708162E+03  0.000000000E+00  0.00000E+00  9.000E+00
      25     1     1     2     0     0  3.018303738E+01  3.830963504E+01 -5.069731838E+02  5.244286920E+02  1.250000000E+02  0.00000E+00  9.000E+00
      25     1     1     2     0     0 -6.602109518E+01  3.305258971E+01 -2.617501948E+02  2.993149231E+02  1.250000000E+02  0.00000E+00  9.000E+00
      21     1     1     2   512   501  3.583805779E+01 -7.136222476E+01 -3.772955325E+02  3.856537985E+02  9.344061824E-06  0.00000E+00  9.000E+00
#rwgt            1           1   2.1913710669968792E-002           8      146685           0
</event>
<event>
      5   9999  3.19816E-02  1.53692E+02 -1.00000E+00  1.15977E-01
      21    -1     0     0   502   501  0.000000000E+00  0.000000000E+00  2.473976352E+03  2.473976352E+03  0.000000000E+00  0.00000E+00  9.000E+00
      21    -1     0     0   501   511  0.000000000E+00  0.000000000E+00 -5.202467744E+01  5.202467744E+01  0.000000000E+00  0.00000E+00  9.000E+00
      25     1     1     2     0     0 -1.727786847E+01 -1.920429997E+01  1.151381157E+02  1.718985619E+02  1.250000000E+02  0.00000E+00  9.000E+00
      25     1     1     2     0     0  1.429619493E+01  1.728677071E+02  1.995460724E+03  2.006882191E+03  1.250000000E+02  0.00000E+00  9.000E+00
      21     1     1     2   502   511  2.981673547E+00 -1.536634071E+02  3.113528345E+02  3.472202768E+02  6.607249480E-06  0.00000E+00  9.000E+00
#rwgt            1           1   8.5451943141359010E-002           8      146751           0
</event>
<event>
      5   9999  3.19816E-02  4.18079E+01 -1.00000E+00  1.43659E-01
      21    -1     0     0   502   512  0.000000000E+00  0.000000000E+00  6.057782362E+02  6.057782362E+02  0.000000000E+00  0.00000E+00  9.000E+00
      21    -1     0     0   501   502  0.000000000E+00  0.000000000E+00 -3.429521125E+02  3.429521125E+02  0.000000000E+00  0.00000E+00  9.000E+00
      25     1     1     2     0     0  1.332302628E+01 -4.286634870E+01 -3.122956820E+02  3.393650245E+02  1.250000000E+02  0.00000E+00  9.000E+00
      25     1     1     2     0     0 -5.146448204E+01  5.998741357E+01  5.172125289E+02  5.379413376E+02  1.250000000E+02  0.00000E+00  9.000E+00
      21     1     1     2   501   512  3.814145576E+01 -1.712106487E+01  5.790927690E+01  7.142398659E+01  9.536743164E-07  0.00000E+00  9.000E+00
#rwgt            1           1   2.9565149234066376E-002           8      146810           0
</event>
<event>
      5   9999  3.19816E-02  8.32947E+01 -1.00000E+00  1.27507E-01
      21    -1     0     0   502   501  0.000000000E+00  0.000000000E+00  2.216322109E+02  2.216322109E+02  0.000000000E+00  0.00000E+00  9.000E+00
      21    -1     0     0   501   511  0.000000000E+00  0.000000000E+00 -6.697022496E+02  6.697022496E+02  0.000000000E+00  0.00000E+00  9.000E+00
      25     1     1     2     0     0  1.504939985E+02  2.413757772E+02 -3.097490680E+02  4.387256484E+02  1.250000000E+02  0.00000E+00  9.000E+00
      25     1     1     2     0     0 -2.278003161E+02 -2.103637595E+02 -6.278765000E+01  3.401664068E+02  1.250000000E+02  0.00000E+00  9.000E+00
      21     1     1     2   502   511  7.730631761E+01 -3.101201775E+01 -7.553332064E+01  1.124424053E+02  1.348699152E-06  0.00000E+00  9.000E+00
#rwgt            1           1   2.8045056319746364E-002           8      146924           0
</event>
<event>
      5   9999  3.19816E-02  4.04381E+01 -1.00000E+00  1.44547E-01
      21    -1     0     0   502   501  0.000000000E+00  0.000000000E+00  6.325258171E+02  6.325258171E+02  0.000000000E+00  0.00000E+00  9.000E+00
      21    -1     0     0   501   512  0.000000000E+00  0.000000000E+00 -7.830212233E+02  7.830212233E+02  0.000000000E+00  0.00000E+00  9.000E+00
      25     1     1     2     0     0  2.699728610E+00  5.335229570E+01 -6.406378730E+02  6.549012447E+02  1.250000000E+02  0.00000E+00  9.000E+00
      25     1     1     2     0     0 -4.025278619E+01 -3.835201608E+01  6.146733533E+02  6.297138201E+02  1.250000000E+02  0.00000E+00  9.000E+00
      21     1     1     2   502   512  3.755305758E+01 -1.500027962E+01 -1.245308866E+02  1.309319756E+02  2.336015456E-06  0.00000E+00  9.000E+00
#rwgt            1           1   2.9163989988707128E-002           8      147037           0
</event>
<event>
      5   9999  3.19816E-02  3.28030E+02 -1.00000E+00  1.04347E-01
      21    -1     0     0   502   501  0.000000000E+00  0.000000000E+00  8.142818053E+02  8.142818053E+02  0.000000000E+00  0.00000E+00  9.000E+00
      21    -1     0     0   501   511  0.000000000E+00  0.000000000E+00 -8.412642082E+02  8.412642082E+02  0.000000000E+00  0.00000E+00  9.000E+00
      25     1     1     2     0     0 -1.271167790E+02 -3.855980809E+02  3.166591016E+02  5.298514340E+02  1.250000000E+02  0.00000E+00  9.000E+00
      25     1     1     2     0     0  1.520899194E+02  7.126761538E+02 -2.853787303E+02  7.925305442E+02  1.250000000E+02  0.00000E+00  9.000E+00
      21     1     1     2   502   511 -2.497314035E+01 -3.270780729E+02 -5.826277412E+01  3.331640352E+02  6.942853822E-06  0.00000E+00  9.000E+00
#rwgt            1           1   2.7785273948270541E-002           8      147190           0
</event>
<event>
      5   9999  3.19816E-02  4.81699E+01 -1.00000E+00  1.40006E-01
       2    -1     0     0   502     0  0.000000000E+00  0.000000000E+00  2.258530005E+03  2.258530005E+03  0.000000000E+00  0.00000E+00  9.000E+00
      21    -1     0     0   501   502  0.000000000E+00  0.000000000E+00 -1.054731371E+02  1.054731371E+02  0.000000000E+00  0.00000E+00  9.000E+00
      25     1     1     2     0     0  4.137206514E-01 -9.725048903E+01  4.843778100E+02  5.096122953E+02  1.250000000E+02  0.00000E+00  9.000E+00
      25     1     1     2     0     0  4.452656043E+01  1.145915665E+02 -9.441580214E+00  1.755789997E+02  1.250000000E+02  0.00000E+00  9.000E+00
       2     1     1     2   501     0 -4.494028108E+01 -1.734107742E+01  1.678120638E+03  1.678811847E+03  2.157918644E-05  0.00000E+00  9.000E+00
#rwgt            1           1   2.6260736738045517E-002           8      147279           0
</event>
<event>
      5   9999  3.19816E-02  8.29200E+01 -1.00000E+00  1.27600E-01
      -3    -1     0     0     0   501  0.000000000E+00  0.000000000E+00  5.725264294E+02  5.725264294E+02  0.000000000E+00  0.00000E+00  9.000E+00
      21    -1     0     0   501   502  0.000000000E+00  0.000000000E+00 -7.300491640E+02  7.300491640E+02  0.000000000E+00  0.00000E+00  9.000E+00
      25     1     1     2     0     0  3.815808259E+02  4.703003060E+01 -4.635060305E+02  6.150435682E+02  1.250000000E+02  0.00000E+00  9.000E+00
      25     1     1     2     0     0 -2.995338468E+02 -3.502927684E+01 -4.259975470E+01  3.292222877E+02  1.250000000E+02  0.00000E+00  9.000E+00
      -3     1     1     2     0   502 -8.204697915E+01 -1.200075376E+01  3.485830505E+02  3.583097375E+02  6.607249480E-06  0.00000E+00  9.000E+00
#rwgt            1           1   2.8290355487942231E-002           8      147358           0
</event>
<event>
      5   9999  3.19816E-02  1.11451E+02 -1.00000E+00  1.21747E-01
      21    -1     0     0   502   501  0.000000000E+00  0.000000000E+00  1.584209505E+02  1.584209505E+02  0.000000000E+00  0.00000E+00  9.000E+00
      21    -1     0     0   511   502  0.000000000E+00  0.000000000E+00 -8.011150176E+02  8.011150176E+02  0.000000000E+00  0.00000E+00  9.000E+00
      25     1     1     2     0     0 -2.427015234E+02  9.352543162E+00 -3.644677922E+01  2.755809631E+02  1.250000000E+02  0.00000E+00  9.000E+00
      25     1     1     2     0     0  1.313057373E+02 -1.285768788E+01 -4.913422510E+02  5.238785398E+02  1.250000000E+02  0.00000E+00  9.000E+00
      21     1     1     2   511   501  1.113957861E+02  3.505144716E+00 -1.149050369E+02  1.600764652E+02  1.348699152E-06  0.00000E+00  9.000E+00
#rwgt            1           1   3.1346439528706804E-002           8      147424           0
</event>
<event>
      5   9999  3.19816E-02  3.38753E+01 -1.00000E+00  1.49463E-01
      21    -1     0     0   502   501  0.000000000E+00  0.000000000E+00  1.758266072E+02  1.758266072E+02  0.000000000E+00  0.00000E+00  9.000E+00
      21    -1     0     0   501   512  0.000000000E+00  0.000000000E+00 -5.334435174E+02  5.334435174E+02  0.000000000E+00  0.00000E+00  9.000E+00
      25     1     1     2     0     0 -2.059169902E+02 -4.759237563E+01 -8.157366054E+01  2.587394504E+02  1.250000000E+02  0.00000E+00  9.000E+00
      25     1     1     2     0     0  2.390640204E+02  5.457857765E+01 -1.370530074E+02  3.074718748E+02  1.250000000E+02  0.00000E+00  9.000E+00
      21     1     1     2   502   512 -3.314703018E+01 -6.986202026E+00 -1.389902423E+02  1.430587994E+02  2.697398305E-06  0.00000E+00  9.000E+00
#rwgt            1           1   3.3744060691581285E-002           8      147478           0
</event>
<event>
      5   9999  3.19816E-02  1.12060E+02 -1.00000E+00  1.21644E-01
      21    -1     0     0   502   511  0.000000000E+00  0.000000000E+00  2.569423837E+02  2.569423837E+02  0.000000000E+00  0.00000E+00  9.000E+00
      21    -1     0     0   501   502  0.000000000E+00  0.000000000E+00 -6.992496425E+02  6.992496425E+02  0.000000000E+00  0.00000E+00  9.000E+00
      25     1     1     2     0     0  2.492673586E+01  2.422165642E+02 -3.262045730E+02  4.258222981E+02  1.250000000E+02  0.00000E+00  9.000E+00
      25     1     1     2     0     0  4.334892331E+01 -3.310757864E+02 -1.820735806E+02  4.003324797E+02  1.250000000E+02  0.00000E+00  9.000E+00
      21     1     1     2   501   511 -6.827565918E+01  8.885922228E+01  6.597089474E+01  1.300372484E+02  1.348699152E-06  0.00000E+00  9.000E+00
#rwgt            2          11   3.3300330543750622E-003           8      147613           0
</event>
<event>
      5   9999  3.72456E-02  2.66803E+01 -1.00000E+00  1.56663E-01
      21    -1     0     0   502   501  0.000000000E+00  0.000000000E+00  2.445344979E+03  2.445344979E+03  0.000000000E+00  0.00000E+00  9.000E+00
      21    -1     0     0   501   512  0.000000000E+00  0.000000000E+00 -8.764619915E+01  8.764619915E+01  0.000000000E+00  0.00000E+00  9.000E+00
      25     1     1     2     0     0  4.181415286E+01  4.295133248E+02  1.422697669E+03  1.491953007E+03  1.250000000E+02  0.00000E+00  9.000E+00
      25     1     1     2     0     0 -5.218827666E+01 -4.049324821E+02  9.063226901E+02  1.001868130E+03  1.250000000E+02  0.00000E+00  9.000E+00
      21     1     1     2   502   512  1.037412380E+01 -2.458084267E+01  2.867842129E+01  3.917004108E+01  4.768371582E-07  0.00000E+00  9.000E+00
#rwgt            1           1  0.10566144138554440                8      147663           0
</event>
<event>
      5   9999  3.19816E-02  9.59867E+01 -1.00000E+00  1.24633E-01
      21    -1     0     0   502   511  0.000000000E+00  0.000000000E+00  2.703281817E+02  2.703281817E+02  0.000000000E+00  0.00000E+00  9.000E+00
      21    -1     0     0   501   502  0.000000000E+00  0.000000000E+00 -8.221606903E+02  8.221606903E+02  0.000000000E+00  0.00000E+00  9.000E+00
      25     1     1     2     0     0  2.209564045E+01 -2.034162489E+02 -3.658595666E+02  4.374295487E+02  1.250000000E+02  0.00000E+00  9.000E+00
      25     1     1     2     0     0 -8.729035119E+01  2.738655585E+02 -3.469922494E+02  4.676008669E+02  1.250000000E+02  0.00000E+00  9.000E+00
      21     1     1     2   501   511  6.519471074E+01 -7.044930963E+01  1.610193074E+02  1.874584565E+02  2.697398305E-06  0.00000E+00  9.000E+00
#rwgt            1           1   2.8243039387549653E-002           8      147801           0
</event>
<event>
      5   9999  3.19816E-02  9.91225E+01 -1.00000E+00  1.24000E-01
      21    -1     0     0   502   501  0.000000000E+00  0.000000000E+00  1.812582603E+02  1.812582603E+02  0.000000000E+00  0.00000E+00  9.000E+00
      21    -1     0     0   501   512  0.000000000E+00  0.000000000E+00 -9.616415019E+02  9.616415019E+02  0.000000000E+00  0.00000E+00  9.000E+00
      25     1     1     2     0     0 -1.943596706E+02 -1.836717200E+02 -3.372046261E+02  4.481550426E+02  1.250000000E+02  0.00000E+00  9.000E+00
      25     1     1     2     0     0  2.137000084E+02  8.645434319E+01 -2.323581413E+01  2.632621320E+02  1.250000000E+02  0.00000E+00  9.000E+00
      21     1     1     2   502   512 -1.934033779E+01  9.721737682E+01 -4.199428013E+02  4.314825876E+02  5.394796609E-06  0.00000E+00  9.000E+00
#rwgt            1           1   3.2007121044183448E-002           8      147889           0
</event>
<event>
      5   9999  3.19816E-02  9.90093E+01 -1.00000E+00  1.24023E-01
      21    -1     0     0   502   511  0.000000000E+00  0.000000000E+00  4.886712663E+02  4.886712663E+02  0.000000000E+00  0.00000E+00  9.000E+00
      21    -1     0     0   501   502  0.000000000E+00  0.000000000E+00 -1.455744546E+02  1.455744546E+02  0.000000000E+00  0.00000E+00  9.000E+00
      25     1     1     2     0     0 -7.986802344E+01 -2.756971532E+01  2.676948133E+02  3.072857032E+02  1.250000000E+02  0.00000E+00  9.000E+00
      25     1     1     2     0     0  1.601966920E+02 -3.031074827E+01  5.056514131E+00  2.055049633E+02  1.250000000E+02  0.00000E+00  9.000E+00
      21     1     1     2   501   511 -8.032866860E+01  5.788046359E+01  7.034548426E+01  1.214550543E+02  1.907348633E-06  0.00000E+00  9.000E+00
#rwgt            1           1   3.4079987220172053E-002           8      148008           0
</event>
<event>
      5   9999  3.19816E-02  1.52816E+02 -1.00000E+00  1.16074E-01
      21    -1     0     0   502   512  0.000000000E+00  0.000000000E+00  4.500894519E+02  4.500894519E+02  0.000000000E+00  0.00000E+00  9.000E+00
      21    -1     0     0   501   502  0.000000000E+00  0.000000000E+00 -2.267774105E+02  2.267774105E+02  0.000000000E+00  0.00000E+00  9.000E+00
      25     1     1     2     0     0 -8.512802508E+01  2.287683411E+01 -8.253147041E+01  1.738003849E+02  1.250000000E+02  0.00000E+00  9.000E+00
      25     1     1     2     0     0  1.283359552E+02 -1.694570844E+02  1.876377216E+02  3.098689003E+02  1.250000000E+02  0.00000E+00  9.000E+00
      21     1     1     2   501   512 -4.320793011E+01  1.465802502E+02  1.182057902E+02  1.931975772E+02  2.336015456E-06  0.00000E+00  9.000E+00
#rwgt            1           1   2.7153529119345206E-002           8      148106           0
</event>
<event>
      5   9999  3.19816E-02  1.91989E+02 -1.00000E+00  1.12298E-01
      21    -1     0     0   502   501  0.000000000E+00  0.000000000E+00  1.675630995E+02  1.675630995E+02  0.000000000E+00  0.00000E+00  9.000E+00
      21    -1     0     0   511   502  0.000000000E+00  0.000000000E+00 -1.972197492E+03  1.972197492E+03  0.000000000E+00  0.00000E+00  9.000E+00
      25     1     1     2     0     0  5.389468890E+01 -2.063731046E+02 -1.081683212E+03  1.109575624E+03  1.250000000E+02  0.00000E+00  9.000E+00
      25     1     1     2     0     0  6.699258659E+01  5.722238156E+01  1.015834257E+02  1.835935728E+02  1.250000000E+02  0.00000E+00  9.000E+00
      21     1     1     2   511   501 -1.208872755E+02  1.491507231E+02 -8.245346063E+02  8.465913941E+02  1.525878906E-05  0.00000E+00  9.000E+00
#rwgt            1           1   2.9739352007142544E-002           8      148146           0
</event>
<event>
      5   9999  3.19816E-02  6.79206E+01 -1.00000E+00  1.31887E-01
      21    -1     0     0   502   512  0.000000000E+00  0.000000000E+00  6.197908744E+02  6.197908744E+02  0.000000000E+00  0.00000E+00  9.000E+00
      21    -1     0     0   501   502  0.000000000E+00  0.000000000E+00 -1.402534944E+02  1.402534944E+02  0.000000000E+00  0.00000E+00  9.000E+00
      25     1     1     2     0     0 -3.126206482E+01 -4.248092296E+01  4.742530168E+02  4.932776799E+02  1.250000000E+02  0.00000E+00  9.000E+00
      25     1     1     2     0     0  7.085056587E+01 -1.270923804E+01 -7.420474856E+01  1.622118125E+02  1.250000000E+02  0.00000E+00  9.000E+00
      21     1     1     2   501   512 -3.958850105E+01  5.519016101E+01  7.948911179E+01  1.045548764E+02  9.536743164E-07  0.00000E+00  9.000E+00
#rwgt            1           1   2.8419117132824710E-002           8      148211           0
</event>
<event>
      5   9999  3.19816E-02  4.93996E+01 -1.00000E+00  1.39376E-01
      21    -1     0     0   502   511  0.000000000E+00  0.000000000E+00  7.026060203E+02  7.026060203E+02  0.000000000E+00  0.00000E+00  9.000E+00
      21    -1     0     0   501   502  0.000000000E+00  0.000000000E+00 -2.376448087E+02  2.376448087E+02  0.000000000E+00  0.00000E+00  9.000E+00
      25     1     1     2     0     0  3.223052486E+02 -1.817506669E+02  1.309772565E+02  4.119393401E+02  1.250000000E+02  0.00000E+00  9.000E+00
      25     1     1     2     0     0 -3.033368451E+02  1.361379575E+02  2.636413597E+02  4.423556845E+02  1.250000000E+02  0.00000E+00  9.000E+00
      21     1     1     2   501   511 -1.896840353E+01  4.561270948E+01  7.034259537E+01  8.595580447E+01  9.536743164E-07  0.00000E+00  9.000E+00
#rwgt            1           1   2.7790860063984367E-002           8      148279           0
</event>
<event>
      5   9999  3.19816E-02  9.82951E+02 -1.00000E+00  9.11708E-02
      21    -1     0     0   502   501  0.000000000E+00  0.000000000E+00  4.229951184E+02  4.229951184E+02  0.000000000E+00  0.00000E+00  9.000E+00
       2    -1     0     0   501     0  0.000000000E+00  0.000000000E+00 -3.738610242E+03  3.738610242E+03  0.000000000E+00  0.00000E+00  9.000E+00
      25     1     1     2     0     0  3.040271525E+02  1.303911425E+01 -4.741209518E+02  5.770772955E+02  1.250000000E+02  0.00000E+00  9.000E+00
      25     1     1     2     0     0  4.628099490E+02  6.019021759E+02 -2.439579633E+02  8.072296861E+02  1.250000000E+02  0.00000E+00  9.000E+00
       2     1     1     2   502     0 -7.668371015E+02 -6.149412902E+02 -2.597536209E+03  2.777298379E+03  3.051757812E-05  0.00000E+00  9.000E+00
#rwgt            2          13   9.3719552706279807E-004           8      148380           0
</event>
<event>
      5   9999  3.19816E-02  8.25157E+02 -1.00000E+00  9.30405E-02
      21    -1     0     0   511   501  0.000000000E+00  0.000000000E+00  3.032912962E+03  3.032912962E+03  0.000000000E+00  0.00000E+00  9.000E+00
      21    -1     0     0   501   502  0.000000000E+00  0.000000000E+00 -1.116927280E+03  1.116927280E+03  0.000000000E+00  0.00000E+00  9.000E+00
      25     1     1     2     0     0 -8.511369179E+02 -4.338108962E+02 -6.988090504E+02  1.190203779E+03  1.250000000E+02  0.00000E+00  9.000E+00
      25     1     1     2     0     0  2.673378809E+01  3.985445709E+02  3.381681485E+02  5.380847211E+02  1.250000000E+02  0.00000E+00  9.000E+00
      21     1     1     2   511   502  8.244031298E+02  3.526632527E+01  2.276626584E+03  2.421551742E+03  3.051757812E-05  0.00000E+00  9.000E+00
#rwgt            2          11   3.1987670740979217E-004           8      148399           0
</event>
<event>
      5   9999  3.19816E-02  1.35233E+02 -1.00000E+00  1.18206E-01
      21    -1     0     0   502   512  0.000000000E+00  0.000000000E+00  8.922671854E+02  8.922671854E+02  0.000000000E+00  0.00000E+00  9.000E+00
      21    -1     0     0   501   502  0.000000000E+00  0.000000000E+00 -6.067629581E+02  6.067629581E+02  0.000000000E+00  0.00000E+00  9.000E+00
      25     1     1     2     0     0  1.681382440E+02  6.092314853E+00 -7.016056190E+01  2.210318751E+02  1.250000000E+02  0.00000E+00  9.000E+00
      25     1     1     2     0     0 -2.099124757E+02 -1.347118260E+02 -4.125181154E+02  4.980027299E+02  1.250000000E+02  0.00000E+00  9.000E+00
      21     1     1     2   501   512  4.177423170E+01  1.286195112E+02  7.681829046E+02  7.799955384E+02  0.000000000E+00  0.00000E+00  9.000E+00
#rwgt            1           1   2.9588568617557594E-002           8      148419           0
</event>
<event>
      5   9999  3.19816E-02  2.95956E+02 -1.00000E+00  1.05784E-01
      21    -1     0     0   502   511  0.000000000E+00  0.000000000E+00  8.494475183E+02  8.494475183E+02  0.000000000E+00  0.00000E+00  9.000E+00
      21    -1     0     0   501   502  0.000000000E+00  0.000000000E+00 -3.573746642E+02  3.573746642E+02  0.000000000E+00  0.00000E+00  9.000E+00
      25     1     1     2     0     0 -3.764052024E+02  4.220466878E+01  2.052038499E+02  4.485484706E+02  1.250000000E+02  0.00000E+00  9.000E+00
      25     1     1     2     0     0  1.218980238E+02 -1.932537966E+02 -9.315412333E+01  2.766023297E+02  1.250000000E+02  0.00000E+00  9.000E+00
      21     1     1     2   501   511  2.545071786E+02  1.510491278E+02  3.800231275E+02  4.816713822E+02  7.629394531E-06  0.00000E+00  9.000E+00
#rwgt            2          11   2.8015253614747404E-003           8      148551           0
</event>
<event>
      5   9999  3.19816E-02  4.43145E+01 -1.00000E+00  1.42134E-01
      21    -1     0     0   502   501  0.000000000E+00  0.000000000E+00  1.587822927E+02  1.587822927E+02  0.000000000E+00  0.00000E+00  9.000E+00
      21    -1     0     0   501   512  0.000000000E+00  0.000000000E+00 -6.860481368E+02  6.860481368E+02  0.000000000E+00  0.00000E+00  9.000E+00
      25     1     1     2     0     0  1.640168483E+01  1.712852742E+02 -3.591298707E+02  4.173810303E+02  1.250000000E+02  0.00000E+00  9.000E+00
      25     1     1     2     0     0  1.001365870E+01 -1.357043227E+02  6.060300578E+01  1.944573498E+02  1.250000000E+02  0.00000E+00  9.000E+00
      21     1     1     2   502   512 -2.641534354E+01 -3.558095152E+01 -2.287389792E+02  2.329920494E+02  2.697398305E-06  0.00000E+00  9.000E+00
#rwgt            1           1   2.9355039941039354E-002           8      148586           0
</event>
<event>
      5   9999  3.19816E-02  2.65292E+02 -1.00000E+00  1.07356E-01
      21    -1     0     0   502   501  0.000000000E+00  0.000000000E+00  9.304571557E+02  9.304571557E+02  0.000000000E+00  0.00000E+00  9.000E+00
      21    -1     0     0   501   511  0.000000000E+00  0.000000000E+00 -6.897174984E+02  6.897174984E+02  0.000000000E+00  0.00000E+00  9.000E+00
      25     1     1     2     0     0  1.577634135E+02  3.192292792E+01 -3.883061427E+02  4.385373740E+02  1.250000000E+02  0.00000E+00  9.000E+00
      25     1     1     2     0     0  1.036832892E+02 -7.692990738E+01  8.297444794E+02  8.489813521E+02  1.250000000E+02  0.00000E+00  9.000E+00
      21     1     1     2   502   511 -2.614467027E+02  4.500697945E+01 -2.006986794E+02  3.326559280E+02  0.000000000E+00  0.00000E+00  9.000E+00
#rwgt            2          11   3.8449909563936300E-003           8      148755           0
</event>
<event>
      5   9999  3.19816E-02  1.07497E+02 -1.00000E+00  1.22432E-01
      21    -1     0     0   512   501  0.000000000E+00  0.000000000E+00  2.315686960E+03  2.315686960E+03  0.000000000E+00  0.00000E+00  9.000E+00
      21    -1     0     0   501   502  0.000000000E+00  0.000000000E+00 -6.429628121E+01  6.429628121E+01  0.000000000E+00  0.00000E+00  9.000E+00
      25     1     1     2     0     0  3.011033165E+01 -1.681711647E+02  1.500364088E+02  2.594688742E+02  1.250000000E+02  0.00000E+00  9.000E+00
      25     1     1     2     0     0 -9.450937372E+01  8.209958778E+01  1.314202530E+03  1.326056430E+03  1.250000000E+02  0.00000E+00  9.000E+00
      21     1     1     2   512   502  6.439904207E+01  8.607157689E+01  7.871517397E+02  7.944579374E+02  0.000000000E+00  0.00000E+00  9.000E+00
#rwgt            1           1   2.0856161821675327E-002           8      148775           0
</event>
<event>
      5   9999  3.19816E-02  2.10665E+02 -1.00000E+00  1.10833E-01
      21    -1     0     0   502   501  0.000000000E+00  0.000000000E+00  7.442806159E+02  7.442806159E+02  0.000000000E+00  0.00000E+00  9.000E+00
       1    -1     0     0   501     0  0.000000000E+00  0.000000000E+00 -1.932515409E+03  1.932515409E+03  0.000000000E+00  0.00000E+00  9.000E+00
      25     1     1     2     0     0  3.941559004E+02  5.078985188E+01  3.433993104E+01  4.180223843E+02  1.250000000E+02  0.00000E+00  9.000E+00
      25     1     1     2     0     0 -4.055626302E+02 -2.611461783E+02  3.898272290E+02  6.326678765E+02  1.250000000E+02  0.00000E+00  9.000E+00
       1     1     1     2   502     0  1.140672980E+01  2.103563264E+02 -1.612401953E+03  1.626105764E+03  3.051757812E-05  0.00000E+00  9.000E+00
#rwgt            2          12   1.8665395910179973E-003           8      148844           0
</event>
<event>
      5   9999  3.19816E-02  1.03461E+02 -1.00000E+00  1.23167E-01
      21    -1     0     0   511   501  0.000000000E+00  0.000000000E+00  9.907514901E+01  9.907514901E+01  0.000000000E+00  0.00000E+00  9.000E+00
      21    -1     0     0   501   502  0.000000000E+00  0.000000000E+00 -7.726063557E+02  7.726063557E+02  0.000000000E+00  0.00000E+00  9.000E+00
      25     1     1     2     0     0 -1.155606870E+01 -6.483657902E+01 -4.788741043E+02  4.992822173E+02  1.250000000E+02  0.00000E+00  9.000E+00
      25     1     1     2     0     0  8.654729686E+01  1.361148232E+02 -8.334290382E+01  2.204284902E+02  1.250000000E+02  0.00000E+00  9.000E+00
      21     1     1     2   511   502 -7.499122815E+01 -7.127824419E+01 -1.113141985E+02  1.519707971E+02  2.336015456E-06  0.00000E+00  9.000E+00
#rwgt            1           1   2.7806606995724091E-002           8      148863           0
</event>
<event>
      5   9999  3.19816E-02  1.55963E+02 -1.00000E+00  1.15727E-01
      21    -1     0     0   502   501  0.000000000E+00  0.000000000E+00  1.302681129E+03  1.302681129E+03  0.000000000E+00  0.00000E+00  9.000E+00
       2    -1     0     0   501     0  0.000000000E+00  0.000000000E+00 -8.798242722E+02  8.798242722E+02  0.000000000E+00  0.00000E+00  9.000E+00
      25     1     1     2     0     0  8.083228067E+02 -5.643422260E+01  7.518328655E+02  1.112406508E+03  1.250000000E+02  0.00000E+00  9.000E+00
      25     1     1     2     0     0 -7.231027854E+02 -7.418696432E+01 -3.629932108E+01  7.384605505E+02  1.250000000E+02  0.00000E+00  9.000E+00
       2     1     1     2   502     0 -8.522002124E+01  1.306211869E+02 -2.926766880E+02  3.316383424E+02  3.814697266E-06  0.00000E+00  9.000E+00
#rwgt            1           1   4.2785683540401957E-002           8      148929           0
</event>
<event>
      5   9999  3.19816E-02  2.42694E+02 -1.00000E+00  1.08672E-01
      21    -1     0     0   511   501  0.000000000E+00  0.000000000E+00  3.879441804E+02  3.879441804E+02  0.000000000E+00  0.00000E+00  9.000E+00
      21    -1     0     0   501   502  0.000000000E+00  0.000000000E+00 -7.840483527E+02  7.840483527E+02  0.000000000E+00  0.00000E+00  9.000E+00
      25     1     1     2     0     0  9.847402732E+01 -4.574099291E+02 -3.777507540E+02  6.141999751E+02  1.250000000E+02  0.00000E+00  9.000E+00
      25     1     1     2     0     0 -1.705297997E+02  2.256596877E+02  2.874727634E+01  3.105706251E+02  1.250000000E+02  0.00000E+00  9.000E+00
      21     1     1     2   511   502  7.205577235E+01  2.317502413E+02 -4.710069468E+01  2.472219329E+02  1.348699152E-06  0.00000E+00  9.000E+00
#rwgt            1           1   2.6674028550436026E-002           8      149036           0
</event>
<event>
      5   9999  3.19816E-02  2.05097E+02 -1.00000E+00  1.11252E-01
      21    -1     0     0   502   501  0.000000000E+00  0.000000000E+00  2.613246831E+02  2.613246831E+02  0.000000000E+00  0.00000E+00  9.000E+00
       2    -1     0     0   501     0  0.000000000E+00  0.000000000E+00 -2.899542057E+03  2.899542057E+03  0.000000000E+00  0.00000E+00  9.000E+00
      25     1     1     2     0     0  4.180317768E+02 -1.787452197E+02 -8.423411962E+01  4.789789211E+02  1.250000000E+02  0.00000E+00  9.000E+00
      25     1     1     2     0     0 -5.928568219E+02  7.150335828E+01 -2.008749631E+03  2.099355145E+03  1.250000000E+02  0.00000E+00  9.000E+00
       2     1     1     2   502     0  1.748250451E+02  1.072418614E+02 -5.452336232E+02  5.825326747E+02  7.629394531E-06  0.00000E+00  9.000E+00
#rwgt            1           1   2.5398924935959445E-002           8      149096           0
</event>
<event>
      5   9999  3.19816E-02  3.29586E+01 -1.00000E+00  1.50256E-01
      21    -1     0     0   502   501  0.000000000E+00  0.000000000E+00  5.799688146E+02  5.799688146E+02  0.000000000E+00  0.00000E+00  9.000E+00
      21    -1     0     0   511   502  0.000000000E+00  0.000000000E+00 -2.232954865E+02  2.232954865E+02  0.000000000E+00  0.00000E+00  9.000E+00
      25     1     1     2     0     0  1.475703799E+02 -1.655084234E+02  4.431899903E+02  5.110894469E+02  1.250000000E+02  0.00000E+00  9.000E+00
      25     1     1     2     0     0 -1.466689778E+02  1.325621500E+02 -4.338186228E+01  2.378896774E+02  1.250000000E+02  0.00000E+00  9.000E+00
      21     1     1     2   511   501 -9.014021503E-01  3.294627346E+01 -4.313479990E+01  5.428517682E+01  6.743495762E-07  0.00000E+00  9.000E+00
#rwgt            1           1   2.7274420062786835E-002           8      149169           0
</event>
<event>
      5   9999  3.19816E-02  5.02883E+01 -1.00000E+00  1.38933E-01
       2    -1     0     0   502     0  0.000000000E+00  0.000000000E+00  1.403316808E+03  1.403316808E+03  0.000000000E+00  0.00000E+00  9.000E+00
      21    -1     0     0   501   502  0.000000000E+00  0.000000000E+00 -7.992562130E+02  7.992562130E+02  0.000000000E+00  0.00000E+00  9.000E+00
      25     1     1     2     0     0 -5.380720411E+02  4.512879897E+02  1.066818297E+02  7.212408639E+02  1.250000000E+02  0.00000E+00  9.000E+00
      25     1     1     2     0     0  5.589786929E+02 -4.055514767E+02 -2.403910662E+02  7.418504189E+02  1.250000000E+02  0.00000E+00  9.000E+00
       2     1     1     2   501     0 -2.090665180E+01 -4.573651299E+01  7.377698314E+02  7.394817380E+02  0.000000000E+00  0.00000E+00  9.000E+00
#rwgt            1           1   2.4038281833029026E-002           8      149262           0
</event>
<event>
      5   9999  3.19816E-02  8.42607E+00 -1.00000E+00  2.04767E-01
      21    -1     0     0   502   511  0.000000000E+00  0.000000000E+00  5.748629554E+02  5.748629554E+02  0.000000000E+00  0.00000E+00  9.000E+00
      21    -1     0     0   501   502  0.000000000E+00  0.000000000E+00 -9.527026959E+01  9.527026959E+01  0.000000000E+00  0.00000E+00  9.000E+00
      25     1     1     2     0     0  7.172461947E+01 -9.652296607E+01  2.512368375E+01  1.752635259E+02  1.250000000E+02  0.00000E+00  9.000E+00
      25     1     1     2     0     0 -7.995742619E+01  9.472866787E+01  3.674610823E+02  4.074547306E+02  1.250000000E+02  0.00000E+00  9.000E+00
      21     1     1     2   501   511  8.232806728E+00  1.794298197E+00  8.700791981E+01  8.741496853E+01  9.536743164E-07  0.00000E+00  9.000E+00
#rwgt            1           1   2.9363269684134857E-002           8      149391           0
</event>
<event>
      5   9999  3.19816E-02  2.33365E+01 -1.00000E+00  1.61024E-01
      21    -1     0     0   502   501  0.000000000E+00  0.000000000E+00  1.849157870E+02  1.849157870E+02  0.000000000E+00  0.00000E+00  9.000E+00
      21    -1     0     0   501   512  0.000000000E+00  0.000000000E+00 -2.260720207E+03  2.260720207E+03  0.000000000E+00  0.00000E+00  9.000E+00
      25     1     1     2     0     0  9.723765594E+01 -9.520134488E+01  9.883440701E+01  2.095511818E+02  1.250000000E+02  0.00000E+00  9.000E+00
      25     1     1     2     0     0 -1.157851706E+02  8.103864878E+01 -2.596928375E+02  3.209966327E+02  1.250000000E+02  0.00000E+00  9.000E+00
      21     1     1     2   502   512  1.854751466E+01  1.416269610E+01 -1.914945990E+03  1.915088180E+03  2.157918644E-05  0.00000E+00  9.000E+00
#rwgt            1           1   3.0216452877534904E-002           8      149605           0
</event>
<event>
      5   9999  3.19816E-02  2.48053E+02 -1.00000E+00  1.08346E-01
      21    -1     0     0   502   501  0.000000000E+00  0.000000000E+00  3.442010129E+03  3.442010129E+03  0.000000000E+00  0.00000E+00  9.000E+00
      21    -1     0     0   501   511  0.000000000E+00  0.000000000E+00 -1.029653651E+03  1.029653651E+03  0.000000000E+00  0.00000E+00  9.000E+00
      25     1     1     2     0     0  7.269712836E+02  4.163959732E+02  3.882448911E+02  9.317896485E+02  1.250000000E+02  0.00000E+00  9.000E+00
      25     1     1     2     0     0 -8.747017245E+02 -2.171328796E+02  2.684463707E+03  2.834470002E+03  1.250000000E+02  0.00000E+00  9.000E+00
      21     1     1     2   502   511  1.477304409E+02 -1.992630936E+02 -6.603521202E+02  7.054041298E+02  1.078959322E-05  0.00000E+00  9.000E+00
#rwgt            2          11   1.4470294066600293E-002           8      149742           0
</event>
<event>
      5   9999  3.19816E-02  3.07230E+02 -1.00000E+00  1.05257E-01
      21    -1     0     0   512   501  0.000000000E+00  0.000000000E+00  9.075207516E+02  9.075207516E+02  0.000000000E+00  0.00000E+00  9.000E+00
      21    -1     0     0   501   502  0.000000000E+00  0.000000000E+00 -3.367717185E+02  3.367717185E+02  0.000000000E+00  0.00000E+00  9.000E+00
      25     1     1     2     0     0 -1.441121777E+01 -1.811006635E+02  3.708960900E+02  4.315020777E+02  1.250000000E+02  0.00000E+00  9.000E+00
      25     1     1     2     0     0 -2.438942009E+02  3.474388608E+02 -6.721394724E+00  4.425701305E+02  1.250000000E+02  0.00000E+00  9.000E+00
      21     1     1     2   512   502  2.583054187E+02 -1.663381973E+02  2.065743379E+02  3.702202619E+02  6.607249480E-06  0.00000E+00  9.000E+00
#rwgt            1           1   2.8583209869853507E-002           8      149792           0
</event>
<event>
      5   9999  3.19816E-02  1.02825E+02 -1.00000E+00  1.23286E-01
       2    -1     0     0   502     0  0.000000000E+00  0.000000000E+00  1.793480708E+03  1.793480708E+03  0.000000000E+00  0.00000E+00  9.000E+00
      21    -1     0     0   501   502  0.000000000E+00  0.000000000E+00 -8.854081557E+02  8.854081557E+02  0.000000000E+00  0.00000E+00  9.000E+00
      25     1     1     2     0     0 -2.532853072E+02 -3.093182481E+02 -6.556012167E+02  7.779904760E+02  1.250000000E+02  0.00000E+00  9.000E+00
      25     1     1     2     0     0  1.729791486E+02  3.735358240E+02  1.106037524E+02  4.441947633E+02  1.250000000E+02  0.00000E+00  9.000E+00
       2     1     1     2   501     0  8.030615855E+01 -6.421757589E+01  1.453070017E+03  1.456703624E+03  2.157918644E-05  0.00000E+00  9.000E+00
#rwgt            1           1   2.9770119561466850E-002           8      149820           0
</event>
<event>
      5   9999  3.19816E-02  6.37450E+01 -1.00000E+00  1.33313E-01
      21    -1     0     0   502   501  0.000000000E+00  0.000000000E+00  2.245630543E+02  2.245630543E+02  0.000000000E+00  0.00000E+00  9.000E+00
       4    -1     0     0   501     0  0.000000000E+00  0.000000000E+00 -9.268576863E+02  9.268576863E+02  0.000000000E+00  0.00000E+00  9.000E+00
      25     1     1     2     0     0  2.860508541E+02 -7.816770423E+01 -1.342990193E+01  3.220879436E+02  1.250000000E+02  0.00000E+00  9.000E+00
      25     1     1     2     0     0 -2.235220099E+02  9.056022145E+01 -2.025123275E+02  3.388207276E+02  1.250000000E+02  0.00000E+00  9.000E+00
       4     1     1     2   502     0 -6.252884417E+01 -1.239251722E+01 -4.863524026E+02  4.905120695E+02  7.629394531E-06  0.00000E+00  9.000E+00
#rwgt            1           1   2.8936770252430452E-002           8      149894           0
</event>
<event>
      5   9999  3.19816E-02  1.51344E+01 -1.00000E+00  1.77019E-01
      21    -1     0     0   502   501  0.000000000E+00  0.000000000E+00  3.942419379E+02  3.942419379E+02  0.000000000E+00  0.00000E+00  9.000E+00
       2    -1     0     0   501     0  0.000000000E+00  0.000000000E+00 -2.525477838E+02  2.525477838E+02  0.000000000E+00  0.00000E+00  9.000E+00
      25     1     1     2     0     0 -1.313109612E+02  2.023383217E+02  1.026493056E+02  2.904225282E+02  1.250000000E+02  0.00000E+00  9.000E+00
      25     1     1     2     0     0  1.276302762E+02 -1.876583486E+02  1.117038699E+02  2.821487157E+02  1.250000000E+02  0.00000E+00  9.000E+00
       2     1     1     2   502     0  3.680684955E+00 -1.467997307E+01 -7.265902140E+01  7.421847776E+01  1.651812370E-06  0.00000E+00  9.000E+00
#rwgt            1           1   2.6243239759192964E-002           8      149947           0
</event>
<event>
      5   9999  3.19816E-02  1.56370E+02 -1.00000E+00  1.15682E-01
      21    -1     0     0   511   501  0.000000000E+00  0.000000000E+00  3.326865285E+02  3.326865285E+02  0.000000000E+00  0.00000E+00  9.000E+00
      21    -1     0     0   501   502  0.000000000E+00  0.000000000E+00 -2.562366556E+02  2.562366556E+02  0.000000000E+00  0.00000E+00  9.000E+00
      25     1     1     2     0     0  1.102011118E-01  6.886337653E+01  6.480962413E+01  1.567401166E+02  1.250000000E+02  0.00000E+00  9.000E+00
      25     1     1     2     0     0  5.956380895E+01 -2.133995001E+02 -5.814652578E+01  2.609467617E+02  1.250000000E+02  0.00000E+00  9.000E+00
      21     1     1     2   511   502 -5.967401006E+01  1.445361236E+02  6.978677465E+01  1.712363058E+02  1.348699152E-06  0.00000E+00  9.000E+00
#rwgt            1           1   3.2277956856976334E-002           8      150108           0
</event>
<event>
      5   9999  3.19816E-02  2.53243E+02 -1.00000E+00  1.08039E-01
      21    -1     0     0   502   512  0.000000000E+00  0.000000000E+00  5.373221459E+02  5.373221459E+02  0.000000000E+00  0.00000E+00  9.000E+00
      21    -1     0     0   501   502  0.000000000E+00  0.000000000E+00 -9.064372294E+02  9.064372294E+02  0.000000000E+00  0.00000E+00  9.000E+00
      25     1     1     2     0     0 -4.032287548E+02  6.419476528E+01 -1.426699828E+02  4.502156378E+02  1.250000000E+02  0.00000E+00  9.000E+00
      25     1     1     2     0     0  3.557997519E+02  1.845670955E+02 -4.782625743E+02  6.364106899E+02  1.250000000E+02  0.00000E+00  9.000E+00
      21     1     1     2   501   512  4.742900289E+01 -2.487618607E+02  2.518174736E+02  3.571330476E+02  2.697398305E-06  0.00000E+00  9.000E+00
#rwgt            1           1   2.9374419574849268E-002           8      150138           0
</event>
<event>
      5   9999  3.19816E-02  9.70475E+01 -1.00000E+00  1.24416E-01
      21    -1     0     0   511   501  0.000000000E+00  0.000000000E+00  9.391113806E+01  9.391113806E+01  0.000000000E+00  0.00000E+00  9.000E+00
      21    -1     0     0   501   502  0.000000000E+00  0.000000000E+00 -9.970403103E+02  9.970403103E+02  0.000000000E+00  0.00000E+00  9.000E+00
      25     1     1     2     0     0 -7.387649093E+01 -1.350661290E+02 -2.784794660E+02  3.418719177E+02  1.250000000E+02  0.00000E+00  9.000E+00
      25     1     1     2     0     0  6.595529324E+01  2.317898631E+02 -5.837028121E+02  6.437473217E+02  1.250000000E+02  0.00000E+00  9.000E+00
      21     1     1     2   511   502  7.921197692E+00 -9.672373407E+01 -4.094689414E+01  1.053322090E+02  1.348699152E-06  0.00000E+00  9.000E+00
#rwgt            1           1   2.7836897836850082E-002           8      150218           0
</event>
<event>
      5   9999  3.19816E-02  1.69974E+01 -1.00000E+00  1.72417E-01
      21    -1     0     0   502   512  0.000000000E+00  0.000000000E+00  3.649954022E+02  3.649954022E+02  0.000000000E+00  0.00000E+00  9.000E+00
      21    -1     0     0   501   502  0.000000000E+00  0.000000000E+00 -1.226740805E+02  1.226740805E+02  0.000000000E+00  0.00000E+00  9.000E+00
      25     1     1     2     0     0  1.142653665E+02  8.163783664E+01  2.195771870E+01  1.892840505E+02  1.250000000E+02  0.00000E+00  9.000E+00
      25     1     1     2     0     0 -1.072883540E+02 -6.613839539E+01  1.722033781E+02  2.473137313E+02  1.250000000E+02  0.00000E+00  9.000E+00
      21     1     1     2   501   512 -6.977012518E+00 -1.549944125E+01  4.816022490E+01  5.107170102E+01  6.743495762E-07  0.00000E+00  9.000E+00
#rwgt            1           1   3.0854761241609394E-002           8      150266           0
</event>
<event>
      5   9999  3.19816E-02  4.01656E+02 -1.00000E+00  1.01631E-01
      21    -1     0     0   502   501  0.000000000E+00  0.000000000E+00  5.719343123E+02  5.719343123E+02  0.000000000E+00  0.00000E+00  9.000E+00
      21    -1     0     0   511   502  0.000000000E+00  0.000000000E+00 -1.583383254E+03  1.583383254E+03  0.000000000E+00  0.00000E+00  9.000E+00
      25     1     1     2     0     0  1.829618440E+02  3.689553553E+02  9.806840066E+01  4.414130739E+02  1.250000000E+02  0.00000E+00  9.000E+00
      25     1     1     2     0     0 -3.281707499E+02 -7.434443398E+02 -4.384275877E+02  9.317989467E+02  1.250000000E+02  0.00000E+00  9.000E+00
      21     1     1     2   511   501  1.452089058E+02  3.744889844E+02 -6.710897548E+02  7.821055458E+02  1.525878906E-05  0.00000E+00  9.000E+00
#rwgt            1           1   2.7278410986914758E-002           8      150438           0
</event>
<event>
      5   9999  3.19816E-02  1.97882E+02 -1.00000E+00  1.11817E-01
      21    -1     0     0   502   512  0.000000000E+00  0.000000000E+00  4.928991522E+02  4.928991522E+02  0.000000000E+00  0.00000E+00  9.000E+00
      21    -1     0     0   501   502  0.000000000E+00  0.000000000E+00 -5.756027928E+02  5.756027928E+02  0.000000000E+00  0.00000E+00  9.000E+00
      25     1     1     2     0     0 -1.945546667E+02  3.676023797E+02 -8.038011507E+01  4.416661531E+02  1.250000000E+02  0.00000E+00  9.000E+00
      25     1     1     2     0     0  3.000948963E+02 -2.002154847E+02 -1.154888297E+02  3.988807552E+02  1.250000000E+02  0.00000E+00  9.000E+00
      21     1     1     2   501   512 -1.055402296E+02 -1.673868950E+02  1.131653041E+02  2.279550367E+02  4.672030912E-06  0.00000E+00  9.000E+00
#rwgt            1           1   2.9619161523142548E-002           8      150516           0
</event>
<event>
      5   9999  3.19816E-02  2.98797E+02 -1.00000E+00  1.05649E-01
      21    -1     0     0   511   501  0.000000000E+00  0.000000000E+00  2.440152513E+02  2.440152513E+02  0.000000000E+00  0.00000E+00  9.000E+00
      21    -1     0     0   501   502  0.000000000E+00  0.000000000E+00 -2.386203366E+03  2.386203366E+03  0.000000000E+00  0.00000E+00  9.000E+00
      25     1     1     2     0     0 -1.838176072E+02 -4.798201670E+02 -7.427460422E+02  9.117636692E+02  1.250000000E+02  0.00000E+00  9.000E+00
      25     1     1     2     0     0 -9.624702891E+01  3.756885989E+02 -1.356759204E+03  1.416624845E+03  1.250000000E+02  0.00000E+00  9.000E+00
      21     1     1     2   511   502  2.800646361E+02  1.041315681E+02 -4.268286851E+01  3.018301031E+02  1.507891493E-06  0.00000E+00  9.000E+00
#rwgt            1           1   3.2608219098042950E-002           8      150560           0
</event>
<event>
      5   9999  3.19816E-02  3.49621E+01 -1.00000E+00  1.48562E-01
      21    -1     0     0   512   501  0.000000000E+00  0.000000000E+00  6.226297074E+02  6.226297074E+02  0.000000000E+00  0.00000E+00  9.000E+00
      21    -1     0     0   501   502  0.000000000E+00  0.000000000E+00 -1.296061580E+03  1.296061580E+03  0.000000000E+00  0.00000E+00  9.000E+00
      25     1     1     2     0     0 -4.399193405E+02  6.837279083E+02 -6.660304884E+02  1.058411305E+03  1.250000000E+02  0.00000E+00  9.000E+00
      25     1     1     2     0     0  4.073038245E+02 -6.963207009E+02 -3.293353215E+01  8.169874794E+02  1.250000000E+02  0.00000E+00  9.000E+00
      21     1     1     2   512   502  3.261551594E+01  1.259279261E+01  2.553214750E+01  4.329250353E+01  4.768371582E-07  0.00000E+00  9.000E+00
#rwgt            1           1   3.4268447263232631E-002           8      150600           0
</event>
<event>
      5   9999  3.19816E-02  1.01669E+02 -1.00000E+00  1.23505E-01
      21    -1     0     0   502   511  0.000000000E+00  0.000000000E+00  1.319444228E+02  1.319444228E+02  0.000000000E+00  0.00000E+00  9.000E+00
      21    -1     0     0   501   502  0.000000000E+00  0.000000000E+00 -1.182871748E+03  1.182871748E+03  0.000000000E+00  0.00000E+00  9.000E+00
      25     1     1     2     0     0 -1.874451261E+02  1.100473248E+02 -9.380808663E+02  9.710132856E+02  1.250000000E+02  0.00000E+00  9.000E+00
      25     1     1     2     0     0  1.801709724E+02 -8.638504525E+00 -5.277569279E+01  2.257132624E+02  1.250000000E+02  0.00000E+00  9.000E+00
      21     1     1     2   501   511  7.274153728E+00 -1.014088203E+02 -6.007076649E+01  1.180896233E+02  1.507891493E-06  0.00000E+00  9.000E+00
#rwgt            1           1   2.8046253633087097E-002           8      150775           0
</event>
<event>
      5   9999  3.19816E-02  1.53235E+02 -1.00000E+00  1.16028E-01
      21    -1     0     0   502   501  0.000000000E+00  0.000000000E+00  5.440142512E+02  5.440142512E+02  0.000000000E+00  0.00000E+00  9.000E+00
      21    -1     0     0   501   512  0.000000000E+00  0.000000000E+00 -1.073073724E+03  1.073073724E+03  0.000000000E+00  0.00000E+00  9.000E+00
      25     1     1     2     0     0  9.237090337E+01  2.363784131E+02  4.247502295E+02  5.103380207E+02  1.250000000E+02  0.00000E+00  9.000E+00
      25     1     1     2     0     0 -5.203764016E+01 -3.842101923E+02 -6.666632888E+02  7.812748098E+02  1.250000000E+02  0.00000E+00  9.000E+00
      21     1     1     2   502   512 -4.033326322E+01  1.478317792E+02 -2.871464135E+02  3.254751448E+02  3.814697266E-06  0.00000E+00  9.000E+00
#rwgt            1           1   3.0094564896173303E-002           8      150863           0
</event>
<event>
      5   9999  3.19816E-02  2.41224E+02 -1.00000E+00  1.08763E-01
      21    -1     0     0   502   501  0.000000000E+00  0.000000000E+00  7.272939430E+02  7.272939430E+02  0.000000000E+00  0.00000E+00  9.000E+00
      21    -1     0     0   511   502  0.000000000E+00  0.000000000E+00 -4.356976894E+02  4.356976894E+02  0.000000000E+00  0.00000E+00  9.000E+00
      25     1     1     2     0     0 -5.392549791E+01 -1.069281325E+02 -1.117608562E+01  1.734689878E+02  1.250000000E+02  0.00000E+00  9.000E+00
      25     1     1     2     0     0  1.975911411E+02 -8.684741043E+01  5.744183165E+02  6.262316936E+02  1.250000000E+02  0.00000E+00  9.000E+00
      21     1     1     2   511   501 -1.436656432E+02  1.937755429E+02 -2.716459773E+02  3.632909510E+02  5.394796609E-06  0.00000E+00  9.000E+00
#rwgt            1           1   2.9521959159853447E-002           8      150957           0
</event>
<event>
      5   9999  3.19816E-02  5.26078E+01 -1.00000E+00  1.37827E-01
      21    -1     0     0   512   501  0.000000000E+00  0.000000000E+00  1.969697679E+02  1.969697679E+02  0.000000000E+00  0.00000E+00  9.000E+00
      21    -1     0     0   501   502  0.000000000E+00  0.000000000E+00 -8.262741520E+02  8.262741520E+02  0.000000000E+00  0.00000E+00  9.000E+00
      25     1     1     2     0     0  2.155458294E+01 -3.345571679E+02 -4.972636512E+02  6.126085515E+02  1.250000000E+02  0.00000E+00  9.000E+00
      25     1     1     2     0     0  8.826345333E+00  2.916085655E+02 -1.550203575E+02  3.532276477E+02  1.250000000E+02  0.00000E+00  9.000E+00
      21     1     1     2   512   502 -3.038092827E+01  4.294860235E+01  2.297962452E+01  5.740772064E+01  1.118282261E-06  0.00000E+00  9.000E+00
#rwgt            1           1   2.8241411595966152E-002           8      151009           0
</event>
<event>
      5   9999  3.19816E-02  3.57273E+01 -1.00000E+00  1.47950E-01
      21    -1     0     0   502   501  0.000000000E+00  0.000000000E+00  8.088396070E+02  8.088396070E+02  0.000000000E+00  0.00000E+00  9.000E+00
      21    -1     0     0   501   511  0.000000000E+00  0.000000000E+00 -2.717000707E+03  2.717000707E+03  0.000000000E+00  0.00000E+00  9.000E+00
      25     1     1     2     0     0  1.246800765E+03  3.454230648E+02 -1.672991444E+02  1.310512588E+03  1.250000000E+02  0.00000E+00  9.000E+00
      25     1     1     2     0     0 -1.214317784E+03 -3.305469320E+02 -1.457425535E+03  1.929648451E+03  1.250000000E+02  0.00000E+00  9.000E+00
      21     1     1     2   502   511 -3.248298057E+01 -1.487613286E+01 -2.834364205E+02  2.856792744E+02  3.814697266E-06  0.00000E+00  9.000E+00
#rwgt            1           1   2.1715807953123702E-002           8      151157           0
</event>
<event>
      5   9999  3.19816E-02  5.60003E+01 -1.00000E+00  1.36324E-01
      21    -1     0     0   512   501  0.000000000E+00  0.000000000E+00  2.299215366E+03  2.299215366E+03  0.000000000E+00  0.00000E+00  9.000E+00
      21    -1     0     0   501   502  0.000000000E+00  0.000000000E+00 -4.260893862E+02  4.260893862E+02  0.000000000E+00  0.00000E+00  9.000E+00
      25     1     1     2     0     0  2.006686081E+02  1.645483267E+02 -3.635822797E+02  4.638546283E+02  1.250000000E+02  0.00000E+00  9.000E+00
      25     1     1     2     0     0 -1.517070296E+02 -1.917291373E+02  1.729943276E+03  1.751600360E+03  1.250000000E+02  0.00000E+00  9.000E+00
      21     1     1     2   512   502 -4.896157851E+01  2.718081052E+01  5.067649836E+02  5.098497634E+02  0.000000000E+00  0.00000E+00  9.000E+00
#rwgt            1           1   2.1739511378115743E-002           8      151344           0
</event>
<event>
      5   9999  3.19816E-02  2.77285E+02 -1.00000E+00  1.06715E-01
      21    -1     0     0   511   501  0.000000000E+00  0.000000000E+00  5.337070287E+02  5.337070287E+02  0.000000000E+00  0.00000E+00  9.000E+00
      21    -1     0     0   501   502  0.000000000E+00  0.000000000E+00 -1.921164611E+03  1.921164611E+03  0.000000000E+00  0.00000E+00  9.000E+00
      25     1     1     2     0     0 -5.779172421E+02 -8.352498527E+01 -6.373241233E+02  8.733680782E+02  1.250000000E+02  0.00000E+00  9.000E+00
      25     1     1     2     0     0  8.533120591E+02  5.120661961E+01 -9.153964799E+02  1.258705408E+03  1.250000000E+02  0.00000E+00  9.000E+00
      21     1     1     2   511   502 -2.753948169E+02  3.231836566E+01  1.652630210E+02  3.227981537E+02  3.814697266E-06  0.00000E+00  9.000E+00
#rwgt            1           1   3.3388454630594373E-002           8      151510           0
</event>
<event>
      5   9999  3.19816E-02  7.69086E+01 -1.00000E+00  1.29183E-01
      21    -1     0     0   502   501  0.000000000E+00  0.000000000E+00  1.881423862E+03  1.881423862E+03  0.000000000E+00  0.00000E+00  9.000E+00
      21    -1     0     0   512   502  0.000000000E+00  0.000000000E+00 -3.040585162E+02  3.040585162E+02  0.000000000E+00  0.00000E+00  9.000E+00
      25     1     1     2     0     0 -3.190775505E+02  2.432469612E+02  1.347740190E+03  1.411739419E+03  1.250000000E+02  0.00000E+00  9.000E+00
      25     1     1     2     0     0  3.455394273E+02 -1.710340460E+02  4.106964537E+02  5.770153532E+02  1.250000000E+02  0.00000E+00  9.000E+00
      21     1     1     2   512   501 -2.646187679E+01 -7.221291521E+01 -1.810712979E+02  1.967276060E+02  6.607249480E-06  0.00000E+00  9.000E+00
#rwgt            1           1   2.7364957259230726E-002           8      151567           0
</event>
<event>
      5   9999  3.19816E-02  3.93486E+01 -1.00000E+00  1.45284E-01
      21    -1     0     0   502   501  0.000000000E+00  0.000000000E+00  2.373752927E+02  2.373752927E+02  0.000000000E+00  0.00000E+00  9.000E+00
       2    -1     0     0   501     0  0.000000000E+00  0.000000000E+00 -1.973052056E+03  1.973052056E+03  0.000000000E+00  0.00000E+00  9.000E+00
      25     1     1     2     0     0 -2.093696309E+02  3.632044862E+02 -4.598198684E+01  4.398778060E+02  1.250000000E+02  0.00000E+00  9.000E+00
      25     1     1     2     0     0  1.771916386E+02 -3.405574782E+02 -9.819191458E+02  1.061680970E+03  1.250000000E+02  0.00000E+00  9.000E+00
       2     1     1     2   502     0  3.217799233E+01 -2.264700795E+01 -7.077756309E+02  7.088685730E+02  0.000000000E+00  0.00000E+00  9.000E+00
#rwgt            1           1   2.8963267660649963E-002           8      151641           0
</event>
<event>
      5   9999  3.19816E-02  8.08496E+00 -1.00000E+00  2.07072E-01
      21    -1     0     0   511   501  0.000000000E+00  0.000000000E+00  3.597398607E+02  3.597398607E+02  0.000000000E+00  0.00000E+00  9.000E+00
      21    -1     0     0   501   502  0.000000000E+00  0.000000000E+00 -3.462652362E+02  3.462652362E+02  0.000000000E+00  0.00000E+00  9.000E+00
      25     1     1     2     0     0 -8.841480392E+01  3.056101595E+02  4.306798984E+01  3.445208250E+02  1.250000000E+02  0.00000E+00  9.000E+00
      25     1     1     2     0     0  9.192459388E+01 -3.128935655E+02 -3.609002162E+01  3.511125232E+02  1.250000000E+02  0.00000E+00  9.000E+00
      21     1     1     2   511   502 -3.509789964E+00  7.283406012E+00  6.496656300E+00  1.037174873E+01  0.000000000E+00  0.00000E+00  9.000E+00
#rwgt            1           1   2.5281446047839565E-002           8      151782           0
</event>
<event>
      5   9999  3.19816E-02  1.13432E+02 -1.00000E+00  1.21415E-01
      21    -1     0     0   512   501  0.000000000E+00  0.000000000E+00  8.933700045E+02  8.933700045E+02  0.000000000E+00  0.00000E+00  9.000E+00
      21    -1     0     0   501   502  0.000000000E+00  0.000000000E+00 -5.640080631E+02  5.640080631E+02  0.000000000E+00  0.00000E+00  9.000E+00
      25     1     1     2     0     0  1.477332463E+02 -1.021516205E+02 -1.079337250E+02  2.439974480E+02  1.250000000E+02  0.00000E+00  9.000E+00
      25     1     1     2     0     0 -3.454969927E+01  1.096557611E+02 -3.652789264E+02  4.028296932E+02  1.250000000E+02  0.00000E+00  9.000E+00
      21     1     1     2   512   502 -1.131835470E+02 -7.504140604E+00  8.025745928E+02  8.105509265E+02  1.078959322E-05  0.00000E+00  9.000E+00
#rwgt            1           1   2.8537480435730671E-002           8      152025           0
</event>
<event>
      5   9999  3.19816E-02  1.44579E+01 -1.00000E+00  1.78903E-01
      21    -1     0     0   502   511  0.000000000E+00  0.000000000E+00  7.710536058E+02  7.710536058E+02  0.000000000E+00  0.00000E+00  9.000E+00
      21    -1     0     0   501   502  0.000000000E+00  0.000000000E+00 -1.996059682E+02  1.996059682E+02  0.000000000E+00  0.00000E+00  9.000E+00
      25     1     1     2     0     0 -1.175023666E+02  2.907999363E+02  1.443876627E+02  3.672113918E+02  1.250000000E+02  0.00000E+00  9.000E+00
      25     1     1     2     0     0  1.319535182E+02 -2.912404964E+02  2.472853709E+02  4.230931486E+02  1.250000000E+02  0.00000E+00  9.000E+00
      21     1     1     2   501   511 -1.445115167E+01  4.405601043E-01  1.797746040E+02  1.803550335E+02  1.907348633E-06  0.00000E+00  9.000E+00
#rwgt            1           1   2.7052540959751441E-002           8      152102           0
</event>
<event>
      5   9999  3.19816E-02  4.90017E+01 -1.00000E+00  1.39577E-01
      21    -1     0     0   502   501  0.000000000E+00  0.000000000E+00  7.365707241E+02  7.365707241E+02  0.000000000E+00  0.00000E+00  9.000E+00
      21    -1     0     0   512   502  0.000000000E+00  0.000000000E+00 -2.265049992E+02  2.265049992E+02  0.000000000E+00  0.00000E+00  9.000E+00
      25     1     1     2     0     0 -9.666830119E+01 -8.137332430E+01  1.733698583E+01  1.785831723E+02  1.250000000E+02  0.00000E+00  9.000E+00
      25     1     1     2     0     0  1.223984169E+02  1.230761164E+02  6.158706598E+02  6.519591801E+02  1.250000000E+02  0.00000E+00  9.000E+00
      21     1     1     2   512   501 -2.573011568E+01 -4.170279215E+01 -1.231419208E+02  1.325333709E+02  2.336015456E-06  0.00000E+00  9.000E+00
#rwgt            1           1   2.7306424625305595E-002           8      152240           0
</event>
<event>
      5   9999  3.19816E-02  2.63586E+01 -1.00000E+00  1.57049E-01
      21    -1     0     0   511   501  0.000000000E+00  0.000000000E+00  8.956841880E+02  8.956841880E+02  0.000000000E+00  0.00000E+00  9.000E+00
      21    -1     0     0   501   502  0.000000000E+00  0.000000000E+00 -1.955539056E+03  1.955539056E+03  0.000000000E+00  0.00000E+00  9.000E+00
      25     1     1     2     0     0 -1.661807818E+02 -1.030406842E+03 -1.387147944E+03  1.740447854E+03  1.250000000E+02  0.00000E+00  9.000E+00
      25     1     1     2     0     0  1.831943035E+02  1.010274400E+03  3.255748001E+02  1.084360856E+03  1.250000000E+02  0.00000E+00  9.000E+00
      21     1     1     2   511   502 -1.701352164E+01  2.013244200E+01  1.718275770E+00  2.641453409E+01  3.298512641E-07  0.00000E+00  9.000E+00
#rwgt            1           1   7.2881789003536285E-002           8      152326           0
</event>
<event>
      5   9999  3.19816E-02  1.28239E+02 -1.00000E+00  1.19157E-01
      21    -1     0     0   502   501  0.000000000E+00  0.000000000E+00  5.920168931E+02  5.920168931E+02  0.000000000E+00  0.00000E+00  9.000E+00
      21    -1     0     0   501   512  0.000000000E+00  0.000000000E+00 -5.236601829E+02  5.236601829E+02  0.000000000E+00  0.00000E+00  9.000E+00
      25     1     1     2     0     0 -3.770086054E+02 -1.897524667E+02 -7.408825785E+01  4.463805071E+02  1.250000000E+02  0.00000E+00  9.000E+00
      25     1     1     2     0     0  2.587578963E+02  1.401345727E+02  3.186323207E+02  4.513811063E+02  1.250000000E+02  0.00000E+00  9.000E+00
      21     1     1     2   502   512  1.182507091E+02  4.961789400E+01 -1.761873527E+02  2.179154626E+02  2.697398305E-06  0.00000E+00  9.000E+00
#rwgt            1           1   2.8543103924018133E-002           8      152493           0
</event>
<event>
      5   9999  3.19816E-02  7.68997E+01 -1.00000E+00  1.29186E-01
      21    -1     0     0   511   501  0.000000000E+00  0.000000000E+00  1.432681582E+02  1.432681582E+02  0.000000000E+00  0.00000E+00  9.000E+00
      21    -1     0     0   501   502  0.000000000E+00  0.000000000E+00 -5.156311671E+02  5.156311671E+02  0.000000000E+00  0.00000E+00  9.000E+00
      25     1     1     2     0     0 -1.010890533E+02  2.416664050E+01  4.532575759E+01  1.687674362E+02  1.250000000E+02  0.00000E+00  9.000E+00
      25     1     1     2     0     0  3.340786320E+01  1.234123739E+01 -3.854032538E+02  4.067297131E+02  1.250000000E+02  0.00000E+00  9.000E+00
      21     1     1     2   511   502  6.768119011E+01 -3.650787790E+01 -3.228551277E+01  8.340217610E+01  1.430511475E-06  0.00000E+00  9.000E+00
#rwgt            1           1   2.9289311965717515E-002           8      152572           0
</event>
<event>
      5   9999  3.19816E-02  3.28282E+02 -1.00000E+00  1.04336E-01
      -3    -1     0     0     0   501  0.000000000E+00  0.000000000E+00  7.783726007E+02  7.783726007E+02  0.000000000E+00  0.00000E+00  9.000E+00
      21    -1     0     0   501   502  0.000000000E+00  0.000000000E+00 -4.199212534E+02  4.199212534E+02  0.000000000E+00  0.00000E+00  9.000E+00
      25     1     1     2     0     0 -5.178951683E+01 -4.663996724E+02  4.231933145E+02  6.441493538E+02  1.250000000E+02  0.00000E+00  9.000E+00
      25     1     1     2     0     0  8.420969298E+00  1.409952899E+02 -1.166681069E+02  2.217814953E+02  1.250000000E+02  0.00000E+00  9.000E+00
      -3     1     1     2     0   502  4.336854754E+01  3.254043825E+02  5.192613966E+01  3.323630050E+02  3.932099939E-06  0.00000E+00  9.000E+00
#rwgt            2           3   2.6782935146615047E-005           8      152636           0
</event>
<event>
      5   9999  3.19816E-02  4.51764E+01 -1.00000E+00  1.41637E-01
      21    -1     0     0   502   501  0.000000000E+00  0.000000000E+00  9.960449321E+02  9.960449321E+02  0.000000000E+00  0.00000E+00  9.000E+00
      21    -1     0     0   511   502  0.000000000E+00  0.000000000E+00 -1.250848459E+02  1.250848459E+02  0.000000000E+00  0.00000E+00  9.000E+00
      25     1     1     2     0     0  7.975023322E+01 -8.473386510E+01  6.382388527E+00  1.708966427E+02  1.250000000E+02  0.00000E+00  9.000E+00
      25     1     1     2     0     0 -5.019980920E+01  1.189051402E+02  8.832572710E+02  9.013472472E+02  1.250000000E+02  0.00000E+00  9.000E+00
      21     1     1     2   511   501 -2.955042401E+01 -3.417127510E+01 -1.867957338E+01  4.888588818E+01  1.011524364E-06  0.00000E+00  9.000E+00
#rwgt            1           1   2.6597893960080322E-002           8      152655           0
</event>
<event>
      5   9999  3.19816E-02  1.84487E+01 -1.00000E+00  1.69315E-01
      21    -1     0     0   502   512  0.000000000E+00  0.000000000E+00  2.715406261E+02  2.715406261E+02  0.000000000E+00  0.00000E+00  9.000E+00
      21    -1     0     0   501   502  0.000000000E+00  0.000000000E+00 -1.861304663E+03  1.861304663E+03  0.000000000E+00  0.00000E+00  9.000E+00
      25     1     1     2     0     0  2.355825858E+02 -1.040067955E+02 -7.455525552E+01  2.958040811E+02  1.250000000E+02  0.00000E+00  9.000E+00
      25     1     1     2     0     0 -2.417154671E+02  1.214062493E+02 -1.662300757E+03  1.688796806E+03  1.250000000E+02  0.00000E+00  9.000E+00
      21     1     1     2   501   512  6.132881208E+00 -1.739945380E+01  1.470919761E+02  1.482444018E+02  1.907348633E-06  0.00000E+00  9.000E+00
#rwgt            1           1   2.6043471587432299E-002           8      152701           0
</event>
<event>
      5   9999  3.19816E-02  1.05834E+02 -1.00000E+00  1.22730E-01
      21    -1     0     0   502   501  0.000000000E+00  0.000000000E+00  8.795214400E+01  8.795214400E+01  0.000000000E+00  0.00000E+00  9.000E+00
       2    -1     0     0   501     0  0.000000000E+00  0.000000000E+00 -1.425007985E+03  1.425007985E+03  0.000000000E+00  0.00000E+00  9.000E+00
      25     1     1     2     0     0 -6.179847359E+01  2.732000724E+02 -7.532283020E+02  8.132866689E+02  1.250000000E+02  0.00000E+00  9.000E+00
      25     1     1     2     0     0  1.314631608E+02 -1.935284798E+02 -3.214960143E+02  4.167979395E+02  1.250000000E+02  0.00000E+00  9.000E+00
       2     1     1     2   502     0 -6.966468718E+01 -7.967159261E+01 -2.623315248E+02  2.828755207E+02  0.000000000E+00  0.00000E+00  9.000E+00
#rwgt            1           1   2.7037173436890279E-002           8      152880           0
</event>
<event>
      5   9999  3.19816E-02  4.85900E+01 -1.00000E+00  1.39788E-01
      21    -1     0     0   511   501  0.000000000E+00  0.000000000E+00  6.324183219E+01  6.324183219E+01  0.000000000E+00  0.00000E+00  9.000E+00
      21    -1     0     0   501   502  0.000000000E+00  0.000000000E+00 -2.488058863E+03  2.488058863E+03  0.000000000E+00  0.00000E+00  9.000E+00
      25     1     1     2     0     0 -2.618306504E+01  3.189741740E+02 -1.165615310E+03  1.215201270E+03  1.250000000E+02  0.00000E+00  9.000E+00
      25     1     1     2     0     0 -8.869261219E+00 -2.853242163E+02 -1.247886607E+03  1.286209375E+03  1.250000000E+02  0.00000E+00  9.000E+00
      21     1     1     2   511   502  3.505232626E+01 -3.364995774E+01 -1.131511317E+01  4.989004929E+01  1.215700987E-06  0.00000E+00  9.000E+00
#rwgt            1           1   6.9726244221332820E-002           8      152955           0
</event>
<event>
      5   9999  3.19816E-02  3.11675E+01 -1.00000E+00  1.51897E-01
      21    -1     0     0   502   501  0.000000000E+00  0.000000000E+00  1.902507693E+02  1.902507693E+02  0.000000000E+00  0.00000E+00  9.000E+00
      21    -1     0     0   501   512  0.000000000E+00  0.000000000E+00 -6.752650734E+02  6.752650734E+02  0.000000000E+00  0.00000E+00  9.000E+00
      25     1     1     2     0     0 -2.452358813E+02  1.632733656E+02 -1.139180941E+02  3.397074647E+02  1.250000000E+02  0.00000E+00  9.000E+00
      25     1     1     2     0     0  2.477318153E+02 -1.943407237E+02 -3.203151727E+02  4.662254595E+02  1.250000000E+02  0.00000E+00  9.000E+00
      21     1     1     2   502   512 -2.495934042E+00  3.106735811E+01 -5.078103728E+01  5.958291848E+01  9.536743164E-07  0.00000E+00  9.000E+00
#rwgt            1           1   2.3918787195041445E-002           8      153024           0
</event>
<event>
      5   9999  3.19816E-02  2.88658E+02 -1.00000E+00  1.06139E-01
      21    -1     0     0   502   501  0.000000000E+00  0.000000000E+00  4.006160809E+02  4.006160809E+02  0.000000000E+00  0.00000E+00  9.000E+00
       2    -1     0     0   501     0  0.000000000E+00  0.000000000E+00 -1.237243021E+03  1.237243021E+03  0.000000000E+00  0.00000E+00  9.000E+00
      25     1     1     2     0     0 -8.132452552E+01  5.903447863E+02 -5.195353337E+02  8.004140230E+02  1.250000000E+02  0.00000E+00  9.000E+00
      25     1     1     2     0     0 -1.252456692E+02 -3.887207569E+02 -2.660962191E+01  4.279291723E+02  1.250000000E+02  0.00000E+00  9.000E+00
       2     1     1     2   502     0  2.065701947E+02 -2.016240293E+02 -2.904819845E+02  4.095159067E+02  0.000000000E+00  0.00000E+00  9.000E+00
#rwgt            1           1   2.8742593363733363E-002           8      153110           0
</event>
<event>
      5   9999  3.19816E-02  9.37869E+02 -1.00000E+00  9.16649E-02
      21    -1     0     0   502   501  0.000000000E+00  0.000000000E+00  2.080924397E+03  2.080924397E+03  0.000000000E+00  0.00000E+00  9.000E+00
      21    -1     0     0   511   502  0.000000000E+00  0.000000000E+00 -2.167892331E+03  2.167892331E+03  0.000000000E+00  0.00000E+00  9.000E+00
      25     1     1     2     0     0  3.899804885E+02 -1.056486175E+03  1.437897453E+03  1.830688916E+03  1.250000000E+02  0.00000E+00  9.000E+00
      25     1     1     2     0     0 -7.071166940E+02  1.738629295E+02 -1.230281989E+03  1.435082266E+03  1.250000000E+02  0.00000E+00  9.000E+00
      21     1     1     2   511   501  3.171362055E+02  8.826232459E+02 -2.945833984E+02  9.830455460E+02  1.321449896E-05  0.00000E+00  9.000E+00
#rwgt            1           1   3.7184863043097080E-002           8      153151           0
</event>
<event>
      5   9999  3.19816E-02  1.66892E+01 -1.00000E+00  1.73126E-01
      21    -1     0     0   502   512  0.000000000E+00  0.000000000E+00  4.021440110E+02  4.021440110E+02  0.000000000E+00  0.00000E+00  9.000E+00
      21    -1     0     0   501   502  0.000000000E+00  0.000000000E+00 -2.884010194E+02  2.884010194E+02  0.000000000E+00  0.00000E+00  9.000E+00
      25     1     1     2     0     0 -2.597961040E+02 -9.611577049E+00 -9.137715516E+01  3.025907840E+02  1.250000000E+02  0.00000E+00  9.000E+00
      25     1     1     2     0     0  2.750506381E+02  2.841873552E+00  1.644452634E+02  3.439886254E+02  1.250000000E+02  0.00000E+00  9.000E+00
      21     1     1     2   501   512 -1.525453410E+01  6.769703497E+00  4.067488336E+01  4.396562103E+01  6.743495762E-07  0.00000E+00  9.000E+00
#rwgt            1           1   2.5582107767017543E-002           8      153181           0
</event>
<event>
      5   9999  3.19816E-02  5.90222E+01 -1.00000E+00  1.35086E-01
      21    -1     0     0   511   501  0.000000000E+00  0.000000000E+00  5.351594050E+02  5.351594050E+02  0.000000000E+00  0.00000E+00  9.000E+00
      21    -1     0     0   501   502  0.000000000E+00  0.000000000E+00 -7.225910769E+02  7.225910769E+02  0.000000000E+00  0.00000E+00  9.000E+00
      25     1     1     2     0     0  4.993286690E+02  2.646237045E+02 -1.218748835E+02  5.914670844E+02  1.250000000E+02  0.00000E+00  9.000E+00
      25     1     1     2     0     0 -4.403465792E+02 -2.624482085E+02 -1.630960965E+02  5.522766595E+02  1.250000000E+02  0.00000E+00  9.000E+00
      21     1     1     2   511   502 -5.898208979E+01 -2.175496013E+00  9.753930808E+01  1.140067380E+02  1.348699152E-06  0.00000E+00  9.000E+00
#rwgt            1           1   3.1103052414072501E-002           8      153428           0
</event>
<event>
      5   9999  3.19816E-02  1.80999E+01 -1.00000E+00  1.70027E-01
      21    -1     0     0   502   501  0.000000000E+00  0.000000000E+00  5.110633689E+02  5.110633689E+02  0.000000000E+00  0.00000E+00  9.000E+00
      21    -1     0     0   501   512  0.000000000E+00  0.000000000E+00 -5.112718959E+02  5.112718959E+02  0.000000000E+00  0.00000E+00  9.000E+00
      25     1     1     2     0     0  3.909181515E+02 -2.714694261E+02  6.305479940E+01  4.960983352E+02  1.250000000E+02  0.00000E+00  9.000E+00
      25     1     1     2     0     0 -3.910495923E+02  2.895688963E+02 -5.236916609E+01  5.051113331E+02  1.250000000E+02  0.00000E+00  9.000E+00
      21     1     1     2   502   512  1.314408249E-01 -1.809947017E+01 -1.089416025E+01  2.112559643E+01  4.616955931E-07  0.00000E+00  9.000E+00
#rwgt            1           1   3.1885716445403278E-002           8      153560           0
</event>
<event>
      5   9999  3.19816E-02  3.39800E+01 -1.00000E+00  1.49375E-01
      21    -1     0     0   502   501  0.000000000E+00  0.000000000E+00  6.284567668E+02  6.284567668E+02  0.000000000E+00  0.00000E+00  9.000E+00
      21    -1     0     0   511   502  0.000000000E+00  0.000000000E+00 -2.919459570E+02  2.919459570E+02  0.000000000E+00  0.00000E+00  9.000E+00
      25     1     1     2     0     0 -3.026313251E+02  2.371972878E+02  2.956446117E+02  5.008782374E+02  1.250000000E+02  0.00000E+00  9.000E+00
      25     1     1     2     0     0  2.701587570E+02 -2.271886474E+02  6.191850351E+01  3.795514940E+02  1.250000000E+02  0.00000E+00  9.000E+00
      21     1     1     2   511   501  3.247256801E+01 -1.000864042E+01 -2.105230543E+01  3.997299238E+01  4.129530925E-07  0.00000E+00  9.000E+00
#rwgt            1           1   2.8604263573458039E-002           8      153800           0
</event>
<event>
      5   9999  3.19816E-02  2.26228E+01 -1.00000E+00  1.62071E-01
      21    -1     0     0   502   501  0.000000000E+00  0.000000000E+00  3.642065571E+02  3.642065571E+02  0.000000000E+00  0.00000E+00  9.000E+00
      21    -1     0     0   512   502  0.000000000E+00  0.000000000E+00 -3.002481307E+02  3.002481307E+02  0.000000000E+00  0.00000E+00  9.000E+00
      25     1     1     2     0     0 -1.386712119E+02  1.257789604E+00 -5.360717611E+00  1.867753311E+02  1.250000000E+02  0.00000E+00  9.000E+00
      25     1     1     2     0     0  1.264484333E+02  1.777882872E+01  2.435026778E+02  3.020328577E+02  1.250000000E+02  0.00000E+00  9.000E+00
      21     1     1     2   512   501  1.222277856E+01 -1.903661832E+01 -1.741835338E+02  1.756464989E+02  1.907348633E-06  0.00000E+00  9.000E+00
#rwgt            1           1   2.8161569587511624E-002           8      153962           0
</event>
<event>
      5   9999  3.19816E-02  4.65600E+01 -1.00000E+00  1.40865E-01
      21    -1     0     0   502   501  0.000000000E+00  0.000000000E+00  7.137342107E+02  7.137342107E+02  0.000000000E+00  0.00000E+00  9.000E+00
      21    -1     0     0   501   511  0.000000000E+00  0.000000000E+00 -8.664681891E+02  8.664681891E+02  0.000000000E+00  0.00000E+00  9.000E+00
      25     1     1     2     0     0 -9.160529361E+01 -1.115536651E+02 -8.076459011E+02  8.299112311E+02  1.250000000E+02  0.00000E+00  9.000E+00
      25     1     1     2     0     0  1.300500611E+02  1.378182744E+02  6.649762379E+02  7.026558846E+02  1.250000000E+02  0.00000E+00  9.000E+00
      21     1     1     2   502   511 -3.844476745E+01 -2.626460934E+01 -1.006431522E+01  4.763528408E+01  6.078504936E-07  0.00000E+00  9.000E+00
#rwgt            1           1   3.2123569866312977E-002           8      154098           0
</event>
<event>
      5   9999  3.19816E-02  1.41864E+02 -1.00000E+00  1.17362E-01
      21    -1     0     0   502   512  0.000000000E+00  0.000000000E+00  1.204478332E+03  1.204478332E+03  0.000000000E+00  0.00000E+00  9.000E+00
      21    -1     0     0   501   502  0.000000000E+00  0.000000000E+00 -3.910599162E+02  3.910599162E+02  0.000000000E+00  0.00000E+00  9.000E+00
      25     1     1     2     0     0 -3.721290886E+02  2.754196844E+02 -1.156974606E+02  4.933021017E+02  1.250000000E+02  0.00000E+00  9.000E+00
      25     1     1     2     0     0  2.491296747E+02 -2.047341217E+02  3.015805805E+02  4.588654508E+02  1.250000000E+02  0.00000E+00  9.000E+00
      21     1     1     2   501   512  1.229994139E+02 -7.068556265E+01  6.275352957E+02  6.433706956E+02  7.629394531E-06  0.00000E+00  9.000E+00
#rwgt            2          11   2.1728435635925258E-003           8      154341           0
</event>
<event>
      5   9999  3.19816E-02  2.73478E+01 -1.00000E+00  1.55885E-01
      21    -1     0     0   502   501  0.000000000E+00  0.000000000E+00  1.049343057E+03  1.049343057E+03  0.000000000E+00  0.00000E+00  9.000E+00
      21    -1     0     0   501   511  0.000000000E+00  0.000000000E+00 -3.572886861E+02  3.572886861E+02  0.000000000E+00  0.00000E+00  9.000E+00
      25     1     1     2     0     0  2.003160709E+02 -1.561956981E+02 -4.505798893E+01  2.866685311E+02  1.250000000E+02  0.00000E+00  9.000E+00
      25     1     1     2     0     0 -2.084499129E+02  1.300855300E+02  9.069579387E+02  9.479300153E+02  1.250000000E+02  0.00000E+00  9.000E+00
      21     1     1     2   502   511  8.133842067E+00  2.611016814E+01 -1.698455787E+02  1.720331970E+02  3.303624740E-06  0.00000E+00  9.000E+00
#rwgt            1           1   2.7848353379027146E-002           8      154361           0
</event>
<event>
      5   9999  3.19816E-02  3.86287E+01 -1.00000E+00  1.45786E-01
      21    -1     0     0   502   512  0.000000000E+00  0.000000000E+00  1.876867007E+02  1.876867007E+02  0.000000000E+00  0.00000E+00  9.000E+00
      21    -1     0     0   501   502  0.000000000E+00  0.000000000E+00 -5.324302866E+02  5.324302866E+02  0.000000000E+00  0.00000E+00  9.000E+00
      25     1     1     2     0     0  4.735282012E+01 -1.208050466E+02 -4.341186756E+02  4.700214605E+02  1.250000000E+02  0.00000E+00  9.000E+00
      25     1     1     2     0     0 -8.492017008E+01  1.118120223E+02  4.910324563E+01  1.942922859E+02  1.250000000E+02  0.00000E+00  9.000E+00
      21     1     1     2   501   512  3.756734996E+01  8.993024267E+00  4.027184403E+01  5.580324086E+01  9.536743164E-07  0.00000E+00  9.000E+00
#rwgt            1           1   2.7132608222883599E-002           8      154532           0
</event>
<event>
      5   9999  3.19816E-02  4.21259E+01 -1.00000E+00  1.43459E-01
      21    -1     0     0   502   501  0.000000000E+00  0.000000000E+00  3.157633689E+02  3.157633689E+02  0.000000000E+00  0.00000E+00  9.000E+00
      21    -1     0     0   511   502  0.000000000E+00  0.000000000E+00 -7.003716626E+02  7.003716626E+02  0.000000000E+00  0.00000E+00  9.000E+00
      25     1     1     2     0     0  1.517616975E+02  3.525737046E+02 -4.729251129E-01  4.036893034E+02  1.250000000E+02  0.00000E+00  9.000E+00
      25     1     1     2     0     0 -1.897929479E+02 -3.706905051E+02 -3.530773714E+02  5.601084216E+02  1.250000000E+02  0.00000E+00  9.000E+00
      21     1     1     2   511   501  3.803125038E+01  1.811680054E+01 -3.105799717E+01  5.233730654E+01  0.000000000E+00  0.00000E+00  9.000E+00
#rwgt            1           1   2.9249397817343755E-002           8      154609           0
</event>
<event>
      5   9999  3.19816E-02  6.43947E+01 -1.00000E+00  1.33083E-01
      21    -1     0     0   502   512  0.000000000E+00  0.000000000E+00  7.770255493E+01  7.770255493E+01  0.000000000E+00  0.00000E+00  9.000E+00
      21    -1     0     0   501   502  0.000000000E+00  0.000000000E+00 -2.361887312E+03  2.361887312E+03  0.000000000E+00  0.00000E+00  9.000E+00
      25     1     1     2     0     0 -6.498162342E+01 -5.047382868E+01 -7.470525072E+02  7.618941313E+02  1.250000000E+02  0.00000E+00  9.000E+00
      25     1     1     2     0     0  8.963866310E+01  1.099608207E+02 -1.585766296E+03  1.596999129E+03  1.250000000E+02  0.00000E+00  9.000E+00
      21     1     1     2   501   512 -2.465703968E+01 -5.948699203E+01  4.863404643E+01  8.069660649E+01  1.168007728E-06  0.00000E+00  9.000E+00
#rwgt            1           1   3.4301261862847814E-002           8      154740           0
</event>
<event>
      5   9999  3.19816E-02  2.01837E+01 -1.00000E+00  1.66042E-01
      21    -1     0     0   502   501  0.000000000E+00  0.000000000E+00  5.074404275E+02  5.074404275E+02  0.000000000E+00  0.00000E+00  9.000E+00
      21    -1     0     0   511   502  0.000000000E+00  0.000000000E+00 -1.142246213E+03  1.142246213E+03  0.000000000E+00  0.00000E+00  9.000E+00
      25     1     1     2     0     0 -9.788422809E+01  2.689525408E+02  4.019402443E+02  5.090164548E+02  1.250000000E+02  0.00000E+00  9.000E+00
      25     1     1     2     0     0  1.010551928E+02 -2.888856028E+02 -4.758888589E+02  5.794499543E+02  1.250000000E+02  0.00000E+00  9.000E+00
      21     1     1     2   511   501 -3.170964691E+00  1.993306196E+01 -5.608571704E+02  5.612202309E+02  0.000000000E+00  0.00000E+00  9.000E+00
#rwgt            1           1   3.0629192019734599E-002           8      154794           0
</event>
<event>
      5   9999  3.19816E-02  1.71556E+01 -1.00000E+00  1.72061E-01
      21    -1     0     0   512   501  0.000000000E+00  0.000000000E+00  1.049327953E+03  1.049327953E+03  0.000000000E+00  0.00000E+00  9.000E+00
      21    -1     0     0   501   502  0.000000000E+00  0.000000000E+00 -6.019633085E+01  6.019633085E+01  0.000000000E+00  0.00000E+00  9.000E+00
      25     1     1     2     0     0 -1.253884747E+02 -6.320916462E+01  1.398368496E+02  2.343011152E+02  1.250000000E+02  0.00000E+00  9.000E+00
      25     1     1     2     0     0  1.224476795E+02  8.011082885E+01  7.412502551E+02  7.658251236E+02  1.250000000E+02  0.00000E+00  9.000E+00
      21     1     1     2   512   502  2.940795206E+00 -1.690166423E+01  1.080445177E+02  1.093980453E+02  1.348699152E-06  0.00000E+00  9.000E+00
#rwgt            1           1   2.5300400703733059E-002           8      154934           0
</event>
<event>
      5   9999  3.19816E-02  3.39988E+01 -1.00000E+00  1.49359E-01
      21    -1     0     0   502   511  0.000000000E+00  0.000000000E+00  4.501708189E+02  4.501708189E+02  0.000000000E+00  0.00000E+00  9.000E+00
      21    -1     0     0   501   502  0.000000000E+00  0.000000000E+00 -1.386167824E+03  1.386167824E+03  0.000000000E+00  0.00000E+00  9.000E+00
      25     1     1     2     0     0 -2.742856804E+01  1.465657007E+02  6.856508934E+01  2.063007572E+02  1.250000000E+02  0.00000E+00  9.000E+00
      25     1     1     2     0     0  5.827559974E+01 -1.322695371E+02 -1.309419891E+03  1.323290114E+03  1.250000000E+02  0.00000E+00  9.000E+00
      21     1     1     2   501   511 -3.084703169E+01 -1.429616362E+01  3.048577961E+02  3.067477718E+02  0.000000000E+00  0.00000E+00  9.000E+00
#rwgt            1           1   3.5531901022048860E-002           8      155053           0
</event>
<event>
      5   9999  3.19816E-02  1.76386E+01 -1.00000E+00  1.71001E-01
       1    -1     0     0   502     0  0.000000000E+00  0.000000000E+00  1.120431976E+03  1.120431976E+03  0.000000000E+00  0.00000E+00  9.000E+00
      21    -1     0     0   501   502  0.000000000E+00  0.000000000E+00 -8.734355726E+02  8.734355726E+02  0.000000000E+00  0.00000E+00  9.000E+00
      25     1     1     2     0     0  1.796669455E+02  3.106618258E+02 -6.311465714E+02  7.367238125E+02  1.250000000E+02  0.00000E+00  9.000E+00
      25     1     1     2     0     0 -1.841749574E+02 -3.277146145E+02  1.773626679E+01  3.965562490E+02  1.250000000E+02  0.00000E+00  9.000E+00
       1     1     1     2   501     0  4.508011845E+00  1.705278871E+01  8.604067077E+02  8.605874868E+02  0.000000000E+00  0.00000E+00  9.000E+00
#rwgt            1           1   2.7806690382346844E-002           8      155178           0
</event>
<event>
      5   9999  3.19816E-02  4.39626E+01 -1.00000E+00  1.42341E-01
      21    -1     0     0   502   511  0.000000000E+00  0.000000000E+00  1.146939286E+03  1.146939286E+03  0.000000000E+00  0.00000E+00  9.000E+00
      21    -1     0     0   501   502  0.000000000E+00  0.000000000E+00 -4.620325474E+02  4.620325474E+02  0.000000000E+00  0.00000E+00  9.000E+00
      25     1     1     2     0     0 -2.036919913E+02 -6.371382873E+02  1.613554722E+02  6.993541398E+02  1.250000000E+02  0.00000E+00  9.000E+00
      25     1     1     2     0     0  1.604180029E+02  6.448888461E+02  4.172087137E+02  7.945462040E+02  1.250000000E+02  0.00000E+00  9.000E+00
      21     1     1     2   501   511  4.327398837E+01 -7.750558868E+00  1.063425527E+02  1.150714898E+02  1.907348633E-06  0.00000E+00  9.000E+00
#rwgt            1           1   3.1050526962895876E-002           8      155341           0
</event>
<event>
      5   9999  3.19816E-02  5.17774E+01 -1.00000E+00  1.38215E-01
      21    -1     0     0   502   512  0.000000000E+00  0.000000000E+00  1.838020153E+02  1.838020153E+02  0.000000000E+00  0.00000E+00  9.000E+00
      21    -1     0     0   501   502  0.000000000E+00  0.000000000E+00 -8.981345551E+02  8.981345551E+02  0.000000000E+00  0.00000E+00  9.000E+00
      25     1     1     2     0     0  9.450441650E+00 -2.193959327E+02 -1.605224251E+02  2.993598755E+02  1.250000000E+02  0.00000E+00  9.000E+00
      25     1     1     2     0     0  2.175463975E+01  2.607134886E+02 -6.282325644E+02  6.919146931E+02  1.250000000E+02  0.00000E+00  9.000E+00
      21     1     1     2   501   512 -3.120508140E+01 -4.131755593E+01  7.442244979E+01  9.066200177E+01  9.536743164E-07  0.00000E+00  9.000E+00
#rwgt            1           1   2.9690562420909491E-002           8      155486           0
</event>
<event>
      5   9999  3.19816E-02  1.85656E+02 -1.00000E+00  1.12837E-01
      21    -1     0     0   502   501  0.000000000E+00  0.000000000E+00  5.694282862E+02  5.694282862E+02  0.000000000E+00  0.00000E+00  9.000E+00
      21    -1     0     0   501   511  0.000000000E+00  0.000000000E+00 -2.037477847E+02  2.037477847E+02  0.000000000E+00  0.00000E+00  9.000E+00
      25     1     1     2     0     0 -1.796598555E+02  1.400327120E+02  3.700348952E+02  4.521478163E+02  1.250000000E+02  0.00000E+00  9.000E+00
      25     1     1     2     0     0  5.103353776E+01 -6.154671801E+00  3.566143937E+00  1.352036218E+02  1.250000000E+02  0.00000E+00  9.000E+00
      21     1     1     2   502   511  1.286263177E+02 -1.338780402E+02 -7.920537607E+00  1.858246328E+02  3.396941864E-06  0.00000E+00  9.000E+00
#rwgt            1           1   2.6096554010684204E-002           8      155576           0
</event>
<event>
      5   9999  3.19816E-02  7.54428E+01 -1.00000E+00  1.29595E-01
      21    -1     0     0   502   501  0.000000000E+00  0.000000000E+00  8.915234407E+02  8.915234407E+02  0.000000000E+00  0.00000E+00  9.000E+00
      21    -1     0     0   512   502  0.000000000E+00  0.000000000E+00 -6.551137046E+02  6.551137046E+02  0.000000000E+00  0.00000E+00  9.000E+00
      25     1     1     2     0     0 -7.048802685E+01 -1.710684633E+02  8.281593254E+02  8.577329709E+02  1.250000000E+02  0.00000E+00  9.000E+00
      25     1     1     2     0     0  1.212141687E+01  2.188696455E+02 -3.236747845E+02  4.104159069E+02  1.250000000E+02  0.00000E+00  9.000E+00
      21     1     1     2   512   501  5.836660998E+01 -4.780118224E+01 -2.680748047E+02  2.784882675E+02  5.394796609E-06  0.00000E+00  9.000E+00
#rwgt            1           1   3.0211660887365769E-002           8      155711           0
</event>
<event>
      5   9999  3.19816E-02  1.45074E+02 -1.00000E+00  1.16971E-01
       1    -1     0     0   502     0  0.000000000E+00  0.000000000E+00  2.823445702E+03  2.823445702E+03  0.000000000E+00  0.00000E+00  9.000E+00
      21    -1     0     0   501   502  0.000000000E+00  0.000000000E+00 -4.668500062E+02  4.668500062E+02  0.000000000E+00  0.00000E+00  9.000E+00
      25     1     1     2     0     0  1.846692502E+02  3.375459823E+02 -2.706761028E+02  4.867551487E+02  1.250000000E+02  0.00000E+00  9.000E+00
      25     1     1     2     0     0 -3.181751497E+02 -3.943142333E+02  7.119514357E+02  8.827338145E+02  1.250000000E+02  0.00000E+00  9.000E+00
       1     1     1     2   501     0  1.335058995E+02  5.676825097E+01  1.915320363E+03  1.920806745E+03  2.157918644E-05  0.00000E+00  9.000E+00
#rwgt            1           1   2.9027771936715192E-002           8      155806           0
</event>
<event>
      5   9999  3.19816E-02  3.91288E+01 -1.00000E+00  1.45436E-01
      21    -1     0     0   511   501  0.000000000E+00  0.000000000E+00  1.115210928E+03  1.115210928E+03  0.000000000E+00  0.00000E+00  9.000E+00
      21    -1     0     0   501   502  0.000000000E+00  0.000000000E+00 -7.551619177E+01  7.551619177E+01  0.000000000E+00  0.00000E+00  9.000E+00
      25     1     1     2     0     0  1.874646655E+01  5.505207703E+00  2.261450655E+02  2.591299442E+02  1.250000000E+02  0.00000E+00  9.000E+00
      25     1     1     2     0     0 -3.324799971E+01  3.083712378E+01  1.696162917E+01  1.340487022E+02  1.250000000E+02  0.00000E+00  9.000E+00
      21     1     1     2   511   502  1.450153316E+01 -3.634233148E+01  7.965880413E+02  7.975484732E+02  0.000000000E+00  0.00000E+00  9.000E+00
#rwgt            1           1   6.1444492233626725E-002           8      155887           0
</event>
<event>
      5   9999  3.19816E-02  2.16218E+01 -1.00000E+00  1.63623E-01
      21    -1     0     0   502   501  0.000000000E+00  0.000000000E+00  1.772615671E+02  1.772615671E+02  0.000000000E+00  0.00000E+00  9.000E+00
      21    -1     0     0   512   502  0.000000000E+00  0.000000000E+00 -1.288236047E+03  1.288236047E+03  0.000000000E+00  0.00000E+00  9.000E+00
      25     1     1     2     0     0 -3.806268551E+02  4.271288106E+01 -2.145555834E+02  4.564649947E+02  1.250000000E+02  0.00000E+00  9.000E+00
      25     1     1     2     0     0  3.974479728E+02 -2.912793244E+01 -7.285405742E+02  8.397676439E+02  1.250000000E+02  0.00000E+00  9.000E+00
      21     1     1     2   512   501 -1.682111771E+01 -1.358494862E+01 -1.678783221E+02  1.692649753E+02  2.697398305E-06  0.00000E+00  9.000E+00
#rwgt            1           1   1.7959205787797895E-002           8      155967           0
</event>
<event>
      5   9999  3.19816E-02  2.11850E+01 -1.00000E+00  1.64333E-01
      21    -1     0     0   502   501  0.000000000E+00  0.000000000E+00  1.180252358E+02  1.180252358E+02  0.000000000E+00  0.00000E+00  9.000E+00
      21    -1     0     0   511   502  0.000000000E+00  0.000000000E+00 -1.716274932E+03  1.716274932E+03  0.000000000E+00  0.00000E+00  9.000E+00
      25     1     1     2     0     0 -9.758802385E+01 -1.874234426E+02 -1.279512592E+03  1.302853961E+03  1.250000000E+02  0.00000E+00  9.000E+00
      25     1     1     2     0     0  7.665432764E+01  1.841700350E+02 -2.476580914E+01  2.367125536E+02  1.250000000E+02  0.00000E+00  9.000E+00
      21     1     1     2   511   501  2.093369621E+01  3.253407633E+00 -2.939712948E+02  2.947336535E+02  0.000000000E+00  0.00000E+00  9.000E+00
#rwgt            1           1   3.1719605432577125E-002           8      156145           0
</event>
<event>
      5   9999  3.19816E-02  3.49894E+01 -1.00000E+00  1.48540E-01
      21    -1     0     0   502   501  0.000000000E+00  0.000000000E+00  1.498525206E+02  1.498525206E+02  0.000000000E+00  0.00000E+00  9.000E+00
       2    -1     0     0   501     0  0.000000000E+00  0.000000000E+00 -2.412242370E+03  2.412242370E+03  0.000000000E+00  0.00000E+00  9.000E+00
      25     1     1     2     0     0 -2.705178402E+02  2.213336830E+02 -8.927026604E+02  9.668048102E+02  1.250000000E+02  0.00000E+00  9.000E+00
      25     1     1     2     0     0  3.031569483E+02 -2.339410810E+02 -2.479518594E+02  4.730091852E+02  1.250000000E+02  0.00000E+00  9.000E+00
       2     1     1     2   502     0 -3.263910811E+01  1.260739802E+01 -1.121735330E+03  1.122280895E+03  2.157918644E-05  0.00000E+00  9.000E+00
#rwgt            1           1   2.8846471637208413E-002           8      156286           0
</event>
<event>
      5   9999  3.19816E-02  2.31293E+01 -1.00000E+00  1.61323E-01
      21    -1     0     0   502   501  0.000000000E+00  0.000000000E+00  2.976714909E+02  2.976714909E+02  0.000000000E+00  0.00000E+00  9.000E+00
      21    -1     0     0   511   502  0.000000000E+00  0.000000000E+00 -2.290187529E+02  2.290187529E+02  0.000000000E+00  0.00000E+00  9.000E+00
      25     1     1     2     0     0 -1.807164253E+02  4.983691959E+01 -1.412546487E+00  2.253200839E+02  1.250000000E+02  0.00000E+00  9.000E+00
      25     1     1     2     0     0  1.737957012E+02 -7.190656658E+01  1.130568767E+02  2.525516926E+02  1.250000000E+02  0.00000E+00  9.000E+00
      21     1     1     2   511   501  6.920724108E+00  2.206964699E+01 -4.299159221E+01  4.881846722E+01  9.536743164E-07  0.00000E+00  9.000E+00
#rwgt            1           1   2.5276884382053947E-002           8      156446           0
</event>
<event>
      5   9999  3.19816E-02  3.69687E+01 -1.00000E+00  1.46995E-01
      21    -1     0     0   502   501  0.000000000E+00  0.000000000E+00  7.511618439E+02  7.511618439E+02  0.000000000E+00  0.00000E+00  9.000E+00
      21    -1     0     0   501   512  0.000000000E+00  0.000000000E+00 -9.158963606E+01  9.158963606E+01  0.000000000E+00  0.00000E+00  9.000E+00
      25     1     1     2     0     0 -4.684565410E+01  4.251399679E+01  6.189004354E+02  6.345586688E+02  1.250000000E+02  0.00000E+00  9.000E+00
      25     1     1     2     0     0  7.118772585E+01 -7.033754093E+01  1.049008219E+01  1.604683888E+02  1.250000000E+02  0.00000E+00  9.000E+00
      21     1     1     2   502   512 -2.434207175E+01  2.782354414E+01  3.018169031E+01  4.772442242E+01  6.743495762E-07  0.00000E+00  9.000E+00
#rwgt            1           1   2.7018977746397457E-002           8      156578           0
</event>
<event>
      5   9999  3.19816E-02  3.11315E+01 -1.00000E+00  1.51931E-01
      21    -1     0     0   511   501  0.000000000E+00  0.000000000E+00  2.302411278E+02  2.302411278E+02  0.000000000E+00  0.00000E+00  9.000E+00
      21    -1     0     0   501   502  0.000000000E+00  0.000000000E+00 -5.614743884E+02  5.614743884E+02  0.000000000E+00  0.00000E+00  9.000E+00
      25     1     1     2     0     0 -2.391166487E+01  1.423575462E+02 -2.622323948E+02  3.243890682E+02  1.250000000E+02  0.00000E+00  9.000E+00
      25     1     1     2     0     0  5.504308437E+01 -1.424063319E+02 -2.301742331E+02  3.031740129E+02  1.250000000E+02  0.00000E+00  9.000E+00
      21     1     1     2   511   502 -3.113141950E+01  4.878564119E-02  1.611733672E+02  1.641524351E+02  1.907348633E-06  0.00000E+00  9.000E+00
#rwgt            1           1   3.2374661557340499E-002           8      156686           0
</event>
<event>
      5   9999  3.19816E-02  4.45581E+01 -1.00000E+00  1.41992E-01
      21    -1     0     0   512   501  0.000000000E+00  0.000000000E+00  7.082353880E+02  7.082353880E+02  0.000000000E+00  0.00000E+00  9.000E+00
      21    -1     0     0   501   502  0.000000000E+00  0.000000000E+00 -8.623376777E+01  8.623376777E+01  0.000000000E+00  0.00000E+00  9.000E+00
      25     1     1     2     0     0 -1.005750956E+02  1.009836985E+02  5.212611622E+02  5.546631919E+02  1.250000000E+02  0.00000E+00  9.000E+00
      25     1     1     2     0     0  6.717536030E+01 -7.148996944E+01  3.890834273E+01  1.635915765E+02  1.250000000E+02  0.00000E+00  9.000E+00
      21     1     1     2   512   502  3.339973526E+01 -2.949372902E+01  6.183211528E+01  7.621438740E+01  6.743495762E-07  0.00000E+00  9.000E+00
#rwgt            1           1   3.4232033631246835E-002           8      156859           0
</event>
<event>
      5   9999  3.19816E-02  7.38652E+01 -1.00000E+00  1.30049E-01
      21    -1     0     0   511   501  0.000000000E+00  0.000000000E+00  3.439912011E+02  3.439912011E+02  0.000000000E+00  0.00000E+00  9.000E+00
      21    -1     0     0   501   502  0.000000000E+00  0.000000000E+00 -7.268496062E+02  7.268496062E+02  0.000000000E+00  0.00000E+00  9.000E+00
      25     1     1     2     0     0  9.817319062E+01 -3.554727729E+02 -4.313680682E+02  5.811215689E+02  1.250000000E+02  0.00000E+00  9.000E+00
      25     1     1     2     0     0 -1.720328413E+02  3.545651210E+02  4.142140052E+01  4.155146880E+02  1.250000000E+02  0.00000E+00  9.000E+00
      21     1     1     2   511   502  7.385965067E+01  9.076518691E-01  7.088262628E+00  7.420455037E+01  1.951540177E-06  0.00000E+00  9.000E+00
#rwgt            1           1   2.6238198514091531E-002           8      156937           0
</event>
<event>
      5   9999  3.19816E-02  3.66370E+01 -1.00000E+00  1.47246E-01
      21    -1     0     0   502   501  0.000000000E+00  0.000000000E+00  1.153861286E+02  1.153861286E+02  0.000000000E+00  0.00000E+00  9.000E+00
      21    -1     0     0   501   512  0.000000000E+00  0.000000000E+00 -2.866094283E+02  2.866094283E+02  0.000000000E+00  0.00000E+00  9.000E+00
      25     1     1     2     0     0  7.099443087E+00 -9.898560190E+01 -4.212921876E+01  1.650709622E+02  1.250000000E+02  0.00000E+00  9.000E+00
      25     1     1     2     0     0 -4.263572077E+01  9.007240921E+01 -9.046104781E+01  1.836819119E+02  1.250000000E+02  0.00000E+00  9.000E+00
      21     1     1     2   502   512  3.553627768E+01  8.913192692E+00 -3.863303313E+01  5.324268292E+01  4.768371582E-07  0.00000E+00  9.000E+00
#rwgt            1           1   2.0693718318640746E-002           8      157021           0
</event>
<event>
      5   9999  3.19816E-02  1.05759E+01 -1.00000E+00  1.92988E-01
      21    -1     0     0   511   501  0.000000000E+00  0.000000000E+00  5.853856057E+02  5.853856057E+02  0.000000000E+00  0.00000E+00  9.000E+00
      21    -1     0     0   501   502  0.000000000E+00  0.000000000E+00 -3.461542903E+02  3.461542903E+02  0.000000000E+00  0.00000E+00  9.000E+00
      25     1     1     2     0     0  1.180739470E+02 -3.258671798E+02  2.917468650E+01  3.696038936E+02  1.250000000E+02  0.00000E+00  9.000E+00
      25     1     1     2     0     0 -1.109332640E+02  3.180659295E+02  7.782064126E+00  3.593851486E+02  1.250000000E+02  0.00000E+00  9.000E+00
      21     1     1     2   511   502 -7.140682991E+00  7.801250321E+00  2.022745647E+02  2.025508539E+02  0.000000000E+00  0.00000E+00  9.000E+00
#rwgt            1           1   2.5927229504156254E-002           8      157096           0
</event>
<event>
      5   9999  3.19816E-02  1.93892E+01 -1.00000E+00  1.67488E-01
      21    -1     0     0   502   501  0.000000000E+00  0.000000000E+00  2.132379085E+02  2.132379085E+02  0.000000000E+00  0.00000E+00  9.000E+00
      21    -1     0     0   501   512  0.000000000E+00  0.000000000E+00 -5.109558476E+02  5.109558476E+02  0.000000000E+00  0.00000E+00  9.000E+00
      25     1     1     2     0     0 -3.135575502E+01  2.378663610E+02 -3.725214441E+01  2.730866370E+02  1.250000000E+02  0.00000E+00  9.000E+00
      25     1     1     2     0     0  2.223798679E+01 -2.549779921E+02 -1.196271049E+02  3.089400407E+02  1.250000000E+02  0.00000E+00  9.000E+00
      21     1     1     2   502   512  9.117768228E+00  1.711163117E+01 -1.408386899E+02  1.421670784E+02  1.907348633E-06  0.00000E+00  9.000E+00
#rwgt            1           1   2.7847516867353754E-002           8      157310           0
</event>
<event>
      5   9999  3.19816E-02  8.60812E+01 -1.00000E+00  1.26828E-01
       2    -1     0     0   502     0  0.000000000E+00  0.000000000E+00  1.774865582E+03  1.774865582E+03  0.000000000E+00  0.00000E+00  9.000E+00
      21    -1     0     0   501   502  0.000000000E+00  0.000000000E+00 -1.648660623E+02  1.648660623E+02  0.000000000E+00  0.00000E+00  9.000E+00
      25     1     1     2     0     0  2.200966745E+02  2.630070326E+02  3.014573016E+02  4.734097062E+02  1.250000000E+02  0.00000E+00  9.000E+00
      25     1     1     2     0     0 -1.411499344E+02 -2.973201356E+02  3.253695346E+02  4.793880485E+02  1.250000000E+02  0.00000E+00  9.000E+00
       2     1     1     2   501     0 -7.894674009E+01  3.431310301E+01  9.831726830E+02  9.869338891E+02  2.157918644E-05  0.00000E+00  9.000E+00
#rwgt            2          18   1.0357015446515591E-003           8      157485           0
</event>
<event>
      5   9999  3.19816E-02  1.07295E+02 -1.00000E+00  1.22468E-01
      21    -1     0     0   502   501  0.000000000E+00  0.000000000E+00  9.864738617E+02  9.864738617E+02  0.000000000E+00  0.00000E+00  9.000E+00
      21    -1     0     0   511   502  0.000000000E+00  0.000000000E+00 -6.889755614E+02  6.889755614E+02  0.000000000E+00  0.00000E+00  9.000E+00
      25     1     1     2     0     0 -3.203021780E+02 -1.790638211E+02  8.272961597E+02  9.136198735E+02  1.250000000E+02  0.00000E+00  9.000E+00
      25     1     1     2     0     0  2.729354165E+02  2.753376231E+02 -2.927491420E+02  5.016289549E+02  1.250000000E+02  0.00000E+00  9.000E+00
      21     1     1     2   511   501  4.736676149E+01 -9.627380191E+01 -2.370487175E+02  2.602005947E+02  0.000000000E+00  0.00000E+00  9.000E+00
#rwgt            2          11   3.7289595576376453E-003           8      157504           0
</event>
<event>
      5   9999  3.19816E-02  7.29230E+01 -1.00000E+00  1.30327E-01
      21    -1     0     0   512   501  0.000000000E+00  0.000000000E+00  2.611362281E+02  2.611362281E+02  0.000000000E+00  0.00000E+00  9.000E+00
      21    -1     0     0   501   502  0.000000000E+00  0.000000000E+00 -3.064445359E+02  3.064445359E+02  0.000000000E+00  0.00000E+00  9.000E+00
      25     1     1     2     0     0  1.681883392E+02  2.143476847E+01 -5.698531277E+01  2.182179933E+02  1.250000000E+02  0.00000E+00  9.000E+00
      25     1     1     2     0     0 -2.403106242E+02 -3.221127804E+01 -1.096534685E+01  2.730054970E+02  1.250000000E+02  0.00000E+00  9.000E+00
      21     1     1     2   512   502  7.212228506E+01  1.077650957E+01  2.264235183E+01  7.635727377E+01  1.215700987E-06  0.00000E+00  9.000E+00
#rwgt            1           1   2.6620250326976118E-002           8      157524           0
</event>
<event>
      5   9999  3.19816E-02  1.50121E+02 -1.00000E+00  1.16380E-01
       2    -1     0     0   502     0  0.000000000E+00  0.000000000E+00  3.080238450E+03  3.080238450E+03  0.000000000E+00  0.00000E+00  9.000E+00
      21    -1     0     0   501   502  0.000000000E+00  0.000000000E+00 -1.550747685E+02  1.550747685E+02  0.000000000E+00  0.00000E+00  9.000E+00
      25     1     1     2     0     0 -2.976024462E+02 -4.624129946E+01  8.205481725E+02  8.829664643E+02  1.250000000E+02  0.00000E+00  9.000E+00
      25     1     1     2     0     0  3.939389209E+02  1.613743941E+02  2.867216828E+02  5.282649826E+02  1.250000000E+02  0.00000E+00  9.000E+00
       2     1     1     2   501     0 -9.633647476E+01 -1.151330946E+02  1.817893826E+03  1.824081772E+03  0.000000000E+00  0.00000E+00  9.000E+00
#rwgt            1           1   2.7261171276936145E-002           8      157608           0
</event>
<event>
      5   9999  3.19816E-02  3.26260E+01 -1.00000E+00  1.50551E-01
      21    -1     0     0   511   501  0.000000000E+00  0.000000000E+00  1.502119132E+03  1.502119132E+03  0.000000000E+00  0.00000E+00  9.000E+00
      21    -1     0     0   501   502  0.000000000E+00  0.000000000E+00 -4.310913926E+02  4.310913926E+02  0.000000000E+00  0.00000E+00  9.000E+00
      25     1     1     2     0     0 -4.826180258E+02  1.318772412E+02  6.776480291E+02  8.515536489E+02  1.250000000E+02  0.00000E+00  9.000E+00
      25     1     1     2     0     0  5.043452547E+02 -1.562161127E+02 -1.294516659E+02  5.578085188E+02  1.250000000E+02  0.00000E+00  9.000E+00
      21     1     1     2   511   502 -2.172722892E+01  2.433887148E+01  5.228313767E+02  5.238483575E+02  0.000000000E+00  0.00000E+00  9.000E+00
#rwgt            1           1   2.5077499954328248E-002           8      157659           0
</event>
<event>
      5   9999  3.19816E-02  5.79731E+01 -1.00000E+00  1.35506E-01
      21    -1     0     0   502   512  0.000000000E+00  0.000000000E+00  2.653965279E+03  2.653965279E+03  0.000000000E+00  0.00000E+00  9.000E+00
      21    -1     0     0   501   502  0.000000000E+00  0.000000000E+00 -1.587268546E+02  1.587268546E+02  0.000000000E+00  0.00000E+00  9.000E+00
      25     1     1     2     0     0  5.561024642E+02  2.168196947E+02  1.135768055E+03  1.289129476E+03  1.250000000E+02  0.00000E+00  9.000E+00
      25     1     1     2     0     0 -5.442204397E+02 -2.735620954E+02  1.163935438E+03  1.319614644E+03  1.250000000E+02  0.00000E+00  9.000E+00
      21     1     1     2   501   512 -1.188202453E+01  5.674240066E+01  1.955349324E+02  2.039480137E+02  2.697398305E-06  0.00000E+00  9.000E+00
#rwgt            1           1   2.5691307563999757E-002           8      157817           0
</event>
<event>
      5   9999  3.19816E-02  9.19923E+01 -1.00000E+00  1.25481E-01
      21    -1     0     0   502   501  0.000000000E+00  0.000000000E+00  3.713254329E+02  3.713254329E+02  0.000000000E+00  0.00000E+00  9.000E+00
       2    -1     0     0   501     0  0.000000000E+00  0.000000000E+00 -8.577341197E+02  8.577341197E+02  0.000000000E+00  0.00000E+00  9.000E+00
      25     1     1     2     0     0  1.612227878E+02 -2.433269760E+02  4.147769610E+01  3.202283620E+02  1.250000000E+02  0.00000E+00  9.000E+00
      25     1     1     2     0     0 -2.511715049E+02  2.626095488E+02 -1.165035282E+01  3.844627819E+02  1.250000000E+02  0.00000E+00  9.000E+00
       2     1     1     2   502     0  8.994871705E+01 -1.928257277E+01 -5.162360300E+02  5.243684086E+02  1.078959322E-05  0.00000E+00  9.000E+00
#rwgt            1           1   2.6239580748566825E-002           8      158031           0
</event>
<event>
      5   9999  3.19816E-02  2.65191E+02 -1.00000E+00  1.07362E-01
      21    -1     0     0   502   501  0.000000000E+00  0.000000000E+00  1.376135824E+02  1.376135824E+02  0.000000000E+00  0.00000E+00  9.000E+00
      21    -1     0     0   511   502  0.000000000E+00  0.000000000E+00 -1.637003337E+03  1.637003337E+03  0.000000000E+00  0.00000E+00  9.000E+00
      25     1     1     2     0     0  1.111227006E+01  2.862407176E+02 -4.915580812E+02  5.825045735E+02  1.250000000E+02  0.00000E+00  9.000E+00
      25     1     1     2     0     0 -3.194494623E+01 -2.186944563E+01  1.842260248E+01  1.321481915E+02  1.250000000E+02  0.00000E+00  9.000E+00
      21     1     1     2   511   501  2.083267617E+01 -2.643712720E+02 -1.026254276E+03  1.059964155E+03  1.525878906E-05  0.00000E+00  9.000E+00
#rwgt            1           1   2.5215777025410314E-002           8      158102           0
</event>
<event>
      5   9999  3.19816E-02  4.34172E+01 -1.00000E+00  1.42666E-01
      21    -1     0     0   512   501  0.000000000E+00  0.000000000E+00  4.412060229E+02  4.412060229E+02  0.000000000E+00  0.00000E+00  9.000E+00
      21    -1     0     0   501   502  0.000000000E+00  0.000000000E+00 -4.903363461E+02  4.903363461E+02  0.000000000E+00  0.00000E+00  9.000E+00
      25     1     1     2     0     0  7.041759048E+01  3.881833709E+02  1.503153778E+01  4.141206511E+02  1.250000000E+02  0.00000E+00  9.000E+00
      25     1     1     2     0     0 -9.238332451E+01 -4.256341229E+02 -9.649525307E+01  4.632876202E+02  1.250000000E+02  0.00000E+00  9.000E+00
      21     1     1     2   512   502  2.196573403E+01  3.745075191E+01  3.233339211E+01  5.413409772E+01  4.768371582E-07  0.00000E+00  9.000E+00
#rwgt            1           1   2.9288299273939694E-002           8      158130           0
</event>
<event>
      5   9999  3.19816E-02  1.23388E+02 -1.00000E+00  1.19857E-01
      21    -1     0     0   511   501  0.000000000E+00  0.000000000E+00  1.514504257E+03  1.514504257E+03  0.000000000E+00  0.00000E+00  9.000E+00
      21    -1     0     0   501   502  0.000000000E+00  0.000000000E+00 -2.042294413E+02  2.042294413E+02  0.000000000E+00  0.00000E+00  9.000E+00
      25     1     1     2     0     0 -3.310522600E+02  2.095006976E+02  1.383538937E+02  4.338812522E+02  1.250000000E+02  0.00000E+00  9.000E+00
      25     1     1     2     0     0  3.022005445E+02 -8.953354958E+01  5.160351839E+02  6.174615264E+02  1.250000000E+02  0.00000E+00  9.000E+00
      21     1     1     2   511   502  2.885171553E+01 -1.199671480E+02  6.558857378E+02  6.673909193E+02  7.629394531E-06  0.00000E+00  9.000E+00
#rwgt            1           1   2.4314367563404261E-002           8      158200           0
</event>
<event>
      5   9999  3.19816E-02  4.07937E+01 -1.00000E+00  1.44313E-01
      21    -1     0     0   502   501  0.000000000E+00  0.000000000E+00  9.895843327E+02  9.895843327E+02  0.000000000E+00  0.00000E+00  9.000E+00
      21    -1     0     0   501   512  0.000000000E+00  0.000000000E+00 -6.054972899E+02  6.054972899E+02  0.000000000E+00  0.00000E+00  9.000E+00
      25     1     1     2     0     0  1.461307578E+02 -5.849736517E+02  4.621573833E+02  7.699109159E+02  1.250000000E+02  0.00000E+00  9.000E+00
      25     1     1     2     0     0 -1.165890553E+02  5.568415749E+02  1.434787667E+02  5.998972444E+02  1.250000000E+02  0.00000E+00  9.000E+00
      21     1     1     2   502   512 -2.954170247E+01  2.813207674E+01 -2.215491071E+02  2.252734622E+02  3.814697266E-06  0.00000E+00  9.000E+00
#rwgt            1           1   2.6779665326795789E-002           8      158277           0
</event>
<event>
      5   9999  3.19816E-02  2.34543E+01 -1.00000E+00  1.60855E-01
      21    -1     0     0   502   511  0.000000000E+00  0.000000000E+00  3.063607794E+02  3.063607794E+02  0.000000000E+00  0.00000E+00  9.000E+00
      21    -1     0     0   501   502  0.000000000E+00  0.000000000E+00 -2.278397566E+02  2.278397566E+02  0.000000000E+00  0.00000E+00  9.000E+00
      25     1     1     2     0     0 -1.925946018E+02  5.826566910E+01 -4.096783248E+01  2.403974462E+02  1.250000000E+02  0.00000E+00  9.000E+00
      25     1     1     2     0     0  1.793685584E+02 -3.889615946E+01  6.024873217E+01  2.300888973E+02  1.250000000E+02  0.00000E+00  9.000E+00
      21     1     1     2   501   511  1.322604341E+01 -1.936950964E+01  5.924012312E+01  6.371419241E+01  6.743495762E-07  0.00000E+00  9.000E+00
#rwgt            1           1   2.9276741489193708E-002           8      158399           0
</event>
<event>
      5   9999 -3.19816E-02  1.49577E+01 -1.00000E+00  1.77499E-01
      21    -1     0     0   502   512  0.000000000E+00  0.000000000E+00  5.428734867E+01  5.428734867E+01  0.000000000E+00  0.00000E+00  9.000E+00
      21    -1     0     0   501   502  0.000000000E+00  0.000000000E+00 -2.059986244E+03  2.059986244E+03  0.000000000E+00  0.00000E+00  9.000E+00
      25     1     1     2     0     0  2.638704178E+02 -1.110918388E+02 -6.486099701E+02  7.199228343E+02  1.250000000E+02  0.00000E+00  9.000E+00
      25     1     1     2     0     0 -2.521174017E+02  1.018399145E+02 -1.331447325E+03  1.364665356E+03  1.250000000E+02  0.00000E+00  9.000E+00
      21     1     1     2   501   512 -1.175301610E+01  9.251924353E+00 -2.564159952E+01  2.968540244E+01  0.000000000E+00  0.00000E+00  9.000E+00
#rwgt            1           1  -7.5361126004503494E-003           8      158558           0
</event>
<event>
      5   9999  3.19816E-02  1.26873E+02 -1.00000E+00  1.19350E-01
       1    -1     0     0   502     0  0.000000000E+00  0.000000000E+00  5.912125881E+02  5.912125881E+02  0.000000000E+00  0.00000E+00  9.000E+00
      21    -1     0     0   501   502  0.000000000E+00  0.000000000E+00 -4.312107266E+02  4.312107266E+02  0.000000000E+00  0.00000E+00  9.000E+00
      25     1     1     2     0     0 -2.324574859E+01 -3.543657101E+02 -1.165643468E+02  3.941163131E+02  1.250000000E+02  0.00000E+00  9.000E+00
      25     1     1     2     0     0  7.449540023E+01  2.383043713E+02 -4.481132095E+01  2.827924902E+02  1.250000000E+02  0.00000E+00  9.000E+00
       1     1     1     2   501     0 -5.124965164E+01  1.160613388E+02  3.213775293E+02  3.455145113E+02  6.607249480E-06  0.00000E+00  9.000E+00
#rwgt            1           1   2.7257517762528851E-002           8      158700           0
</event>
<event>
      5   9999  3.19816E-02  1.62783E+02 -1.00000E+00  1.15003E-01
      21    -1     0     0   502   511  0.000000000E+00  0.000000000E+00  1.797807500E+03  1.797807500E+03  0.000000000E+00  0.00000E+00  9.000E+00
      21    -1     0     0   501   502  0.000000000E+00  0.000000000E+00 -7.975642834E+02  7.975642834E+02  0.000000000E+00  0.00000E+00  9.000E+00
      25     1     1     2     0     0  1.564934447E+02  3.275647748E+02 -6.751846730E+02  7.767163077E+02  1.250000000E+02  0.00000E+00  9.000E+00
      25     1     1     2     0     0 -3.872328842E+01 -4.399420190E+02  7.521514245E+02  8.811386034E+02  1.250000000E+02  0.00000E+00  9.000E+00
      21     1     1     2   501   511 -1.177701563E+02  1.123772441E+02  9.232764652E+02  9.375168724E+02  0.000000000E+00  0.00000E+00  9.000E+00
#rwgt            1           1   2.9816753936985203E-002           8      158759           0
</event>
<event>
      5   9999  3.19816E-02  6.65366E+01 -1.00000E+00  1.32347E-01
      21    -1     0     0   502   512  0.000000000E+00  0.000000000E+00  3.419986486E+02  3.419986486E+02  0.000000000E+00  0.00000E+00  9.000E+00
      21    -1     0     0   501   502  0.000000000E+00  0.000000000E+00 -1.392805119E+02  1.392805119E+02  0.000000000E+00  0.00000E+00  9.000E+00
      25     1     1     2     0     0  9.182982607E+00 -7.869228844E+01  1.996314629E+02  2.485045762E+02  1.250000000E+02  0.00000E+00  9.000E+00
      25     1     1     2     0     0  3.256729436E+01  2.688460366E+01 -5.643148302E+01  1.435023444E+02  1.250000000E+02  0.00000E+00  9.000E+00
      21     1     1     2   501   512 -4.175027697E+01  5.180768478E+01  5.951815677E+01  8.927223989E+01  9.536743164E-07  0.00000E+00  9.000E+00
#rwgt            1           1   3.1630467711950293E-002           8      158877           0
</event>
<event>
      5   9999  3.19816E-02  8.28396E+01 -1.00000E+00  1.27621E-01
      21    -1     0     0   502   501  0.000000000E+00  0.000000000E+00  6.679850592E+01  6.679850592E+01  0.000000000E+00  0.00000E+00  9.000E+00
      21    -1     0     0   501   511  0.000000000E+00  0.000000000E+00 -8.093679330E+02  8.093679330E+02  0.000000000E+00  0.00000E+00  9.000E+00
      25     1     1     2     0     0 -3.757723082E+01  9.942876785E+01 -2.402428944E+02  2.909291606E+02  1.250000000E+02  0.00000E+00  9.000E+00
      25     1     1     2     0     0  1.124249439E+02 -1.349282929E+02 -3.321943724E+02  3.960089813E+02  1.250000000E+02  0.00000E+00  9.000E+00
      21     1     1     2   502   511 -7.484771312E+01  3.549952501E+01 -1.701321603E+02  1.892282970E+02  2.697398305E-06  0.00000E+00  9.000E+00
#rwgt            1           1   2.8883209877924067E-002           8      158945           0
</event>
<event>
      5   9999  3.19816E-02  3.31583E+02 -1.00000E+00  1.04199E-01
      21    -1     0     0   502   501  0.000000000E+00  0.000000000E+00  1.000475064E+03  1.000475064E+03  0.000000000E+00  0.00000E+00  9.000E+00
       2    -1     0     0   501     0  0.000000000E+00  0.000000000E+00 -2.537566900E+03  2.537566900E+03  0.000000000E+00  0.00000E+00  9.000E+00
      25     1     1     2     0     0 -3.059711061E+02 -2.091056888E+02  7.805257343E+02  8.730343228E+02  1.250000000E+02  0.00000E+00  9.000E+00
      25     1     1     2     0     0  4.379286670E+02  5.133007668E+02 -5.873418303E+02  9.032467106E+02  1.250000000E+02  0.00000E+00  9.000E+00
       2     1     1     2   502     0 -1.319575609E+02 -3.041950780E+02 -1.730275739E+03  1.761760931E+03  2.157918644E-05  0.00000E+00  9.000E+00
#rwgt            1           1   3.3676717480301925E-002           8      159030           0
</event>
<event>
      5   9999  3.19816E-02  2.51582E+02 -1.00000E+00  1.08137E-01
      21    -1     0     0   502   501  0.000000000E+00  0.000000000E+00  4.155168226E+02  4.155168226E+02  0.000000000E+00  0.00000E+00  9.000E+00
       1    -1     0     0   501     0  0.000000000E+00  0.000000000E+00 -7.818914404E+02  7.818914404E+02  0.000000000E+00  0.00000E+00  9.000E+00
      25     1     1     2     0     0  1.067511507E+02 -1.222594631E+01  2.172223352E+02  2.726826449E+02  1.250000000E+02  0.00000E+00  9.000E+00
      25     1     1     2     0     0 -1.689456932E+02 -2.315476531E+02 -2.694313618E+01  3.138596749E+02  1.250000000E+02  0.00000E+00  9.000E+00
       1     1     1     2   502     0  6.219454253E+01  2.437735995E+02 -5.566538168E+02  6.108659433E+02  1.078959322E-05  0.00000E+00  9.000E+00
#rwgt            1           1   2.6845666698698870E-002           8      159083           0
</event>
<event>
      5   9999  3.19816E-02  2.39705E+01 -1.00000E+00  1.60131E-01
      21    -1     0     0   502   511  0.000000000E+00  0.000000000E+00  9.995421447E+01  9.995421447E+01  0.000000000E+00  0.00000E+00  9.000E+00
      21    -1     0     0   501   502  0.000000000E+00  0.000000000E+00 -2.032585400E+03  2.032585400E+03  0.000000000E+00  0.00000E+00  9.000E+00
      25     1     1     2     0     0  8.063547337E+01 -1.809901261E+02 -6.451070463E+01  2.429941076E+02  1.250000000E+02  0.00000E+00  9.000E+00
      25     1     1     2     0     0 -1.041578231E+02  1.763768465E+02 -1.820350731E+03  1.836098970E+03  1.250000000E+02  0.00000E+00  9.000E+00
      21     1     1     2   501   511  2.352234973E+01  4.613279681E+00 -4.776974985E+01  5.344653672E+01  6.743495762E-07  0.00000E+00  9.000E+00
#rwgt            1           1   1.7962769164510020E-002           8      159114           0
</event>
<event>
      5   9999  3.19816E-02  2.16265E+01 -1.00000E+00  1.63615E-01
      21    -1     0     0   502   512  0.000000000E+00  0.000000000E+00  2.055498878E+02  2.055498878E+02  0.000000000E+00  0.00000E+00  9.000E+00
      21    -1     0     0   501   502  0.000000000E+00  0.000000000E+00 -4.984911046E+02  4.984911046E+02  0.000000000E+00  0.00000E+00  9.000E+00
      25     1     1     2     0     0 -1.829237804E+02 -1.594514827E+02 -8.194874411E+01  2.850025990E+02  1.250000000E+02  0.00000E+00  9.000E+00
      25     1     1     2     0     0  1.738633774E+02  1.790885902E+02 -2.498066622E+02  3.746058804E+02  1.250000000E+02  0.00000E+00  9.000E+00
      21     1     1     2   501   512  9.060403055E+00 -1.963710746E+01  3.881418960E+01  4.443251295E+01  1.066240300E-06  0.00000E+00  9.000E+00
#rwgt            1           1   2.7192871773799955E-002           8      159348           0
</event>
<event>
      5   9999  3.19816E-02  1.28190E+02 -1.00000E+00  1.19164E-01
      21    -1     0     0   502   501  0.000000000E+00  0.000000000E+00  5.562592195E+01  5.562592195E+01  0.000000000E+00  0.00000E+00  9.000E+00
      21    -1     0     0   511   502  0.000000000E+00  0.000000000E+00 -3.074310637E+03  3.074310637E+03  0.000000000E+00  0.00000E+00  9.000E+00
      25     1     1     2     0     0 -1.771334041E+02 -1.253635942E+02 -7.458404430E+02  7.867625054E+02  1.250000000E+02  0.00000E+00  9.000E+00
      25     1     1     2     0     0  3.023344444E+02  9.784128691E+01 -8.719952913E+02  9.364720079E+02  1.250000000E+02  0.00000E+00  9.000E+00
      21     1     1     2   511   501 -1.252010403E+02  2.752230734E+01 -1.400848981E+03  1.406702045E+03  2.157918644E-05  0.00000E+00  9.000E+00
#rwgt            2          11   4.8119447163763054E-004           8      159549           0
</event>
<event>
      5   9999  3.19816E-02  7.30496E+01 -1.00000E+00  1.30290E-01
      21    -1     0     0   502   501  0.000000000E+00  0.000000000E+00  2.552523398E+02  2.552523398E+02  0.000000000E+00  0.00000E+00  9.000E+00
      21    -1     0     0   512   502  0.000000000E+00  0.000000000E+00 -6.634757329E+02  6.634757329E+02  0.000000000E+00  0.00000E+00  9.000E+00
      25     1     1     2     0     0  3.117882079E+02  4.848761212E+01 -1.493220160E+02  3.707896972E+02  1.250000000E+02  0.00000E+00  9.000E+00
      25     1     1     2     0     0 -3.847773421E+02 -5.145877690E+01 -2.007143134E+02  4.545468560E+02  1.250000000E+02  0.00000E+00  9.000E+00
      21     1     1     2   512   501  7.298913416E+01  2.971164784E+00 -5.818706379E+01  9.339151952E+01  1.507891493E-06  0.00000E+00  9.000E+00
#rwgt            1           1   2.6064671948255368E-002           8      159599           0
</event>
<event>
      5   9999  3.19816E-02  1.35062E+02 -1.00000E+00  1.18228E-01
      21    -1     0     0   511   501  0.000000000E+00  0.000000000E+00  3.108968041E+02  3.108968041E+02  0.000000000E+00  0.00000E+00  9.000E+00
      21    -1     0     0   501   502  0.000000000E+00  0.000000000E+00 -2.097238166E+03  2.097238166E+03  0.000000000E+00  0.00000E+00  9.000E+00
      25     1     1     2     0     0  5.303515597E+02 -3.490147091E+02 -1.117090384E+03  1.290968617E+03  1.250000000E+02  0.00000E+00  9.000E+00
      25     1     1     2     0     0 -6.653049325E+02  3.436003298E+02 -5.576221423E+02  9.419444216E+02  1.250000000E+02  0.00000E+00  9.000E+00
      21     1     1     2   511   502  1.349533728E+02  5.414379297E+00 -1.116288357E+02  1.752219316E+02  3.015782986E-06  0.00000E+00  9.000E+00
#rwgt            1           1   3.3315128233369511E-002           8      159649           0
</event>
<event>
      5   9999  3.19816E-02  7.05094E+01 -1.00000E+00  1.31061E-01
      21    -1     0     0   502   512  0.000000000E+00  0.000000000E+00  4.504129035E+02  4.504129035E+02  0.000000000E+00  0.00000E+00  9.000E+00
      21    -1     0     0   501   502  0.000000000E+00  0.000000000E+00 -4.032049106E+02  4.032049106E+02  0.000000000E+00  0.00000E+00  9.000E+00
      25     1     1     2     0     0 -3.060766863E+01 -3.387794287E+01  8.454063617E+01  1.576599618E+02  1.250000000E+02  0.00000E+00  9.000E+00
      25     1     1     2     0     0  9.889582156E+01  5.143669404E+01 -3.432972092E+02  3.819739401E+02  1.250000000E+02  0.00000E+00  9.000E+00
      21     1     1     2   501   512 -6.828815293E+01 -1.755875117E+01  3.059645659E+02  3.139839123E+02  0.000000000E+00  0.00000E+00  9.000E+00
#rwgt            1           1   2.6318869577080108E-002           8      159751           0
</event>
<event>
      5   9999  3.19816E-02  3.52326E+02 -1.00000E+00  1.03372E-01
      21    -1     0     0   502   501  0.000000000E+00  0.000000000E+00  9.943064810E+01  9.943064810E+01  0.000000000E+00  0.00000E+00  9.000E+00
      21    -1     0     0   501   511  0.000000000E+00  0.000000000E+00 -2.646253312E+03  2.646253312E+03  0.000000000E+00  0.00000E+00  9.000E+00
      25     1     1     2     0     0 -4.135442844E+02  1.392195082E+02 -7.690684432E+02  8.930241973E+02  1.250000000E+02  0.00000E+00  9.000E+00
      25     1     1     2     0     0  6.760790390E+01 -7.242342099E+01 -7.310793823E+02  7.482767161E+02  1.250000000E+02  0.00000E+00  9.000E+00
      21     1     1     2   502   511  3.459363805E+02 -6.679608723E+01 -1.046674838E+03  1.104383047E+03  0.000000000E+00  0.00000E+00  9.000E+00
#rwgt            1           1   1.7527415515144119E-002           8      159834           0
</event>
<event>
      5   9999  3.19816E-02  1.37990E+01 -1.00000E+00  1.80868E-01
      21    -1     0     0   502   501  0.000000000E+00  0.000000000E+00  7.484121552E+02  7.484121552E+02  0.000000000E+00  0.00000E+00  9.000E+00
      21    -1     0     0   512   502  0.000000000E+00  0.000000000E+00 -9.104897600E+01  9.104897600E+01  0.000000000E+00  0.00000E+00  9.000E+00
      25     1     1     2     0     0  6.698714619E+01  1.928878638E+02  4.390897826E+02  5.001178290E+02  1.250000000E+02  0.00000E+00  9.000E+00
      25     1     1     2     0     0 -7.325835834E+01 -1.805962760E+02  2.259841293E+02  3.235361319E+02  1.250000000E+02  0.00000E+00  9.000E+00
      21     1     1     2   512   501  6.271212155E+00 -1.229158777E+01 -7.710732698E+00  1.580717023E+01  5.462855929E-07  0.00000E+00  9.000E+00
#rwgt            1           1   2.7216661493985661E-002           8      159910           0
</event>
<event>
      5   9999  3.19816E-02  1.37532E+03 -1.00000E+00  8.77876E-02
      21    -1     0     0   502   501  0.000000000E+00  0.000000000E+00  1.773626430E+03  1.773626430E+03  0.000000000E+00  0.00000E+00  9.000E+00
       2    -1     0     0   501     0  0.000000000E+00  0.000000000E+00 -3.170181196E+03  3.170181196E+03  0.000000000E+00  0.00000E+00  9.000E+00
      25     1     1     2     0     0  1.824307237E+02 -5.522350848E+02  8.502971523E+02  1.037725785E+03  1.250000000E+02  0.00000E+00  9.000E+00
      25     1     1     2     0     0 -5.260230460E+02 -7.794707458E+02  3.140325667E+02  9.992578954E+02  1.250000000E+02  0.00000E+00  9.000E+00
       2     1     1     2   502     0  3.435923223E+02  1.331705831E+03 -2.560884485E+03  2.906823945E+03  3.051757812E-05  0.00000E+00  9.000E+00
#rwgt            2          13   3.6207390246176842E-003           8      160344           0
</event>
<event>
      5   9999  3.19816E-02  1.04462E+02 -1.00000E+00  1.22981E-01
      21    -1     0     0   502   511  0.000000000E+00  0.000000000E+00  1.189137700E+03  1.189137700E+03  0.000000000E+00  0.00000E+00  9.000E+00
      21    -1     0     0   501   502  0.000000000E+00  0.000000000E+00 -8.103908675E+02  8.103908675E+02  0.000000000E+00  0.00000E+00  9.000E+00
      25     1     1     2     0     0  6.249777148E+02 -3.632468390E+02 -3.977731052E+02  8.345021589E+02  1.250000000E+02  0.00000E+00  9.000E+00
      25     1     1     2     0     0 -5.803448039E+02  2.688004690E+02  3.786979335E+02  7.537180563E+02  1.250000000E+02  0.00000E+00  9.000E+00
      21     1     1     2   501   511 -4.463291089E+01  9.444637004E+01  3.978220040E+02  4.113083520E+02  0.000000000E+00  0.00000E+00  9.000E+00
#rwgt            2          11   3.1240302130074045E-003           8      160378           0
</event>
<event>
      5   9999  3.19816E-02  4.93481E+01 -1.00000E+00  1.39401E-01
      21    -1     0     0   502   501  0.000000000E+00  0.000000000E+00  7.004762538E+02  7.004762538E+02  0.000000000E+00  0.00000E+00  9.000E+00
      21    -1     0     0   512   502  0.000000000E+00  0.000000000E+00 -1.539657426E+02  1.539657426E+02  0.000000000E+00  0.00000E+00  9.000E+00
      25     1     1     2     0     0  1.392467769E+02 -2.479702497E+02  2.028735521E+02  3.710277453E+02  1.250000000E+02  0.00000E+00  9.000E+00
      25     1     1     2     0     0 -1.545771113E+02  2.010637904E+02  3.247113782E+02  4.305615058E+02  1.250000000E+02  0.00000E+00  9.000E+00
      21     1     1     2   512   501  1.533033440E+01  4.690645929E+01  1.892558093E+01  5.285274533E+01  1.261592536E-06  0.00000E+00  9.000E+00
#rwgt            1           1   2.7595276919615188E-002           8      160398           0
</event>
<event>
      5   9999  3.19816E-02  4.62052E+01 -1.00000E+00  1.41060E-01
      21    -1     0     0   502   501  0.000000000E+00  0.000000000E+00  4.304763045E+02  4.304763045E+02  0.000000000E+00  0.00000E+00  9.000E+00
      21    -1     0     0   511   502  0.000000000E+00  0.000000000E+00 -3.132370208E+02  3.132370208E+02  0.000000000E+00  0.00000E+00  9.000E+00
      25     1     1     2     0     0  1.509739758E+02 -1.119426992E+01 -2.251764640E+02  2.987438585E+02  1.250000000E+02  0.00000E+00  9.000E+00
      25     1     1     2     0     0 -1.404304278E+02 -3.379189131E+01  3.494325711E+02  3.982345021E+02  1.250000000E+02  0.00000E+00  9.000E+00
      21     1     1     2   511   501 -1.054354806E+01  4.498616123E+01 -7.016823336E+00  4.673496462E+01  1.095818061E-06  0.00000E+00  9.000E+00
#rwgt            1           1   2.6288723289061334E-002           8      160518           0
</event>
<event>
      5   9999  3.19816E-02  7.05406E+01 -1.00000E+00  1.31052E-01
      21    -1     0     0   502   512  0.000000000E+00  0.000000000E+00  4.660180923E+02  4.660180923E+02  0.000000000E+00  0.00000E+00  9.000E+00
      21    -1     0     0   501   502  0.000000000E+00  0.000000000E+00 -9.323154810E+02  9.323154810E+02  0.000000000E+00  0.00000E+00  9.000E+00
      25     1     1     2     0     0 -2.064980852E+02 -3.595373185E+02  1.054161669E+02  4.456973310E+02  1.250000000E+02  0.00000E+00  9.000E+00
      25     1     1     2     0     0  2.571650397E+02  4.086172754E+02 -6.677748295E+02  8.334567525E+02  1.250000000E+02  0.00000E+00  9.000E+00
      21     1     1     2   501   512 -5.066695451E+01 -4.907995694E+01  9.606127389E+01  1.191794898E+02  2.336015456E-06  0.00000E+00  9.000E+00
#rwgt            1           1   2.6004640776662393E-002           8      160661           0
</event>
<event>
      5   9999  3.19816E-02  6.94696E+01 -1.00000E+00  1.31388E-01
      21    -1     0     0   502   501  0.000000000E+00  0.000000000E+00  1.770973889E+03  1.770973889E+03  0.000000000E+00  0.00000E+00  9.000E+00
      21    -1     0     0   501   511  0.000000000E+00  0.000000000E+00 -2.719762911E+02  2.719762911E+02  0.000000000E+00  0.00000E+00  9.000E+00
      25     1     1     2     0     0  6.668885161E+02  1.635831826E+01  5.778715801E+02  8.913856913E+02  1.250000000E+02  0.00000E+00  9.000E+00
      25     1     1     2     0     0 -5.997753281E+02 -3.429842411E+01  8.728903505E+02  1.066990811E+03  1.250000000E+02  0.00000E+00  9.000E+00
      21     1     1     2   502   511 -6.711318803E+01  1.794010585E+01  4.823566681E+01  8.457367769E+01  0.000000000E+00  0.00000E+00  9.000E+00
#rwgt            1           1   3.5318827960962591E-002           8      160744           0
</event>
<event>
      5   9999  3.19816E-02  1.30218E+01 -1.00000E+00  1.83372E-01
      21    -1     0     0   502   501  0.000000000E+00  0.000000000E+00  1.112306850E+01  1.112306850E+01  0.000000000E+00  0.00000E+00  9.000E+00
      21    -1     0     0   501   512  0.000000000E+00  0.000000000E+00 -2.081752500E+03  2.081752500E+03  0.000000000E+00  0.00000E+00  9.000E+00
      25     1     1     2     0     0  4.977203408E+01  5.743056430E+01 -1.060918755E+03  1.070957109E+03  1.250000000E+02  0.00000E+00  9.000E+00
      25     1     1     2     0     0 -5.060303639E+01 -4.443530608E+01 -8.599676042E+02  8.716102592E+02  1.250000000E+02  0.00000E+00  9.000E+00
      21     1     1     2   502   512  8.310023074E-01 -1.299525823E+01 -1.497430719E+02  1.503081996E+02  1.907348633E-06  0.00000E+00  9.000E+00
#rwgt            1           1   8.8920380100636687E-002           8      160850           0
</event>
<event>
      5   9999  3.19816E-02  4.49623E+01 -1.00000E+00  1.41759E-01
      21    -1     0     0   502   501  0.000000000E+00  0.000000000E+00  2.539105168E+02  2.539105168E+02  0.000000000E+00  0.00000E+00  9.000E+00
       1    -1     0     0   501     0  0.000000000E+00  0.000000000E+00 -1.543280606E+03  1.543280606E+03  0.000000000E+00  0.00000E+00  9.000E+00
      25     1     1     2     0     0  2.066929483E+02 -2.578001499E+01 -7.339639777E+01  2.537688225E+02  1.250000000E+02  0.00000E+00  9.000E+00
      25     1     1     2     0     0 -2.159169741E+02  6.978595408E+01  6.059811978E+01  2.660589243E+02  1.250000000E+02  0.00000E+00  9.000E+00
       1     1     1     2   502     0  9.224025785E+00 -4.400593909E+01 -1.276571811E+03  1.277363376E+03  3.051757812E-05  0.00000E+00  9.000E+00
#rwgt            1           1   3.0434151366710144E-002           8      160961           0
</event>
<event>
      5   9999  3.19816E-02  4.93372E+01 -1.00000E+00  1.39407E-01
      21    -1     0     0   502   501  0.000000000E+00  0.000000000E+00  6.666430798E+02  6.666430798E+02  0.000000000E+00  0.00000E+00  9.000E+00
      21    -1     0     0   511   502  0.000000000E+00  0.000000000E+00 -2.224543717E+03  2.224543717E+03  0.000000000E+00  0.00000E+00  9.000E+00
      25     1     1     2     0     0 -1.074833349E+03 -5.063541235E+02 -5.066476470E+02  1.297681804E+03  1.250000000E+02  0.00000E+00  9.000E+00
      25     1     1     2     0     0  1.036771011E+03  4.749627127E+02 -9.941385392E+02  1.518031667E+03  1.250000000E+02  0.00000E+00  9.000E+00
      21     1     1     2   511   501  3.806233833E+01  3.139141083E+01 -5.711445109E+01  7.547332506E+01  9.536743164E-07  0.00000E+00  9.000E+00
#rwgt            1           1   6.5844528926715079E-002           8      161027           0
</event>
<event>
      5   9999  3.19816E-02  6.41636E+02 -1.00000E+00  9.58692E-02
      21    -1     0     0   502   501  0.000000000E+00  0.000000000E+00  3.017576523E+03  3.017576523E+03  0.000000000E+00  0.00000E+00  9.000E+00
      21    -1     0     0   501   512  0.000000000E+00  0.000000000E+00 -5.676380623E+02  5.676380623E+02  0.000000000E+00  0.00000E+00  9.000E+00
      25     1     1     2     0     0 -5.290319248E+02 -3.187042902E+02  1.462188050E+03  1.592189089E+03  1.250000000E+02  0.00000E+00  9.000E+00
      25     1     1     2     0     0  2.400462688E+02 -2.541688535E+02  1.246921884E+03  1.301023905E+03  1.250000000E+02  0.00000E+00  9.000E+00
      21     1     1     2   502   512  2.889856560E+02  5.728731437E+02 -2.591714738E+02  6.920015903E+02  1.206313194E-05  0.00000E+00  9.000E+00
#rwgt            2          11   1.1321363238572656E-002           8      161202           0
</event>
<event>
      5   9999  3.19816E-02  2.30334E+02 -1.00000E+00  1.09460E-01
      21    -1     0     0   511   501  0.000000000E+00  0.000000000E+00  3.100221134E+03  3.100221134E+03  0.000000000E+00  0.00000E+00  9.000E+00
      21    -1     0     0   501   502  0.000000000E+00  0.000000000E+00 -1.177890977E+03  1.177890977E+03  0.000000000E+00  0.00000E+00  9.000E+00
      25     1     1     2     0     0 -6.820971732E+02 -1.401982376E+03  1.296205864E+03  2.031399955E+03  1.250000000E+02  0.00000E+00  9.000E+00
      25     1     1     2     0     0  8.994910472E+02  1.325864822E+03  2.967091311E+01  1.607329161E+03  1.250000000E+02  0.00000E+00  9.000E+00
      21     1     1     2   511   502 -2.173938739E+02  7.611755451E+01  5.964533805E+02  6.393829945E+02  7.629394531E-06  0.00000E+00  9.000E+00
#rwgt            1           1   2.7859037139780080E-002           8      161222           0
</event>
<event>
      5   9999  3.19816E-02  1.20547E+02 -1.00000E+00  1.20284E-01
      21    -1     0     0   502   501  0.000000000E+00  0.000000000E+00  1.533617832E+02  1.533617832E+02  0.000000000E+00  0.00000E+00  9.000E+00
       2    -1     0     0   501     0  0.000000000E+00  0.000000000E+00 -1.796777819E+03  1.796777819E+03  0.000000000E+00  0.00000E+00  9.000E+00
      25     1     1     2     0     0 -3.654599374E+02 -8.965721155E+01 -7.707347372E+02  8.667504927E+02  1.250000000E+02  0.00000E+00  9.000E+00
      25     1     1     2     0     0  3.981615979E+02  2.056842627E+02 -4.631491578E+02  6.564836756E+02  1.250000000E+02  0.00000E+00  9.000E+00
       2     1     1     2   502     0 -3.270166049E+01 -1.160270512E+02 -4.095321409E+02  4.269054341E+02  7.629394531E-06  0.00000E+00  9.000E+00
#rwgt            1           1   2.8384565064158870E-002           8      161311           0
</event>
<event>
      5   9999  3.19816E-02  1.42098E+02 -1.00000E+00  1.17333E-01
      21    -1     0     0   502   501  0.000000000E+00  0.000000000E+00  1.732137059E+03  1.732137059E+03  0.000000000E+00  0.00000E+00  9.000E+00
      21    -1     0     0   511   502  0.000000000E+00  0.000000000E+00 -4.445543359E+02  4.445543359E+02  0.000000000E+00  0.00000E+00  9.000E+00
      25     1     1     2     0     0  4.177268237E+02  7.478282282E+02  5.073164791E+02  1.003363228E+03  1.250000000E+02  0.00000E+00  9.000E+00
      25     1     1     2     0     0 -3.216002418E+02 -6.431786763E+02  6.936253528E+02  1.006899526E+03  1.250000000E+02  0.00000E+00  9.000E+00
      21     1     1     2   511   501 -9.612658192E+01 -1.046495519E+02  8.664089156E+01  1.664286410E+02  1.651812370E-06  0.00000E+00  9.000E+00
#rwgt            1           1   3.2752009687602855E-002           8      161345           0
</event>
<event>
      5   9999  3.19816E-02  3.73125E+01 -1.00000E+00  1.46739E-01
      21    -1     0     0   502   501  0.000000000E+00  0.000000000E+00  1.321924709E+02  1.321924709E+02  0.000000000E+00  0.00000E+00  9.000E+00
      21    -1     0     0   501   512  0.000000000E+00  0.000000000E+00 -1.049968287E+03  1.049968287E+03  0.000000000E+00  0.00000E+00  9.000E+00
      25     1     1     2     0     0 -1.655331063E+02  1.963345880E+02 -4.693304507E+02  5.494038148E+02  1.250000000E+02  0.00000E+00  9.000E+00
      25     1     1     2     0     0  1.881709442E+02 -1.666739820E+02 -1.252421822E+02  3.074070994E+02  1.250000000E+02  0.00000E+00  9.000E+00
      21     1     1     2   502   512 -2.263783789E+01 -2.966060599E+01 -3.232031831E+02  3.253498437E+02  3.814697266E-06  0.00000E+00  9.000E+00
#rwgt            1           1   2.7453723883667427E-002           8      161464           0
</event>
<event>
      5   9999  3.19816E-02  1.69725E+02 -1.00000E+00  1.14306E-01
      21    -1     0     0   502   511  0.000000000E+00  0.000000000E+00  3.148265613E+02  3.148265613E+02  0.000000000E+00  0.00000E+00  9.000E+00
      21    -1     0     0   501   502  0.000000000E+00  0.000000000E+00 -7.645355824E+02  7.645355824E+02  0.000000000E+00  0.00000E+00  9.000E+00
      25     1     1     2     0     0  2.766146259E+01 -1.985561256E+02 -1.752998825E+01  2.369008063E+02  1.250000000E+02  0.00000E+00  9.000E+00
      25     1     1     2     0     0 -1.182714387E+02  3.420709708E+02 -5.243815240E+02  6.493086053E+02  1.250000000E+02  0.00000E+00  9.000E+00
      21     1     1     2   501   511  9.060997612E+01 -1.435148451E+02  9.220249110E+01  1.931527321E+02  1.348699152E-06  0.00000E+00  9.000E+00
#rwgt            1           1   2.7704093609175768E-002           8      161593           0
</event>
<event>
      5   9999  3.19816E-02  2.52995E+01 -1.00000E+00  1.58364E-01
      21    -1     0     0   502   512  0.000000000E+00  0.000000000E+00  9.831259421E+02  9.831259421E+02  0.000000000E+00  0.00000E+00  9.000E+00
      21    -1     0     0   501   502  0.000000000E+00  0.000000000E+00 -7.782886400E+01  7.782886400E+01  0.000000000E+00  0.00000E+00  9.000E+00
      25     1     1     2     0     0  1.699463268E+02  1.518873374E+01  5.828253430E+02  6.200184127E+02  1.250000000E+02  0.00000E+00  9.000E+00
      25     1     1     2     0     0 -1.597496374E+02  7.964919983E+00  1.177907682E+02  2.346977880E+02  1.250000000E+02  0.00000E+00  9.000E+00
      21     1     1     2   501   512 -1.019668937E+01 -2.315365372E+01  2.046809668E+02  2.062386054E+02  2.697398305E-06  0.00000E+00  9.000E+00
#rwgt            1           1   2.7655104683796280E-002           8      161644           0
</event>
<event>
      5   9999  3.19816E-02  2.33846E+02 -1.00000E+00  1.09231E-01
      21    -1     0     0   502   501  0.000000000E+00  0.000000000E+00  2.319420976E+02  2.319420976E+02  0.000000000E+00  0.00000E+00  9.000E+00
      21    -1     0     0   511   502  0.000000000E+00  0.000000000E+00 -7.553460529E+02  7.553460529E+02  0.000000000E+00  0.00000E+00  9.000E+00
      25     1     1     2     0     0  8.939941206E+01 -1.902502562E+02 -8.237447051E+01  2.580658216E+02  1.250000000E+02  0.00000E+00  9.000E+00
      25     1     1     2     0     0 -3.232599180E+01 -3.652417613E+01  8.133363519E+01  1.569048929E+02  1.250000000E+02  0.00000E+00  9.000E+00
      21     1     1     2   511   501 -5.707342026E+01  2.267744323E+02 -5.223631200E+02  5.723174360E+02  1.078959322E-05  0.00000E+00  9.000E+00
#rwgt            1           1   2.1189964801856049E-002           8      161749           0
</event>
<event>
      5   9999  3.19816E-02  3.21950E+01 -1.00000E+00  1.50940E-01
      21    -1     0     0   502   501  0.000000000E+00  0.000000000E+00  1.669102502E+02  1.669102502E+02  0.000000000E+00  0.00000E+00  9.000E+00
      21    -1     0     0   512   502  0.000000000E+00  0.000000000E+00 -1.561490510E+03  1.561490510E+03  0.000000000E+00  0.00000E+00  9.000E+00
      25     1     1     2     0     0  3.105130902E+02  2.202516753E+02 -1.830429521E+02  4.405211709E+02  1.250000000E+02  0.00000E+00  9.000E+00
      25     1     1     2     0     0 -3.272533966E+02 -1.927510801E+02 -1.058703774E+03  1.131691851E+03  1.250000000E+02  0.00000E+00  9.000E+00
      21     1     1     2   512   501  1.674030638E+01 -2.750059519E+01 -1.528335330E+02  1.561877377E+02  1.907348633E-06  0.00000E+00  9.000E+00
#rwgt            1           1   2.6399526865284646E-002           8      161789           0
</event>
<event>
      5   9999  3.19816E-02  1.14244E+02 -1.00000E+00  1.21281E-01
      21    -1     0     0   502   511  0.000000000E+00  0.000000000E+00  4.554891878E+02  4.554891878E+02  0.000000000E+00  0.00000E+00  9.000E+00
      21    -1     0     0   501   502  0.000000000E+00  0.000000000E+00 -2.115832147E+03  2.115832147E+03  0.000000000E+00  0.00000E+00  9.000E+00
      25     1     1     2     0     0 -3.970486060E+01 -1.730288116E+02 -2.051747701E+03  2.063203595E+03  1.250000000E+02  0.00000E+00  9.000E+00
      25     1     1     2     0     0  2.771088323E+01  5.941621506E+01  5.270320699E+01  1.506678721E+02  1.250000000E+02  0.00000E+00  9.000E+00
      21     1     1     2   501   511  1.199397737E+01  1.136125965E+02  3.387015353E+02  3.574498673E+02  3.814697266E-06  0.00000E+00  9.000E+00
#rwgt            1           1   3.1335431730199245E-002           8      161916           0
</event>
<event>
      5   9999  3.19816E-02  8.41943E+01 -1.00000E+00  1.27284E-01
      21    -1     0     0   502   501  0.000000000E+00  0.000000000E+00  1.530262554E+03  1.530262554E+03  0.000000000E+00  0.00000E+00  9.000E+00
      21    -1     0     0   501   512  0.000000000E+00  0.000000000E+00 -1.779082252E+02  1.779082252E+02  0.000000000E+00  0.00000E+00  9.000E+00
      25     1     1     2     0     0  3.589059450E+02 -2.901368624E+02  6.964070323E+02  8.447488567E+02  1.250000000E+02  0.00000E+00  9.000E+00
      25     1     1     2     0     0 -2.925223214E+02  3.419239467E+02  6.075625497E+02  7.663149128E+02  1.250000000E+02  0.00000E+00  9.000E+00
      21     1     1     2   502   512 -6.638362359E+01 -5.178708427E+01  4.838474670E+01  9.710700949E+01  1.348699152E-06  0.00000E+00  9.000E+00
#rwgt            1           1   2.9436692944255563E-002           8      161978           0
</event>
<event>
      5   9999  3.19816E-02  2.40890E+01 -1.00000E+00  1.59968E-01
      -1    -1     0     0     0   501  0.000000000E+00  0.000000000E+00  9.029310218E+02  9.029310218E+02  0.000000000E+00  0.00000E+00  9.000E+00
      21    -1     0     0   501   502  0.000000000E+00  0.000000000E+00 -2.534695796E+02  2.534695796E+02  0.000000000E+00  0.00000E+00  9.000E+00
      25     1     1     2     0     0 -3.610884799E+02 -9.635791123E+01  4.661222250E+01  3.968216686E+02  1.250000000E+02  0.00000E+00  9.000E+00
      25     1     1     2     0     0  3.848760440E+02  1.001571009E+02  4.861174070E+02  6.403874979E+02  1.250000000E+02  0.00000E+00  9.000E+00
      -1     1     1     2     0   502 -2.378756413E+01 -3.799189654E+00  1.167318127E+02  1.191914349E+02  0.000000000E+00  0.00000E+00  9.000E+00
#rwgt            1           1   2.8432354013784494E-002           8      162052           0
</event>
<event>
      5   9999  3.19816E-02  3.66938E+01 -1.00000E+00  1.47203E-01
      21    -1     0     0   511   501  0.000000000E+00  0.000000000E+00  6.295012748E+01  6.295012748E+01  0.000000000E+00  0.00000E+00  9.000E+00
      21    -1     0     0   501   502  0.000000000E+00  0.000000000E+00 -1.286075148E+03  1.286075148E+03  0.000000000E+00  0.00000E+00  9.000E+00
      25     1     1     2     0     0 -5.570995424E+01 -1.907303851E+02 -8.075651736E+02  8.409923831E+02  1.250000000E+02  0.00000E+00  9.000E+00
      25     1     1     2     0     0  8.253478870E+01  1.656931926E+02 -4.150493904E+02  4.713355725E+02  1.250000000E+02  0.00000E+00  9.000E+00
      21     1     1     2   511   502 -2.682483446E+01  2.503719250E+01 -5.104569457E-01  3.669732032E+01  1.204991777E-06  0.00000E+00  9.000E+00
#rwgt            1           1   3.5434232061791887E-002           8      162357           0
</event>
<event>
      5   9999  3.19816E-02  8.57318E+00 -1.00000E+00  2.03817E-01
      21    -1     0     0   502   501  0.000000000E+00  0.000000000E+00  1.070414611E+02  1.070414611E+02  0.000000000E+00  0.00000E+00  9.000E+00
      -1    -1     0     0     0   502  0.000000000E+00  0.000000000E+00 -1.735241912E+03  1.735241912E+03  0.000000000E+00  0.00000E+00  9.000E+00
      25     1     1     2     0     0  5.781802951E+01 -1.547477941E+02 -1.437909862E+02  2.521718701E+02  1.250000000E+02  0.00000E+00  9.000E+00
      25     1     1     2     0     0 -6.524780067E+01  1.504701794E+02 -1.483632951E+02  2.540378274E+02  1.250000000E+02  0.00000E+00  9.000E+00
      -1     1     1     2     0   501  7.429771158E+00  4.277614749E+00 -1.336046169E+03  1.336073675E+03  0.000000000E+00  0.00000E+00  9.000E+00
#rwgt            1           1   2.5595225308665190E-002           8      162438           0
</event>
<event>
      5   9999  3.19816E-02  3.21354E+02 -1.00000E+00  1.04631E-01
      21    -1     0     0   511   501  0.000000000E+00  0.000000000E+00  7.632591178E+02  7.632591178E+02  0.000000000E+00  0.00000E+00  9.000E+00
      21    -1     0     0   501   502  0.000000000E+00  0.000000000E+00 -6.748812703E+02  6.748812703E+02  0.000000000E+00  0.00000E+00  9.000E+00
      25     1     1     2     0     0 -3.908875559E+02 -9.229655129E+01 -3.650905639E+02  5.569810182E+02  1.250000000E+02  0.00000E+00  9.000E+00
      25     1     1     2     0     0  3.362953971E+02 -2.243862381E+02  3.310661404E+02  5.372835074E+02  1.250000000E+02  0.00000E+00  9.000E+00
      21     1     1     2   511   502  5.459215881E+01  3.166827894E+02  1.224022710E+02  3.438758626E+02  2.336015456E-06  0.00000E+00  9.000E+00
#rwgt            2          11   3.5421646132802803E-003           8      162651           0
</event>
<event>
      5   9999  3.19816E-02  2.58725E+01 -1.00000E+00  1.57643E-01
      21    -1     0     0   512   501  0.000000000E+00  0.000000000E+00  8.660589448E+02  8.660589448E+02  0.000000000E+00  0.00000E+00  9.000E+00
      21    -1     0     0   501   502  0.000000000E+00  0.000000000E+00 -1.170202926E+02  1.170202926E+02  0.000000000E+00  0.00000E+00  9.000E+00
      25     1     1     2     0     0 -5.399379811E+01 -2.684345434E+02  5.017520768E+02  5.851090334E+02  1.250000000E+02  0.00000E+00  9.000E+00
      25     1     1     2     0     0  6.286919958E+01  2.441320541E+02  2.040493070E+02  3.475832501E+02  1.250000000E+02  0.00000E+00  9.000E+00
      21     1     1     2   512   502 -8.875401468E+00  2.430248938E+01  4.323726839E+01  5.038695386E+01  4.768371582E-07  0.00000E+00  9.000E+00
#rwgt            1           1   1.8180596182153445E-002           8      162671           0
</event>
<event>
      5   9999  3.19816E-02  3.82142E+02 -1.00000E+00  1.02286E-01
      21    -1     0     0   502   501  0.000000000E+00  0.000000000E+00  1.087946358E+03  1.087946358E+03  0.000000000E+00  0.00000E+00  9.000E+00
       2    -1     0     0   501     0  0.000000000E+00  0.000000000E+00 -1.484202780E+03  1.484202780E+03  0.000000000E+00  0.00000E+00  9.000E+00
      25     1     1     2     0     0 -5.736763439E+02 -2.526525440E+02  1.812654256E+02  6.643944687E+02  1.250000000E+02  0.00000E+00  9.000E+00
      25     1     1     2     0     0  7.980772610E+02 -5.666406752E+01 -1.033403901E+03  1.312892514E+03  1.250000000E+02  0.00000E+00  9.000E+00
       2     1     1     2   502     0 -2.244009171E+02  3.093166115E+02  4.558820525E+02  5.948621551E+02  5.394796609E-06  0.00000E+00  9.000E+00
#rwgt            2          13   1.5979078820056172E-004           8      162828           0
</event>
<event>
      5   9999  3.19816E-02  8.60939E+01 -1.00000E+00  1.26825E-01
      21    -1     0     0   502   501  0.000000000E+00  0.000000000E+00  4.742099115E+02  4.742099115E+02  0.000000000E+00  0.00000E+00  9.000E+00
       2    -1     0     0   501     0  0.000000000E+00  0.000000000E+00 -7.369120749E+02  7.369120749E+02  0.000000000E+00  0.00000E+00  9.000E+00
      25     1     1     2     0     0 -2.367437149E+02  2.996821361E+02 -4.572636560E+02  6.087462693E+02  1.250000000E+02  0.00000E+00  9.000E+00
      25     1     1     2     0     0  2.257624717E+02 -3.850728576E+02  2.192924638E+02  5.128001403E+02  1.250000000E+02  0.00000E+00  9.000E+00
       2     1     1     2   502     0  1.098124326E+01  8.539072150E+01 -2.473097107E+01  8.957557676E+01  1.651812370E-06  0.00000E+00  9.000E+00
#rwgt            2          13   1.1066002430106087E-004           8      162907           0
</event>
<event>
      5   9999  3.19816E-02  1.86604E+02 -1.00000E+00  1.12755E-01
      21    -1     0     0   502   501  0.000000000E+00  0.000000000E+00  7.466334949E+02  7.466334949E+02  0.000000000E+00  0.00000E+00  9.000E+00
      21    -1     0     0   511   502  0.000000000E+00  0.000000000E+00 -6.211145201E+02  6.211145201E+02  0.000000000E+00  0.00000E+00  9.000E+00
      25     1     1     2     0     0  1.253241090E+02 -4.324290068E+02  2.685464976E+02  5.389278241E+02  1.250000000E+02  0.00000E+00  9.000E+00
      25     1     1     2     0     0  6.058508794E+01  4.163355375E+02  1.648263650E+02  4.688267945E+02  1.250000000E+02  0.00000E+00  9.000E+00
      21     1     1     2   511   501 -1.859091969E+02  1.609346934E+01 -3.078538877E+02  3.599933964E+02  3.814697266E-06  0.00000E+00  9.000E+00
#rwgt            2          11   3.4105483957172344E-003           8      163136           0
</event>
<event>
      5   9999  3.19816E-02  4.60137E+01 -1.00000E+00  1.41166E-01
      21    -1     0     0   512   501  0.000000000E+00  0.000000000E+00  8.278036090E+02  8.278036090E+02  0.000000000E+00  0.00000E+00  9.000E+00
      21    -1     0     0   501   502  0.000000000E+00  0.000000000E+00 -7.795453893E+01  7.795453893E+01  0.000000000E+00  0.00000E+00  9.000E+00
      25     1     1     2     0     0  1.138238093E+02  7.549446228E+01  2.465904076E+02  3.083619667E+02  1.250000000E+02  0.00000E+00  9.000E+00
      25     1     1     2     0     0 -1.373478632E+02 -1.150403417E+02  2.186137189E+02  3.090561014E+02  1.250000000E+02  0.00000E+00  9.000E+00
      21     1     1     2   512   502  2.352405391E+01  3.954587945E+01  2.846449437E+02  2.883400798E+02  6.607249480E-06  0.00000E+00  9.000E+00
#rwgt            1           1   3.1114795267814944E-002           8      163171           0
</event>
<event>
      5   9999  3.19816E-02  7.04933E+01 -1.00000E+00  1.31066E-01
      21    -1     0     0   502   501  0.000000000E+00  0.000000000E+00  8.355353554E+02  8.355353554E+02  0.000000000E+00  0.00000E+00  9.000E+00
      21    -1     0     0   511   502  0.000000000E+00  0.000000000E+00 -2.810165229E+02  2.810165229E+02  0.000000000E+00  0.00000E+00  9.000E+00
      25     1     1     2     0     0  1.119753646E+02  2.454126036E+02  1.755868409E+01  2.978240012E+02  1.250000000E+02  0.00000E+00  9.000E+00
      25     1     1     2     0     0 -1.821608345E+02 -2.388317368E+02  6.257997900E+02  7.053180455E+02  1.250000000E+02  0.00000E+00  9.000E+00
      21     1     1     2   511   501  7.018546987E+01 -6.580866771E+00 -8.883964156E+01  1.134098316E+02  2.132480600E-06  0.00000E+00  9.000E+00
#rwgt            1           1   2.4147492603820989E-002           8      163221           0
</event>
<event>
      5   9999  3.19816E-02  3.90679E+01 -1.00000E+00  1.45478E-01
      21    -1     0     0   512   501  0.000000000E+00  0.000000000E+00  1.798420343E+03  1.798420343E+03  0.000000000E+00  0.00000E+00  9.000E+00
      21    -1     0     0   501   502  0.000000000E+00  0.000000000E+00 -1.167247764E+02  1.167247764E+02  0.000000000E+00  0.00000E+00  9.000E+00
      25     1     1     2     0     0  2.238802066E+02  3.258234430E+02  6.178853121E+02  7.441038380E+02  1.250000000E+02  0.00000E+00  9.000E+00
      25     1     1     2     0     0 -2.556053981E+02 -3.486229008E+02  9.640100148E+02  1.063866700E+03  1.250000000E+02  0.00000E+00  9.000E+00
      21     1     1     2   512   502  3.172519142E+01  2.279945783E+01  9.980024033E+01  1.071745820E+02  1.907348633E-06  0.00000E+00  9.000E+00
#rwgt            1           1   3.2379014872069060E-002           8      163344           0
</event>
<event>
      5   9999  3.19816E-02  6.81590E+01 -1.00000E+00  1.31810E-01
      21    -1     0     0   502   501  0.000000000E+00  0.000000000E+00  3.370498038E+02  3.370498038E+02  0.000000000E+00  0.00000E+00  9.000E+00
       2    -1     0     0   501     0  0.000000000E+00  0.000000000E+00 -2.607070044E+03  2.607070044E+03  0.000000000E+00  0.00000E+00  9.000E+00
      25     1     1     2     0     0  1.478643130E+02  9.609514381E+01  2.721543210E+02  3.475501491E+02  1.250000000E+02  0.00000E+00  9.000E+00
      25     1     1     2     0     0 -1.497857904E+02 -1.642270625E+02 -5.844888793E+02  6.376978604E+02  1.250000000E+02  0.00000E+00  9.000E+00
       2     1     1     2   502     0  1.921477370E+00  6.813191873E+01 -1.957685682E+03  1.958871839E+03  3.737624730E-05  0.00000E+00  9.000E+00
#rwgt            1           1   2.5428782420562523E-002           8      163478           0
</event>
<event>
      5   9999  3.19816E-02  4.01676E+01 -1.00000E+00  1.44728E-01
      21    -1     0     0   502   511  0.000000000E+00  0.000000000E+00  7.117343775E+02  7.117343775E+02  0.000000000E+00  0.00000E+00  9.000E+00
      21    -1     0     0   501   502  0.000000000E+00  0.000000000E+00 -1.118929271E+03  1.118929271E+03  0.000000000E+00  0.00000E+00  9.000E+00
      25     1     1     2     0     0 -5.095898536E+02  9.409979876E+01 -8.225450016E+02  9.801744083E+02  1.250000000E+02  0.00000E+00  9.000E+00
      25     1     1     2     0     0  4.731064649E+02 -1.109045868E+02  7.446656492E+01  5.072473005E+02  1.250000000E+02  0.00000E+00  9.000E+00
      21     1     1     2   501   511  3.648338870E+01  1.680478800E+01  3.408835437E+02  3.432419393E+02  6.607249480E-06  0.00000E+00  9.000E+00
#rwgt            1           1   2.8636324094085119E-002           8      163578           0
</event>
<event>
      5   9999  3.19816E-02  6.78471E+01 -1.00000E+00  1.31911E-01
      21    -1     0     0   502   501  0.000000000E+00  0.000000000E+00  1.047399559E+03  1.047399559E+03  0.000000000E+00  0.00000E+00  9.000E+00
      21    -1     0     0   501   512  0.000000000E+00  0.000000000E+00 -2.662963002E+02  2.662963002E+02  0.000000000E+00  0.00000E+00  9.000E+00
      25     1     1     2     0     0 -1.741112082E+02 -1.268630571E+02  1.457340833E+02  2.885695256E+02  1.250000000E+02  0.00000E+00  9.000E+00
      25     1     1     2     0     0  1.066456121E+02  1.340480027E+02  8.102532715E+02  8.375425468E+02  1.250000000E+02  0.00000E+00  9.000E+00
      21     1     1     2   502   512  6.746559606E+01 -7.184945513E+00 -1.748840959E+02  1.875837869E+02  3.814697266E-06  0.00000E+00  9.000E+00
#rwgt            1           1   2.7196141083670345E-002           8      163796           0
</event>
<event>
      5   9999  3.19816E-02  2.03027E+02 -1.00000E+00  1.11411E-01
      21    -1     0     0   502   501  0.000000000E+00  0.000000000E+00  2.292342526E+02  2.292342526E+02  0.000000000E+00  0.00000E+00  9.000E+00
      21    -1     0     0   511   502  0.000000000E+00  0.000000000E+00 -3.424325641E+03  3.424325641E+03  0.000000000E+00  0.00000E+00  9.000E+00
      25     1     1     2     0     0  2.125624772E+02  1.516543134E+02 -2.692474036E+02  3.953492150E+02  1.250000000E+02  0.00000E+00  9.000E+00
      25     1     1     2     0     0 -1.254357316E+01 -1.168322582E+02  1.176047062E+02  2.079975594E+02  1.250000000E+02  0.00000E+00  9.000E+00
      21     1     1     2   511   501 -2.000189040E+02 -3.482205513E+01 -3.043448691E+03  3.050213119E+03  4.315837288E-05  0.00000E+00  9.000E+00
#rwgt            1           1   2.9407097088433729E-002           8      163854           0
</event>
<event>
      5   9999  3.19816E-02  3.85431E+01 -1.00000E+00  1.45847E-01
      21    -1     0     0   502   501  0.000000000E+00  0.000000000E+00  7.910334555E+02  7.910334555E+02  0.000000000E+00  0.00000E+00  9.000E+00
       1    -1     0     0   501     0  0.000000000E+00  0.000000000E+00 -1.232606251E+03  1.232606251E+03  0.000000000E+00  0.00000E+00  9.000E+00
      25     1     1     2     0     0 -4.851893405E+02  1.318106781E+02  4.819037226E+02  7.075584420E+02  1.250000000E+02  0.00000E+00  9.000E+00
      25     1     1     2     0     0  4.509923289E+02 -1.495909119E+02 -1.123029688E+02  5.039925381E+02  1.250000000E+02  0.00000E+00  9.000E+00
       1     1     1     2   502     0  3.419701156E+01  1.778023383E+01 -8.111735490E+02  8.120887260E+02  1.078959322E-05  0.00000E+00  9.000E+00
#rwgt            1           1   3.1660536335272868E-002           8      163919           0
</event>
<event>
      5   9999  3.19816E-02  3.54332E+01 -1.00000E+00  1.48183E-01
       2    -1     0     0   502     0  0.000000000E+00  0.000000000E+00  1.321108525E+03  1.321108525E+03  0.000000000E+00  0.00000E+00  9.000E+00
      21    -1     0     0   501   502  0.000000000E+00  0.000000000E+00 -1.676033747E+03  1.676033747E+03  0.000000000E+00  0.00000E+00  9.000E+00
      25     1     1     2     0     0 -3.181309672E+02  1.315894613E+03 -5.838566620E+02  1.479628178E+03  1.250000000E+02  0.00000E+00  9.000E+00
      25     1     1     2     0     0  2.917874005E+02 -1.292198035E+03  4.624170685E+01  1.331419898E+03  1.250000000E+02  0.00000E+00  9.000E+00
       2     1     1     2   501     0  2.634356666E+01 -2.369657792E+01  1.826897336E+02  1.860941967E+02  2.697398305E-06  0.00000E+00  9.000E+00
#rwgt            1           1   4.6195260041372192E-002           8      164029           0
</event>
<event>
      5   9999  3.19816E-02  2.11062E+02 -1.00000E+00  1.10803E-01
      21    -1     0     0   502   511  0.000000000E+00  0.000000000E+00  3.272299337E+02  3.272299337E+02  0.000000000E+00  0.00000E+00  9.000E+00
      21    -1     0     0   501   502  0.000000000E+00  0.000000000E+00 -1.128213709E+03  1.128213709E+03  0.000000000E+00  0.00000E+00  9.000E+00
      25     1     1     2     0     0 -2.128717457E+02  2.175444144E+02 -6.191196166E+02  7.011234214E+02  1.250000000E+02  0.00000E+00  9.000E+00
      25     1     1     2     0     0  4.236723167E+02 -2.280527701E+02 -2.132603001E+02  5.409355354E+02  1.250000000E+02  0.00000E+00  9.000E+00
      21     1     1     2   501   511 -2.108005710E+02  1.050835563E+01  3.139614182E+01  2.133846855E+02  3.251595902E-06  0.00000E+00  9.000E+00
#rwgt            1           1   3.0322413938956783E-002           8      164175           0
</event>
<event>
      5   9999  3.19816E-02  5.87049E+01 -1.00000E+00  1.35212E-01
      -2    -1     0     0     0   501  0.000000000E+00  0.000000000E+00  2.916784073E+02  2.916784073E+02  0.000000000E+00  0.00000E+00  9.000E+00
      21    -1     0     0   501   502  0.000000000E+00  0.000000000E+00 -8.132763149E+02  8.132763149E+02  0.000000000E+00  0.00000E+00  9.000E+00
      25     1     1     2     0     0  1.937022165E+02  2.044056260E+02 -2.194027143E+02  3.782390245E+02  1.250000000E+02  0.00000E+00  9.000E+00
      25     1     1     2     0     0 -2.327016617E+02 -1.605273546E+02 -4.623402936E+02  5.561498377E+02  1.250000000E+02  0.00000E+00  9.000E+00
      -2     1     1     2     0   502  3.899944519E+01 -4.387827139E+01  1.601451003E+02  1.705658599E+02  2.697398305E-06  0.00000E+00  9.000E+00
#rwgt            1           1   2.7781495346826803E-002           8      164218           0
</event>
<event>
      5   9999  3.19816E-02  1.51349E+02 -1.00000E+00  1.16240E-01
       1    -1     0     0   502     0  0.000000000E+00  0.000000000E+00  5.906702120E+02  5.906702120E+02  0.000000000E+00  0.00000E+00  9.000E+00
      21    -1     0     0   501   502  0.000000000E+00  0.000000000E+00 -3.102434881E+02  3.102434881E+02  0.000000000E+00  0.00000E+00  9.000E+00
      25     1     1     2     0     0  2.262639423E+02 -2.142513300E+02  2.030033426E+02  3.923446968E+02  1.250000000E+02  0.00000E+00  9.000E+00
      25     1     1     2     0     0 -8.464299232E+01  2.676381677E+02 -4.925598484E+01  3.112005415E+02  1.250000000E+02  0.00000E+00  9.000E+00
       1     1     1     2   501     0 -1.416209500E+02 -5.338683772E+01  1.266793661E+02  1.973684618E+02  4.473129043E-06  0.00000E+00  9.000E+00
#rwgt            1           1   2.5372268278299078E-002           8      164291           0
</event>
<event>
      5   9999  3.19816E-02  1.46030E+01 -1.00000E+00  1.78488E-01
      21    -1     0     0   502   501  0.000000000E+00  0.000000000E+00  1.438243665E+03  1.438243665E+03  0.000000000E+00  0.00000E+00  9.000E+00
       1    -1     0     0   501     0  0.000000000E+00  0.000000000E+00 -2.817053603E+02  2.817053603E+02  0.000000000E+00  0.00000E+00  9.000E+00
      25     1     1     2     0     0  4.295567040E+02  1.315388645E+01  5.279984245E+02  6.921700102E+02  1.250000000E+02  0.00000E+00  9.000E+00
      25     1     1     2     0     0 -4.149645215E+02 -1.371682590E+01  7.710056411E+02  8.845667889E+02  1.250000000E+02  0.00000E+00  9.000E+00
       1     1     1     2   502     0 -1.459218255E+01  5.629394542E-01 -1.424657609E+02  1.432122262E+02  3.814697266E-06  0.00000E+00  9.000E+00
#rwgt            1           1   2.7818040267041044E-002           8      164359           0
</event>
<event>
      5   9999  3.19816E-02  8.13172E+00 -1.00000E+00  2.06748E-01
      21    -1     0     0   502   511  0.000000000E+00  0.000000000E+00  3.258288011E+01  3.258288011E+01  0.000000000E+00  0.00000E+00  9.000E+00
      21    -1     0     0   501   502  0.000000000E+00  0.000000000E+00 -1.808784564E+03  1.808784564E+03  0.000000000E+00  0.00000E+00  9.000E+00
      25     1     1     2     0     0 -9.002181906E+01  1.338130151E+02 -1.351610333E+03  1.366925507E+03  1.250000000E+02  0.00000E+00  9.000E+00
      25     1     1     2     0     0  9.587642611E+01 -1.281695731E+02 -4.011230848E+02  4.496047794E+02  1.250000000E+02  0.00000E+00  9.000E+00
      21     1     1     2   501   511 -5.854607052E+00 -5.643442013E+00 -2.346826665E+01  2.483715766E+01  0.000000000E+00  0.00000E+00  9.000E+00
#rwgt            1           1   2.4881226678955249E-002           8      164585           0
</event>
<event>
      5   9999  3.19816E-02  1.53522E+01 -1.00000E+00  1.76439E-01
      21    -1     0     0   512   501  0.000000000E+00  0.000000000E+00  7.237128919E+02  7.237128919E+02  0.000000000E+00  0.00000E+00  9.000E+00
      21    -1     0     0   501   502  0.000000000E+00  0.000000000E+00 -4.919064433E+02  4.919064433E+02  0.000000000E+00  0.00000E+00  9.000E+00
      25     1     1     2     0     0 -1.468838626E+02  5.219788288E+02 -2.359175828E+01  5.569724750E+02  1.250000000E+02  0.00000E+00  9.000E+00
      25     1     1     2     0     0  1.336778220E+02 -5.141499467E+02  1.696164014E+02  5.715021010E+02  1.250000000E+02  0.00000E+00  9.000E+00
      21     1     1     2   512   502  1.320604060E+01 -7.828882142E+00  8.578180548E+01  8.714475920E+01  9.536743164E-07  0.00000E+00  9.000E+00
#rwgt            1           1   2.8879796540879750E-002           8      164887           0
</event>
<event>
      5   9999  3.19816E-02  1.76818E+01 -1.00000E+00  1.70908E-01
      21    -1     0     0   511   501  0.000000000E+00  0.000000000E+00  9.285828939E+02  9.285828939E+02  0.000000000E+00  0.00000E+00  9.000E+00
      21    -1     0     0   501   502  0.000000000E+00  0.000000000E+00 -4.766985986E+01  4.766985986E+01  0.000000000E+00  0.00000E+00  9.000E+00
      25     1     1     2     0     0 -8.605651239E+01  8.603190244E+01  2.646027742E+02  3.169334941E+02  1.250000000E+02  0.00000E+00  9.000E+00
      25     1     1     2     0     0  1.022854184E+02 -9.305106115E+01  3.893395263E+02  4.316608316E+02  1.250000000E+02  0.00000E+00  9.000E+00
      21     1     1     2   511   502 -1.622890606E+01  7.019158714E+00  2.269707336E+02  2.276584281E+02  4.672030912E-06  0.00000E+00  9.000E+00
#rwgt            1           1   3.2963156104785757E-002           8      165207           0
</event>
<event>
      5   9999  3.19816E-02  2.53513E+01 -1.00000E+00  1.58298E-01
      21    -1     0     0   502   512  0.000000000E+00  0.000000000E+00  2.665890494E+02  2.665890494E+02  0.000000000E+00  0.00000E+00  9.000E+00
      21    -1     0     0   501   502  0.000000000E+00  0.000000000E+00 -7.265814656E+02  7.265814656E+02  0.000000000E+00  0.00000E+00  9.000E+00
      25     1     1     2     0     0 -1.242761508E+02  1.554904980E+02 -4.361450357E+02  4.954486338E+02  1.250000000E+02  0.00000E+00  9.000E+00
      25     1     1     2     0     0  9.940528808E+01 -1.505784858E+02 -2.136040468E+02  3.062792524E+02  1.250000000E+02  0.00000E+00  9.000E+00
      21     1     1     2   501   512  2.487086270E+01 -4.912012226E+00  1.897566663E+02  1.914426287E+02  2.697398305E-06  0.00000E+00  9.000E+00
#rwgt            1           1   2.7273752878373525E-002           8      165372           0
</event>
<event>
      5   9999  3.19816E-02  2.67748E+01 -1.00000E+00  1.56552E-01
      21    -1     0     0   502   501  0.000000000E+00  0.000000000E+00  2.697383358E+02  2.697383358E+02  0.000000000E+00  0.00000E+00  9.000E+00
      21    -1     0     0   511   502  0.000000000E+00  0.000000000E+00 -2.427113087E+02  2.427113087E+02  0.000000000E+00  0.00000E+00  9.000E+00
      25     1     1     2     0     0 -1.255536492E+00  1.551056859E+02 -1.059215683E+02  2.256185472E+02  1.250000000E+02  0.00000E+00  9.000E+00
      25     1     1     2     0     0 -7.659236349E+00 -1.803527577E+02  1.383435155E+02  2.595182255E+02  1.250000000E+02  0.00000E+00  9.000E+00
      21     1     1     2   511   501  8.914772841E+00  2.524707178E+01 -5.394920019E+00  2.731287188E+01  6.848052319E-07  0.00000E+00  9.000E+00
#rwgt            1           1   2.7512998423847454E-002           8      165498           0
</event>
<event>
      5   9999  3.19816E-02  9.42141E+00 -1.00000E+00  1.98798E-01
      21    -1     0     0   502   512  0.000000000E+00  0.000000000E+00  2.664825871E+02  2.664825871E+02  0.000000000E+00  0.00000E+00  9.000E+00
      21    -1     0     0   501   502  0.000000000E+00  0.000000000E+00 -8.268712101E+02  8.268712101E+02  0.000000000E+00  0.00000E+00  9.000E+00
      25     1     1     2     0     0 -1.722700650E+02  6.045188399E+01 -7.512949512E+02  7.831988951E+02  1.250000000E+02  0.00000E+00  9.000E+00
      25     1     1     2     0     0  1.816567048E+02 -6.126059064E+01  1.637455883E+02  2.814065317E+02  1.250000000E+02  0.00000E+00  9.000E+00
      21     1     1     2   501   512 -9.386639794E+00  8.087066521E-01  2.716073984E+01  2.874837042E+01  3.371747881E-07  0.00000E+00  9.000E+00
#rwgt            1           1   3.4461077947617109E-002           8      165598           0
</event>
<event>
      5   9999  3.19816E-02  1.30726E+02 -1.00000E+00  1.18811E-01
      21    -1     0     0   502   501  0.000000000E+00  0.000000000E+00  8.596644386E+02  8.596644386E+02  0.000000000E+00  0.00000E+00  9.000E+00
      21    -1     0     0   501   511  0.000000000E+00  0.000000000E+00 -7.820340429E+02  7.820340429E+02  0.000000000E+00  0.00000E+00  9.000E+00
      25     1     1     2     0     0  2.663636061E+02 -6.216191045E+02  1.654446326E+02  7.073590377E+02  1.250000000E+02  0.00000E+00  9.000E+00
      25     1     1     2     0     0 -2.987090461E+02  4.949583967E+02  1.949911140E+02  6.227820191E+02  1.250000000E+02  0.00000E+00  9.000E+00
      21     1     1     2   502   511  3.234544005E+01  1.266607078E+02 -2.828053509E+02  3.115574247E+02  3.814697266E-06  0.00000E+00  9.000E+00
#rwgt            1           1   2.3908456890688653E-002           8      165856           0
</event>
<event>
      5   9999  3.19816E-02  5.11134E+01 -1.00000E+00  1.38532E-01
      21    -1     0     0   502   512  0.000000000E+00  0.000000000E+00  1.202426812E+02  1.202426812E+02  0.000000000E+00  0.00000E+00  9.000E+00
      21    -1     0     0   501   502  0.000000000E+00  0.000000000E+00 -1.762350452E+03  1.762350452E+03  0.000000000E+00  0.00000E+00  9.000E+00
      25     1     1     2     0     0 -3.781508703E+02 -1.574156167E+02 -7.567644962E+02  8.695373826E+02  1.250000000E+02  0.00000E+00  9.000E+00
      25     1     1     2     0     0  3.682427833E+02  2.075595406E+02 -8.062489465E+02  9.188830579E+02  1.250000000E+02  0.00000E+00  9.000E+00
      21     1     1     2   501   512  9.908087030E+00 -5.014392391E+01 -7.909432820E+01  9.417269268E+01  2.132480600E-06  0.00000E+00  9.000E+00
#rwgt            1           1   3.6373203852752188E-002           8      165929           0
</event>
<event>
      5   9999  3.19816E-02  1.95536E+02 -1.00000E+00  1.12006E-01
       2    -1     0     0   502     0  0.000000000E+00  0.000000000E+00  3.087395619E+03  3.087395619E+03  0.000000000E+00  0.00000E+00  9.000E+00
      21    -1     0     0   501   502  0.000000000E+00  0.000000000E+00 -1.084322543E+02  1.084322543E+02  0.000000000E+00  0.00000E+00  9.000E+00
      25     1     1     2     0     0 -9.067502220E+01  1.084122243E+01  1.624355322E+02  2.243875974E+02  1.250000000E+02  0.00000E+00  9.000E+00
      25     1     1     2     0     0  1.288844316E+00 -1.847500028E+02  9.427083969E+01  2.421698079E+02  1.250000000E+02  0.00000E+00  9.000E+00
       2     1     1     2   501     0  8.938617789E+01  1.739087804E+02  2.722256993E+03  2.729270468E+03  3.051757812E-05  0.00000E+00  9.000E+00
#rwgt            1           1   2.8920372065059950E-002           8      166028           0
</event>
<event>
      5   9999  3.19816E-02  1.24703E+02 -1.00000E+00  1.19664E-01
      21    -1     0     0   511   501  0.000000000E+00  0.000000000E+00  1.729437638E+02  1.729437638E+02  0.000000000E+00  0.00000E+00  9.000E+00
      21    -1     0     0   501   502  0.000000000E+00  0.000000000E+00 -1.506185284E+03  1.506185284E+03  0.000000000E+00  0.00000E+00  9.000E+00
      25     1     1     2     0     0 -2.010031672E+02  2.940629473E+02 -2.017006936E+02  4.279993692E+02  1.250000000E+02  0.00000E+00  9.000E+00
      25     1     1     2     0     0  1.173817750E+02 -2.015515670E+02 -1.086942420E+03  1.118691351E+03  1.250000000E+02  0.00000E+00  9.000E+00
      21     1     1     2   511   502  8.362139216E+01 -9.251138032E+01 -4.459840694E+01  1.324383276E+02  6.743495762E-07  0.00000E+00  9.000E+00
#rwgt            2          11   4.4146794906527584E-003           8      166145           0
</event>
<event>
      5   9999  3.19816E-02  2.03860E+02 -1.00000E+00  1.11347E-01
      21    -1     0     0   502   501  0.000000000E+00  0.000000000E+00  2.572446618E+02  2.572446618E+02  0.000000000E+00  0.00000E+00  9.000E+00
       1    -1     0     0   501     0  0.000000000E+00  0.000000000E+00 -1.027258089E+03  1.027258089E+03  0.000000000E+00  0.00000E+00  9.000E+00
      25     1     1     2     0     0 -2.327719587E+02  1.541356657E+02 -6.012844965E+02  6.746173982E+02  1.250000000E+02  0.00000E+00  9.000E+00
      25     1     1     2     0     0  1.225895353E+02 -3.256547297E+02 -1.677810721E+02  4.060230108E+02  1.250000000E+02  0.00000E+00  9.000E+00
       1     1     1     2   502     0  1.101824235E+02  1.715190640E+02 -9.478580542E-01  2.038623413E+02  4.775351393E-07  0.00000E+00  9.000E+00
#rwgt            1           1   2.7748501209149273E-002           8      166180           0
</event>
<event>
      5   9999  3.19816E-02  2.19899E+02 -1.00000E+00  1.10169E-01
      21    -1     0     0   502   501  0.000000000E+00  0.000000000E+00  2.452864528E+02  2.452864528E+02  0.000000000E+00  0.00000E+00  9.000E+00
       1    -1     0     0   501     0  0.000000000E+00  0.000000000E+00 -2.213051601E+03  2.213051601E+03  0.000000000E+00  0.00000E+00  9.000E+00
      25     1     1     2     0     0 -7.430574632E+01 -4.539630546E+02 -7.890384877E+02  9.218516876E+02  1.250000000E+02  0.00000E+00  9.000E+00
      25     1     1     2     0     0  2.865771034E+02  3.965500933E+02 -2.164646391E+02  5.494181947E+02  1.250000000E+02  0.00000E+00  9.000E+00
       1     1     1     2   502     0 -2.122713571E+02  5.741296129E+01 -9.622620218E+02  9.870681718E+02  0.000000000E+00  0.00000E+00  9.000E+00
#rwgt            1           1   3.1935184960693773E-002           8      166209           0
</event>
<event>
      5   9999  3.19816E-02  2.86603E+01 -1.00000E+00  1.54431E-01
      21    -1     0     0   502   501  0.000000000E+00  0.000000000E+00  9.029433884E+01  9.029433884E+01  0.000000000E+00  0.00000E+00  9.000E+00
      21    -1     0     0   511   502  0.000000000E+00  0.000000000E+00 -4.780900036E+02  4.780900036E+02  0.000000000E+00  0.00000E+00  9.000E+00
      25     1     1     2     0     0 -6.809375381E+00  1.307515133E+02 -1.571275766E+02  2.397006490E+02  1.250000000E+02  0.00000E+00  9.000E+00
      25     1     1     2     0     0  3.494755898E+01 -1.253056152E+02 -1.257235937E+02  2.198960006E+02  1.250000000E+02  0.00000E+00  9.000E+00
      21     1     1     2   511   501 -2.813818360E+01 -5.445898110E+00 -1.049444945E+02  1.087876928E+02  1.348699152E-06  0.00000E+00  9.000E+00
#rwgt            1           1   2.4814992261703778E-002           8      166274           0
</event>
<event>
      5   9999  3.19816E-02  2.05472E+01 -1.00000E+00  1.65408E-01
      21    -1     0     0   502   512  0.000000000E+00  0.000000000E+00  1.666456270E+02  1.666456270E+02  0.000000000E+00  0.00000E+00  9.000E+00
      21    -1     0     0   501   502  0.000000000E+00  0.000000000E+00 -2.212819792E+02  2.212819792E+02  0.000000000E+00  0.00000E+00  9.000E+00
      25     1     1     2     0     0 -2.994626995E+01  8.599783881E+01  5.432032374E+01  1.639149320E+02  1.250000000E+02  0.00000E+00  9.000E+00
      25     1     1     2     0     0  4.482819320E+01 -1.001652958E+02 -1.154365516E+02  2.024679007E+02  1.250000000E+02  0.00000E+00  9.000E+00
      21     1     1     2   501   512 -1.488192325E+01  1.416745697E+01  6.479875647E+00  2.154477350E+01  4.616955931E-07  0.00000E+00  9.000E+00
#rwgt            1           1   2.8812894960560189E-002           8      166448           0
</event>
<event>
      5   9999  3.19816E-02  7.23615E+01 -1.00000E+00  1.30495E-01
      21    -1     0     0   502   511  0.000000000E+00  0.000000000E+00  1.480359258E+03  1.480359258E+03  0.000000000E+00  0.00000E+00  9.000E+00
      21    -1     0     0   501   502  0.000000000E+00  0.000000000E+00 -4.560419955E+02  4.560419955E+02  0.000000000E+00  0.00000E+00  9.000E+00
      25     1     1     2     0     0 -3.461302201E+02  2.040165079E+02  1.077299378E+03  1.156558608E+03  1.250000000E+02  0.00000E+00  9.000E+00
      25     1     1     2     0     0  4.178380216E+02 -1.943118829E+02 -2.717759750E+02  5.493932114E+02  1.250000000E+02  0.00000E+00  9.000E+00
      21     1     1     2   501   511 -7.170780150E+01 -9.704624946E+00  2.187938596E+02  2.304494338E+02  2.697398305E-06  0.00000E+00  9.000E+00
#rwgt            1           1   2.9343778662057902E-002           8      166553           0
</event>
<event>
      5   9999  3.19816E-02  3.07229E+02 -1.00000E+00  1.05257E-01
       2    -1     0     0   502     0  0.000000000E+00  0.000000000E+00  1.824847946E+03  1.824847946E+03  0.000000000E+00  0.00000E+00  9.000E+00
      21    -1     0     0   501   502  0.000000000E+00  0.000000000E+00 -3.041851324E+02  3.041851324E+02  0.000000000E+00  0.00000E+00  9.000E+00
      25     1     1     2     0     0  2.214193767E+02  3.037829114E+02  4.221413209E+02  5.789118175E+02  1.250000000E+02  0.00000E+00  9.000E+00
      25     1     1     2     0     0 -2.651086449E+02  3.237425388E-01 -1.024390936E+02  3.104858552E+02  1.250000000E+02  0.00000E+00  9.000E+00
       2     1     1     2   501     0  4.368926817E+01 -3.041066539E+02  1.200960586E+03  1.239635406E+03  0.000000000E+00  0.00000E+00  9.000E+00
#rwgt            1           1   3.0333993485432337E-002           8      166670           0
</event>
<event>
      5   9999  3.19816E-02  3.91951E+01 -1.00000E+00  1.45390E-01
      21    -1     0     0   502   501  0.000000000E+00  0.000000000E+00  2.444177287E+02  2.444177287E+02  0.000000000E+00  0.00000E+00  9.000E+00
      21    -1     0     0   501   511  0.000000000E+00  0.000000000E+00 -2.613893628E+02  2.613893628E+02  0.000000000E+00  0.00000E+00  9.000E+00
      25     1     1     2     0     0 -1.169149194E+01 -2.017868988E+01  1.890969666E+02  2.278739416E+02  1.250000000E+02  0.00000E+00  9.000E+00
      25     1     1     2     0     0  4.734637282E+01  3.900365780E+00 -1.963332401E+02  2.375471175E+02  1.250000000E+02  0.00000E+00  9.000E+00
      21     1     1     2   502   511 -3.565488088E+01  1.627832410E+01 -9.735360596E+00  4.038603239E+01  7.633118912E-07  0.00000E+00  9.000E+00
#rwgt            1           1   2.7736572789481700E-002           8      166734           0
</event>
<event>
      5   9999  3.19816E-02  6.34569E+01 -1.00000E+00  1.33416E-01
      21    -1     0     0   502   501  0.000000000E+00  0.000000000E+00  2.914222140E+02  2.914222140E+02  0.000000000E+00  0.00000E+00  9.000E+00
      21    -1     0     0   512   502  0.000000000E+00  0.000000000E+00 -2.866321071E+02  2.866321071E+02  0.000000000E+00  0.00000E+00  9.000E+00
      25     1     1     2     0     0 -5.454493734E+01  1.185249798E+02  2.973213624E+00  1.807129243E+02  1.250000000E+02  0.00000E+00  9.000E+00
      25     1     1     2     0     0  7.907843729E+01 -6.000242087E+01  1.605490449E+02  2.263949769E+02  1.250000000E+02  0.00000E+00  9.000E+00
      21     1     1     2   512   501 -2.453349995E+01 -5.852255888E+01 -1.587321516E+02  1.709464199E+02  0.000000000E+00  0.00000E+00  9.000E+00
#rwgt            1           1   3.4249650325779687E-002           8      166870           0
</event>
<event>
      5   9999  3.19816E-02  1.05421E+02 -1.00000E+00  1.22805E-01
       2    -1     0     0   502     0  0.000000000E+00  0.000000000E+00  5.486588717E+02  5.486588717E+02  0.000000000E+00  0.00000E+00  9.000E+00
      21    -1     0     0   501   502  0.000000000E+00  0.000000000E+00 -1.320505242E+03  1.320505242E+03  0.000000000E+00  0.00000E+00  9.000E+00
      25     1     1     2     0     0  4.236530270E+02  3.829957746E+02 -4.085134987E+02  7.132152054E+02  1.250000000E+02  0.00000E+00  9.000E+00
      25     1     1     2     0     0 -3.774255092E+02 -2.882503506E+02 -6.705518393E+02  8.311456243E+02  1.250000000E+02  0.00000E+00  9.000E+00
       2     1     1     2   501     0 -4.622751776E+01 -9.474542399E+01  3.072189680E+02  3.248032836E+02  7.629394531E-06  0.00000E+00  9.000E+00
#rwgt            1           1   3.2108154888463816E-002           8      167036           0
</event>
<event>
      5   9999  3.19816E-02  7.44224E+00 -1.00000E+00  2.11861E-01
      21    -1     0     0   511   501  0.000000000E+00  0.000000000E+00  1.424578363E+03  1.424578363E+03  0.000000000E+00  0.00000E+00  9.000E+00
      21    -1     0     0   501   502  0.000000000E+00  0.000000000E+00 -5.131426389E+02  5.131426389E+02  0.000000000E+00  0.00000E+00  9.000E+00
      25     1     1     2     0     0  2.121237988E+02  5.377257656E+02 -6.161875148E+01  5.946153173E+02  1.250000000E+02  0.00000E+00  9.000E+00
      25     1     1     2     0     0 -2.161957789E+02 -5.439552011E+02  2.991072085E+02  6.691173274E+02  1.250000000E+02  0.00000E+00  9.000E+00
      21     1     1     2   511   502  4.071980041E+00  6.229435545E+00  6.739472667E+02  6.739883569E+02  7.629394531E-06  0.00000E+00  9.000E+00
#rwgt            1           1   2.7035434418895860E-002           8      167176           0
</event>
<event>
      5   9999  3.19816E-02  2.00846E+02 -1.00000E+00  1.11581E-01
      21    -1     0     0   512   501  0.000000000E+00  0.000000000E+00  4.615090274E+02  4.615090274E+02  0.000000000E+00  0.00000E+00  9.000E+00
      21    -1     0     0   501   502  0.000000000E+00  0.000000000E+00 -1.994731232E+03  1.994731232E+03  0.000000000E+00  0.00000E+00  9.000E+00
      25     1     1     2     0     0  3.285568794E+02 -7.794831554E+02 -5.328445927E+02  1.007517728E+03  1.250000000E+02  0.00000E+00  9.000E+00
      25     1     1     2     0     0 -1.487497495E+02  6.899938950E+02 -1.020248757E+03  1.246896383E+03  1.250000000E+02  0.00000E+00  9.000E+00
      21     1     1     2   512   502 -1.798071299E+02  8.948926045E+01  1.987114534E+01  2.018261482E+02  2.686840932E-06  0.00000E+00  9.000E+00
#rwgt            1           1   2.7217112761472529E-002           8      167487           0
</event>
<event>
      5   9999  3.19816E-02  4.95085E+01 -1.00000E+00  1.39321E-01
       2    -1     0     0   502     0  0.000000000E+00  0.000000000E+00  1.767658731E+03  1.767658731E+03  0.000000000E+00  0.00000E+00  9.000E+00
      21    -1     0     0   501   502  0.000000000E+00  0.000000000E+00 -5.440134912E+02  5.440134912E+02  0.000000000E+00  0.00000E+00  9.000E+00
      25     1     1     2     0     0  7.818984147E+01 -2.715744918E+02 -2.199860714E+02  3.793220630E+02  1.250000000E+02  0.00000E+00  9.000E+00
      25     1     1     2     0     0 -3.660881709E+01  2.447024119E+02 -1.652376561E+02  3.227196289E+02  1.250000000E+02  0.00000E+00  9.000E+00
       2     1     1     2   501     0 -4.158102438E+01  2.687207984E+01  1.608868967E+03  1.609630530E+03  2.157918644E-05  0.00000E+00  9.000E+00
#rwgt            1           1   2.6777436181230786E-002           8      167535           0
</event>
<event>
      5   9999  3.19816E-02  6.09158E+01 -1.00000E+00  1.34353E-01
      21    -1     0     0   502   501  0.000000000E+00  0.000000000E+00  7.295775379E+02  7.295775379E+02  0.000000000E+00  0.00000E+00  9.000E+00
      21    -1     0     0   501   511  0.000000000E+00  0.000000000E+00 -7.549054769E+02  7.549054769E+02  0.000000000E+00  0.00000E+00  9.000E+00
      25     1     1     2     0     0 -7.706693544E+01 -1.680478256E+02  6.647519870E+02  7.012129408E+02  1.250000000E+02  0.00000E+00  9.000E+00
      25     1     1     2     0     0  8.436119108E+01  1.075702854E+02 -1.461808090E+02  2.359703494E+02  1.250000000E+02  0.00000E+00  9.000E+00
      21     1     1     2   502   511 -7.294255646E+00  6.047754015E+01 -5.438991170E+02  5.472997245E+02  7.629394531E-06  0.00000E+00  9.000E+00
#rwgt            2          11   5.2845130589896172E-003           8      167718           0
</event>
<event>
      5   9999  3.19816E-02  3.30902E+01 -1.00000E+00  1.50140E-01
      21    -1     0     0   512   501  0.000000000E+00  0.000000000E+00  1.111719541E+03  1.111719541E+03  0.000000000E+00  0.00000E+00  9.000E+00
      21    -1     0     0   501   502  0.000000000E+00  0.000000000E+00 -3.338709642E+02  3.338709642E+02  0.000000000E+00  0.00000E+00  9.000E+00
      25     1     1     2     0     0 -2.893943798E+02 -4.042927241E+02  1.807159033E+02  5.435852753E+02  1.250000000E+02  0.00000E+00  9.000E+00
      25     1     1     2     0     0  2.950620914E+02  3.716914847E+02  2.453490127E+02  5.486686938E+02  1.250000000E+02  0.00000E+00  9.000E+00
      21     1     1     2   512   502 -5.667711652E+00  3.260123940E+01  3.517836606E+02  3.533365360E+02  5.394796609E-06  0.00000E+00  9.000E+00
#rwgt            1           1   2.9479339665189317E-002           8      167753           0
</event>
<event>
      5   9999  3.19816E-02  5.04104E+01 -1.00000E+00  1.38873E-01
      21    -1     0     0   502   511  0.000000000E+00  0.000000000E+00  1.546958272E+03  1.546958272E+03  0.000000000E+00  0.00000E+00  9.000E+00
      21    -1     0     0   501   502  0.000000000E+00  0.000000000E+00 -3.366146539E+01  3.366146539E+01  0.000000000E+00  0.00000E+00  9.000E+00
      25     1     1     2     0     0 -8.005802555E+01 -6.569695289E+00  7.622572778E+02  7.766038925E+02  1.250000000E+02  0.00000E+00  9.000E+00
      25     1     1     2     0     0  1.025089883E+02  5.170468188E+01  2.606263625E+02  3.110185969E+02  1.250000000E+02  0.00000E+00  9.000E+00
      21     1     1     2   501   511 -2.245096279E+01 -4.513498659E+01  4.904131668E+02  4.929972484E+02  9.344061824E-06  0.00000E+00  9.000E+00
#rwgt            1           1   2.8498631143415148E-002           8      167927           0
</event>
<event>
      5   9999  3.19816E-02  3.96345E+02 -1.00000E+00  1.01806E-01
       2    -1     0     0   502     0  0.000000000E+00  0.000000000E+00  2.240835309E+03  2.240835309E+03  0.000000000E+00  0.00000E+00  9.000E+00
      21    -1     0     0   501   502  0.000000000E+00  0.000000000E+00 -2.481075240E+02  2.481075240E+02  0.000000000E+00  0.00000E+00  9.000E+00
      25     1     1     2     0     0 -1.795536920E+02  2.408340822E+02  1.088897434E+02  3.431072131E+02  1.250000000E+02  0.00000E+00  9.000E+00
      25     1     1     2     0     0  5.517772397E+02 -1.046752904E+02  7.536898406E+02  9.482027286E+02  1.250000000E+02  0.00000E+00  9.000E+00
       2     1     1     2   501     0 -3.722235477E+02 -1.361587918E+02  1.130148201E+03  1.197632891E+03  1.525878906E-05  0.00000E+00  9.000E+00
#rwgt            2          18   1.4641244870441889E-003           8      168200           0
</event>
<event>
      5   9999  3.19816E-02  1.85307E+02 -1.00000E+00  1.12868E-01
      21    -1     0     0   502   501  0.000000000E+00  0.000000000E+00  1.485566135E+03  1.485566135E+03  0.000000000E+00  0.00000E+00  9.000E+00
       1    -1     0     0   501     0  0.000000000E+00  0.000000000E+00 -1.354334805E+03  1.354334805E+03  0.000000000E+00  0.00000E+00  9.000E+00
      25     1     1     2     0     0  2.806339417E+01  3.441849653E+02  5.331580340E+02  6.474050769E+02  1.250000000E+02  0.00000E+00  9.000E+00
      25     1     1     2     0     0 -2.127721854E+02 -3.590673407E+02  8.349634449E+02  9.418016311E+02  1.250000000E+02  0.00000E+00  9.000E+00
       1     1     1     2   502     0  1.847087912E+02  1.488237540E+01 -1.236890149E+03  1.250694232E+03  2.157918644E-05  0.00000E+00  9.000E+00
#rwgt            1           1   2.9333678935346306E-002           8      168219           0
</event>
<event>
      5   9999  3.19816E-02  2.11840E+02 -1.00000E+00  1.10746E-01
      21    -1     0     0   511   501  0.000000000E+00  0.000000000E+00  9.505391250E+02  9.505391250E+02  0.000000000E+00  0.00000E+00  9.000E+00
      21    -1     0     0   501   502  0.000000000E+00  0.000000000E+00 -1.545782731E+02  1.545782731E+02  0.000000000E+00  0.00000E+00  9.000E+00
      25     1     1     2     0     0 -2.582281499E+02  1.887710007E+02  2.222957641E+02  4.090925016E+02  1.250000000E+02  0.00000E+00  9.000E+00
      25     1     1     2     0     0  1.115274440E+02 -3.594672718E+01  3.393194222E+02  3.801226226E+02  1.250000000E+02  0.00000E+00  9.000E+00
      21     1     1     2   511   502  1.467007059E+02 -1.528242736E+02  2.343456656E+02  3.159022739E+02  6.607249480E-06  0.00000E+00  9.000E+00
#rwgt            2          11   3.2609150854855363E-003           8      168336           0
</event>
<event>
      5   9999  3.19816E-02  1.85083E+02 -1.00000E+00  1.12887E-01
      21    -1     0     0   502   501  0.000000000E+00  0.000000000E+00  2.736221007E+02  2.736221007E+02  0.000000000E+00  0.00000E+00  9.000E+00
      21    -1     0     0   501   512  0.000000000E+00  0.000000000E+00 -5.791296159E+02  5.791296159E+02  0.000000000E+00  0.00000E+00  9.000E+00
      25     1     1     2     0     0 -1.117099030E+02 -2.445160976E+02 -1.924620818E+02  3.534598666E+02  1.250000000E+02  0.00000E+00  9.000E+00
      25     1     1     2     0     0  7.647829680E+00  9.145770471E+01  1.239958344E+02  1.985521795E+02  1.250000000E+02  0.00000E+00  9.000E+00
      21     1     1     2   502   512  1.040620733E+02  1.530583928E+02 -2.370412678E+02  3.007396704E+02  3.814697266E-06  0.00000E+00  9.000E+00
#rwgt            2          11   3.0184858189848457E-003           8      168371           0
</event>
<event>
      5   9999  3.19816E-02  3.56306E+02 -1.00000E+00  1.03220E-01
      21    -1     0     0   502   511  0.000000000E+00  0.000000000E+00  6.509117554E+02  6.509117554E+02  0.000000000E+00  0.00000E+00  9.000E+00
      21    -1     0     0   501   502  0.000000000E+00  0.000000000E+00 -8.185706419E+02  8.185706419E+02  0.000000000E+00  0.00000E+00  9.000E+00
      25     1     1     2     0     0  4.565288085E+02  2.417020506E+02 -9.695113049E+01  5.402434229E+02  1.250000000E+02  0.00000E+00  9.000E+00
      25     1     1     2     0     0 -4.141529652E+02  1.120748532E+02 -2.688698072E+02  5.215356407E+02  1.250000000E+02  0.00000E+00  9.000E+00
      21     1     1     2   501   511 -4.237584329E+01 -3.537769038E+02  1.981620512E+02  4.077033337E+02  7.136645101E-06  0.00000E+00  9.000E+00
#rwgt            2          11   3.1331409980336544E-003           8      168526           0
</event>
<event>
      5   9999  3.19816E-02  6.17012E+01 -1.00000E+00  1.34058E-01
      21    -1     0     0   512   501  0.000000000E+00  0.000000000E+00  1.024355409E+02  1.024355409E+02  0.000000000E+00  0.00000E+00  9.000E+00
      21    -1     0     0   501   502  0.000000000E+00  0.000000000E+00 -1.886315536E+03  1.886315536E+03  0.000000000E+00  0.00000E+00  9.000E+00
      25     1     1     2     0     0 -2.999171592E+02 -6.566958552E+01 -1.368147568E+03  1.407734195E+03  1.250000000E+02  0.00000E+00  9.000E+00
      25     1     1     2     0     0  3.052965691E+02  4.203289005E+00 -3.977013671E+02  5.167349806E+02  1.250000000E+02  0.00000E+00  9.000E+00
      21     1     1     2   512   502 -5.379409911E+00  6.146629651E+01 -1.803105971E+01  6.428190081E+01  1.862108630E-06  0.00000E+00  9.000E+00
#rwgt            1           1   2.6386984947956146E-002           8      168621           0
</event>
<event>
      5   9999  3.19816E-02  3.69912E+01 -1.00000E+00  1.46978E-01
      21    -1     0     0   511   501  0.000000000E+00  0.000000000E+00  6.729996117E+02  6.729996117E+02  0.000000000E+00  0.00000E+00  9.000E+00
      21    -1     0     0   501   502  0.000000000E+00  0.000000000E+00 -1.344010738E+02  1.344010738E+02  0.000000000E+00  0.00000E+00  9.000E+00
      25     1     1     2     0     0 -9.734354010E+00  2.150894032E+02  9.973917267E+01  2.681997606E+02  1.250000000E+02  0.00000E+00  9.000E+00
      25     1     1     2     0     0 -1.931399030E+01 -2.379922985E+02  3.414324623E+02  4.349879201E+02  1.250000000E+02  0.00000E+00  9.000E+00
      21     1     1     2   511   502  2.904834431E+01  2.290289525E+01  9.742690302E+01  1.042130047E+02  1.348699152E-06  0.00000E+00  9.000E+00
#rwgt            1           1   2.5920740589953258E-002           8      168705           0
</event>
<event>
      5   9999  3.19816E-02  1.03906E+01 -1.00000E+00  1.93853E-01
      21    -1     0     0   502   512  0.000000000E+00  0.000000000E+00  1.379047589E+03  1.379047589E+03  0.000000000E+00  0.00000E+00  9.000E+00
      21    -1     0     0   501   502  0.000000000E+00  0.000000000E+00 -1.433070574E+02  1.433070574E+02  0.000000000E+00  0.00000E+00  9.000E+00
      25     1     1     2     0     0  3.914790032E+02  5.046382157E+01  3.919658793E+02  5.701444183E+02  1.250000000E+02  0.00000E+00  9.000E+00
      25     1     1     2     0     0 -3.919430621E+02 -4.008356918E+01  7.375355957E+02  8.454642579E+02  1.250000000E+02  0.00000E+00  9.000E+00
      21     1     1     2   501   512  4.640589670E-01 -1.038025239E+01  1.062390563E+02  1.067459698E+02  1.907348633E-06  0.00000E+00  9.000E+00
#rwgt            1           1   2.7485889699615150E-002           8      168819           0
</event>
<event>
      5   9999  3.19816E-02  3.47705E+01 -1.00000E+00  1.48718E-01
      21    -1     0     0   502   501  0.000000000E+00  0.000000000E+00  3.124727470E+02  3.124727470E+02  0.000000000E+00  0.00000E+00  9.000E+00
      21    -1     0     0   511   502  0.000000000E+00  0.000000000E+00 -1.619823977E+03  1.619823977E+03  0.000000000E+00  0.00000E+00  9.000E+00
      25     1     1     2     0     0 -1.225655123E+02 -4.228929934E+02  6.910067556E+01  4.628830220E+02  1.250000000E+02  0.00000E+00  9.000E+00
      25     1     1     2     0     0  1.553304966E+02  4.345311014E+02 -1.308031109E+03  1.392664792E+03  1.250000000E+02  0.00000E+00  9.000E+00
      21     1     1     2   511   501 -3.276498436E+01 -1.163810800E+01 -6.842079703E+01  7.674891024E+01  0.000000000E+00  0.00000E+00  9.000E+00
#rwgt            1           1   3.0386016182129279E-002           8      169080           0
</event>
<event>
      5   9999  3.19816E-02  5.58150E+01 -1.00000E+00  1.36403E-01
      21    -1     0     0   502   501  0.000000000E+00  0.000000000E+00  8.802045054E+02  8.802045054E+02  0.000000000E+00  0.00000E+00  9.000E+00
      21    -1     0     0   501   512  0.000000000E+00  0.000000000E+00 -2.927117122E+02  2.927117122E+02  0.000000000E+00  0.00000E+00  9.000E+00
      25     1     1     2     0     0 -1.909999353E+02 -1.253150437E+02 -1.770518821E+02  3.148923696E+02  1.250000000E+02  0.00000E+00  9.000E+00
      25     1     1     2     0     0  1.830276035E+02  7.007234503E+01  7.676991030E+02  8.021197853E+02  1.250000000E+02  0.00000E+00  9.000E+00
      21     1     1     2   502   512  7.972331722E+00  5.524269863E+01 -3.154427689E+00  5.590406281E+01  1.030660657E-06  0.00000E+00  9.000E+00
#rwgt            1           1   2.8256696374011507E-002           8      169227           0
</event>
<event>
      5   9999  3.19816E-02  3.37976E+01 -1.00000E+00  1.49529E-01
      21    -1     0     0   502   511  0.000000000E+00  0.000000000E+00  3.465960607E+02  3.465960607E+02  0.000000000E+00  0.00000E+00  9.000E+00
      21    -1     0     0   501   502  0.000000000E+00  0.000000000E+00 -2.639060556E+02  2.639060556E+02  0.000000000E+00  0.00000E+00  9.000E+00
      25     1     1     2     0     0  2.415223867E+01  1.830202409E+02 -1.490825706E+02  2.681983447E+02  1.250000000E+02  0.00000E+00  9.000E+00
      25     1     1     2     0     0 -5.364949627E+01 -1.665221181E+02  2.167800400E+02  3.053301000E+02  1.250000000E+02  0.00000E+00  9.000E+00
      21     1     1     2   501   511  2.949725760E+01 -1.649812286E+01  1.499253568E+01  3.697367157E+01  3.769728732E-07  0.00000E+00  9.000E+00
#rwgt            1           1   2.7301426827726204E-002           8      169346           0
</event>
<event>
      5   9999  3.19816E-02  1.60039E+01 -1.00000E+00  1.74773E-01
      21    -1     0     0   502   501  0.000000000E+00  0.000000000E+00  3.897422684E+02  3.897422684E+02  0.000000000E+00  0.00000E+00  9.000E+00
      -3    -1     0     0     0   502  0.000000000E+00  0.000000000E+00 -1.656016714E+02  1.656016714E+02  0.000000000E+00  0.00000E+00  9.000E+00
      25     1     1     2     0     0 -5.410886963E+00 -1.277300167E+01 -2.945073725E+01  1.291695521E+02  1.250000000E+02  0.00000E+00  9.000E+00
      25     1     1     2     0     0  2.041661611E+01  1.833666166E+01  3.269425561E+02  3.510975739E+02  1.250000000E+02  0.00000E+00  9.000E+00
      -3     1     1     2     0   501 -1.500572914E+01 -5.563659993E+00 -7.335122193E+01  7.507681385E+01  9.536743164E-07  0.00000E+00  9.000E+00
#rwgt            1           1   2.6794620037343647E-002           8      169476           0
</event>
<event>
      5   9999  3.19816E-02  1.33936E+02 -1.00000E+00  1.18377E-01
      21    -1     0     0   511   501  0.000000000E+00  0.000000000E+00  9.624368040E+02  9.624368040E+02  0.000000000E+00  0.00000E+00  9.000E+00
      21    -1     0     0   501   502  0.000000000E+00  0.000000000E+00 -1.541339599E+02  1.541339599E+02  0.000000000E+00  0.00000E+00  9.000E+00
      25     1     1     2     0     0 -1.570956237E+02 -9.265736374E+00  1.243155077E+01  2.013564806E+02  1.250000000E+02  0.00000E+00  9.000E+00
      25     1     1     2     0     0  7.785079950E+01 -9.871107088E+01  9.397065352E+01  2.006492119E+02  1.250000000E+02  0.00000E+00  9.000E+00
      21     1     1     2   511   502  7.924482415E+01  1.079768073E+02  7.019006398E+02  7.145650714E+02  1.078959322E-05  0.00000E+00  9.000E+00
#rwgt            1           1   3.2104606215559175E-002           8      169616           0
</event>
<event>
      5   9999  3.19816E-02  4.04875E+02 -1.00000E+00  1.01527E-01
      21    -1     0     0   502   501  0.000000000E+00  0.000000000E+00  3.156006180E+02  3.156006180E+02  0.000000000E+00  0.00000E+00  9.000E+00
      21    -1     0     0   512   502  0.000000000E+00  0.000000000E+00 -1.269426052E+03  1.269426052E+03  0.000000000E+00  0.00000E+00  9.000E+00
      25     1     1     2     0     0 -3.767663531E+02  1.647829840E+02  6.481277020E+01  4.346631015E+02  1.250000000E+02  0.00000E+00  9.000E+00
      25     1     1     2     0     0 -6.336090544E+00 -3.380250207E+01 -2.458520874E+02  2.779406484E+02  1.250000000E+02  0.00000E+00  9.000E+00
      21     1     1     2   512   501  3.831024437E+02 -1.309804819E+02 -7.727861166E+02  8.724229198E+02  1.525878906E-05  0.00000E+00  9.000E+00
#rwgt            2          11   2.2754931198290655E-003           8      169689           0
</event>
<event>
      5   9999  3.19816E-02  2.01654E+02 -1.00000E+00  1.11518E-01
      21    -1     0     0   502   511  0.000000000E+00  0.000000000E+00  8.454922810E+02  8.454922810E+02  0.000000000E+00  0.00000E+00  9.000E+00
      21    -1     0     0   501   502  0.000000000E+00  0.000000000E+00 -1.217616023E+03  1.217616023E+03  0.000000000E+00  0.00000E+00  9.000E+00
      25     1     1     2     0     0  6.268756591E+02 -5.448543388E+02 -3.477260055E+02  9.090531983E+02  1.250000000E+02  0.00000E+00  9.000E+00
      25     1     1     2     0     0 -5.784602428E+02  7.406102439E+02 -5.722189113E+01  9.497468771E+02  1.250000000E+02  0.00000E+00  9.000E+00
      21     1     1     2   501   511 -4.841541636E+01 -1.957559051E+02  3.282415514E+01  2.043082281E+02  2.567846683E-06  0.00000E+00  9.000E+00
#rwgt            1           1   2.7339610598993667E-002           8      169724           0
</event>
<event>
      5   9999  3.19816E-02  7.18463E+01 -1.00000E+00  1.30651E-01
      21    -1     0     0   502   512  0.000000000E+00  0.000000000E+00  1.533867665E+03  1.533867665E+03  0.000000000E+00  0.00000E+00  9.000E+00
      21    -1     0     0   501   502  0.000000000E+00  0.000000000E+00 -1.138165328E+02  1.138165328E+02  0.000000000E+00  0.00000E+00  9.000E+00
      25     1     1     2     0     0 -7.822371896E+01 -5.593360691E+01  1.606850742E+01  1.585267029E+02  1.250000000E+02  0.00000E+00  9.000E+00
      25     1     1     2     0     0  6.549089885E+01  1.266426484E+02  1.748420199E+02  2.579188829E+02  1.250000000E+02  0.00000E+00  9.000E+00
      21     1     1     2   501   512  1.273282011E+01 -7.070904148E+01  1.229140605E+03  1.231238612E+03  2.642899792E-05  0.00000E+00  9.000E+00
#rwgt            1           1   2.5346133487507888E-002           8      169808           0
</event>
<event>
      5   9999  3.19816E-02  4.81581E+01 -1.00000E+00  1.40012E-01
      21    -1     0     0   502   501  0.000000000E+00  0.000000000E+00  7.201887405E+02  7.201887405E+02  0.000000000E+00  0.00000E+00  9.000E+00
      21    -1     0     0   511   502  0.000000000E+00  0.000000000E+00 -1.789831286E+02  1.789831286E+02  0.000000000E+00  0.00000E+00  9.000E+00
      25     1     1     2     0     0  2.238697181E+02  1.618462968E+02  3.847823733E+02  4.898921813E+02  1.250000000E+02  0.00000E+00  9.000E+00
      25     1     1     2     0     0 -1.962373657E+02 -1.224045413E+02  2.105569370E+02  3.368251760E+02  1.250000000E+02  0.00000E+00  9.000E+00
      21     1     1     2   511   501 -2.763235242E+01 -3.944175550E+01 -5.413369840E+01  7.245451180E+01  9.536743164E-07  0.00000E+00  9.000E+00
#rwgt            1           1   3.2007427360743329E-002           8      169858           0
</event>
<event>
      5   9999  3.19816E-02  1.42586E+02 -1.00000E+00  1.17273E-01
       2    -1     0     0   502     0  0.000000000E+00  0.000000000E+00  2.198562936E+03  2.198562936E+03  0.000000000E+00  0.00000E+00  9.000E+00
      21    -1     0     0   501   502  0.000000000E+00  0.000000000E+00 -1.535666463E+03  1.535666463E+03  0.000000000E+00  0.00000E+00  9.000E+00
      25     1     1     2     0     0 -7.508310618E+02 -4.828753759E+02 -4.973384163E+02  1.029507850E+03  1.250000000E+02  0.00000E+00  9.000E+00
      25     1     1     2     0     0  6.113484309E+02  4.532884034E+02 -5.760197538E+02  9.626219598E+02  1.250000000E+02  0.00000E+00  9.000E+00
       2     1     1     2   501     0  1.394826309E+02  2.958697249E+01  1.736254644E+03  1.742099590E+03  0.000000000E+00  0.00000E+00  9.000E+00
#rwgt            1           1   2.9399529564609332E-002           8      169956           0
</event>
<event>
      5   9999  3.19816E-02  4.20226E+01 -1.00000E+00  1.43524E-01
      21    -1     0     0   502   501  0.000000000E+00  0.000000000E+00  2.601576889E+02  2.601576889E+02  0.000000000E+00  0.00000E+00  9.000E+00
      21    -1     0     0   501   511  0.000000000E+00  0.000000000E+00 -3.671397277E+02  3.671397277E+02  0.000000000E+00  0.00000E+00  9.000E+00
      25     1     1     2     0     0  9.236890910E+01  7.585059581E+01 -8.862348708E+01  1.943307766E+02  1.250000000E+02  0.00000E+00  9.000E+00
      25     1     1     2     0     0 -1.198566302E+02 -1.076362422E+02  1.540228339E+02  2.555370928E+02  1.250000000E+02  0.00000E+00  9.000E+00
      21     1     1     2   502   511  2.748772107E+01  3.178564640E+01 -1.723813856E+02  1.774295473E+02  1.907348633E-06  0.00000E+00  9.000E+00
#rwgt            1           1   2.6371308761354136E-002           8      170094           0
</event>
<event>
      5   9999  3.19816E-02  1.06547E+02 -1.00000E+00  1.22602E-01
      21    -1     0     0   512   501  0.000000000E+00  0.000000000E+00  3.659897275E+02  3.659897275E+02  0.000000000E+00  0.00000E+00  9.000E+00
      21    -1     0     0   501   502  0.000000000E+00  0.000000000E+00 -3.456665191E+02  3.456665191E+02  0.000000000E+00  0.00000E+00  9.000E+00
      25     1     1     2     0     0  6.859661206E+01  1.492543596E+02 -1.548856204E+02  2.580637798E+02  1.250000000E+02  0.00000E+00  9.000E+00
      25     1     1     2     0     0 -1.098335056E+02 -5.101041076E+01 -6.894711963E+01  1.872008714E+02  1.250000000E+02  0.00000E+00  9.000E+00
      21     1     1     2   512   502  4.123689356E+01 -9.824394887E+01  2.441559485E+02  2.663915953E+02  4.672030912E-06  0.00000E+00  9.000E+00
#rwgt            1           1   2.5317655534347762E-002           8      170225           0
</event>
<event>
      5   9999  3.19816E-02  2.80508E+01 -1.00000E+00  1.55094E-01
      21    -1     0     0   502   501  0.000000000E+00  0.000000000E+00  4.865738225E+02  4.865738225E+02  0.000000000E+00  0.00000E+00  9.000E+00
      21    -1     0     0   511   502  0.000000000E+00  0.000000000E+00 -1.262738574E+02  1.262738574E+02  0.000000000E+00  0.00000E+00  9.000E+00
      25     1     1     2     0     0 -1.006743468E+02 -6.751310841E+01 -2.392561906E+01  1.757577286E+02  1.250000000E+02  0.00000E+00  9.000E+00
      25     1     1     2     0     0  1.016195721E+02  3.947826900E+01  3.703508997E+02  4.057953426E+02  1.250000000E+02  0.00000E+00  9.000E+00
      21     1     1     2   511   501 -9.452252768E-01  2.803483940E+01  1.387468446E+01  3.129460880E+01  2.384185791E-07  0.00000E+00  9.000E+00
#rwgt            1           1   3.2675529674157003E-002           8      170280           0
</event>
<event>
      5   9999  3.19816E-02  1.88288E+02 -1.00000E+00  1.12611E-01
      21    -1     0     0   502   501  0.000000000E+00  0.000000000E+00  6.487828953E+02  6.487828953E+02  0.000000000E+00  0.00000E+00  9.000E+00
      21    -1     0     0   512   502  0.000000000E+00  0.000000000E+00 -9.015563221E+02  9.015563221E+02  0.000000000E+00  0.00000E+00  9.000E+00
      25     1     1     2     0     0  1.553079438E+02  5.663697531E+02  1.923247723E+02  6.304832057E+02  1.250000000E+02  0.00000E+00  9.000E+00
      25     1     1     2     0     0  2.963353902E+01 -6.017108038E+02 -3.636851189E+02  7.147208572E+02  1.250000000E+02  0.00000E+00  9.000E+00
      21     1     1     2   512   501 -1.849414828E+02  3.534105066E+01 -8.141308021E+01  2.051351544E+02  4.473129043E-06  0.00000E+00  9.000E+00
#rwgt            2          11   6.0971016872421110E-003           8      170449           0
</event>
<event>
      5   9999  3.19816E-02  2.45677E+01 -1.00000E+00  1.59320E-01
      21    -1     0     0   502   511  0.000000000E+00  0.000000000E+00  4.678024838E+02  4.678024838E+02  0.000000000E+00  0.00000E+00  9.000E+00
      21    -1     0     0   501   502  0.000000000E+00  0.000000000E+00 -6.165516456E+02  6.165516456E+02  0.000000000E+00  0.00000E+00  9.000E+00
      25     1     1     2     0     0  2.607754791E+02  9.078076906E+01  2.934507930E+02  4.218807491E+02  1.250000000E+02  0.00000E+00  9.000E+00
      25     1     1     2     0     0 -2.827233390E+02 -7.974148767E+01 -5.036439817E+02  5.962998001E+02  1.250000000E+02  0.00000E+00  9.000E+00
      21     1     1     2   501   511  2.194785986E+01 -1.103928139E+01  6.144402685E+01  6.617358024E+01  6.743495762E-07  0.00000E+00  9.000E+00
#rwgt            1           1   3.0650303539888280E-002           8      170574           0
</event>
<event>
      5   9999  3.19816E-02  6.38840E+01 -1.00000E+00  1.33264E-01
      21    -1     0     0   512   501  0.000000000E+00  0.000000000E+00  3.054762404E+02  3.054762404E+02  0.000000000E+00  0.00000E+00  9.000E+00
      21    -1     0     0   501   502  0.000000000E+00  0.000000000E+00 -4.339641573E+02  4.339641573E+02  0.000000000E+00  0.00000E+00  9.000E+00
      25     1     1     2     0     0  1.817771895E+02  1.376137036E+02 -7.976739214E+01  2.719711655E+02  1.250000000E+02  0.00000E+00  9.000E+00
      25     1     1     2     0     0 -1.913193902E+02 -2.007810855E+02 -1.565590125E+02  3.421284521E+02  1.250000000E+02  0.00000E+00  9.000E+00
      21     1     1     2   512   502  9.542200715E+00  6.316738186E+01  1.078384878E+02  1.253407802E+02  2.336015456E-06  0.00000E+00  9.000E+00
#rwgt            1           1   3.3785219517105392E-002           8      170729           0
</event>
<event>
      5   9999  3.19816E-02  1.29813E+02 -1.00000E+00  1.18937E-01
      21    -1     0     0   502   501  0.000000000E+00  0.000000000E+00  2.234309886E+02  2.234309886E+02  0.000000000E+00  0.00000E+00  9.000E+00
       2    -1     0     0   501     0  0.000000000E+00  0.000000000E+00 -3.198110328E+03  3.198110328E+03  0.000000000E+00  0.00000E+00  9.000E+00
      25     1     1     2     0     0 -5.376604025E+00  3.155553151E+02 -2.737715992E+01  3.405562708E+02  1.250000000E+02  0.00000E+00  9.000E+00
      25     1     1     2     0     0 -8.341534134E+01 -4.102510406E+02 -6.692671844E+02  7.992544023E+02  1.250000000E+02  0.00000E+00  9.000E+00
       2     1     1     2   502     0  8.879194536E+01  9.469572556E+01 -2.278034995E+03  2.281730644E+03  0.000000000E+00  0.00000E+00  9.000E+00
#rwgt            1           1   3.1078351841756054E-002           8      170862           0
</event>
<event>
      5   9999  3.19816E-02  1.24088E+02 -1.00000E+00  1.19754E-01
      21    -1     0     0   502   501  0.000000000E+00  0.000000000E+00  1.158411279E+03  1.158411279E+03  0.000000000E+00  0.00000E+00  9.000E+00
       2    -1     0     0   501     0  0.000000000E+00  0.000000000E+00 -1.954473342E+03  1.954473342E+03  0.000000000E+00  0.00000E+00  9.000E+00
      25     1     1     2     0     0 -2.573034447E+02  5.098852551E+02  9.856966055E+02  1.146041375E+03  1.250000000E+02  0.00000E+00  9.000E+00
      25     1     1     2     0     0  2.082006668E+02 -3.959260434E+02 -5.129774946E+02  6.920085690E+02  1.250000000E+02  0.00000E+00  9.000E+00
       2     1     1     2   502     0  4.910277783E+01 -1.139592117E+02 -1.268781174E+03  1.274834677E+03  1.525878906E-05  0.00000E+00  9.000E+00
#rwgt            2          13   5.5638440495978944E-003           8      170993           0
</event>
<event>
      5   9999  3.19816E-02  9.38738E+01 -1.00000E+00  1.25076E-01
      21    -1     0     0   502   501  0.000000000E+00  0.000000000E+00  5.392930369E+02  5.392930369E+02  0.000000000E+00  0.00000E+00  9.000E+00
      21    -1     0     0   501   511  0.000000000E+00  0.000000000E+00 -1.156473192E+02  1.156473192E+02  0.000000000E+00  0.00000E+00  9.000E+00
      25     1     1     2     0     0  1.045489557E+02 -1.444481342E+02  2.197105049E+02  3.093435850E+02  1.250000000E+02  0.00000E+00  9.000E+00
      25     1     1     2     0     0 -1.294667164E+01  1.239222649E+02  1.719952762E+02  2.464380634E+02  1.250000000E+02  0.00000E+00  9.000E+00
      21     1     1     2   502   511 -9.160228409E+01  2.052586933E+01  3.193993663E+01  9.915870771E+01  1.215700987E-06  0.00000E+00  9.000E+00
#rwgt            1           1   2.5422064794925734E-002           8      171027           0
</event>
<event>
      5   9999  3.19816E-02  3.53890E+01 -1.00000E+00  1.48218E-01
      21    -1     0     0   502   512  0.000000000E+00  0.000000000E+00  4.781703521E+02  4.781703521E+02  0.000000000E+00  0.00000E+00  9.000E+00
      21    -1     0     0   501   502  0.000000000E+00  0.000000000E+00 -6.429935285E+02  6.429935285E+02  0.000000000E+00  0.00000E+00  9.000E+00
      25     1     1     2     0     0  1.137004075E+02  7.443736240E+01 -4.358409899E+01  1.897189429E+02  1.250000000E+02  0.00000E+00  9.000E+00
      25     1     1     2     0     0 -1.034774459E+02 -4.055704623E+01 -5.122340369E+02  5.388517091E+02  1.250000000E+02  0.00000E+00  9.000E+00
      21     1     1     2   501   512 -1.022296167E+01 -3.388031617E+01  3.909949595E+02  3.925932286E+02  5.394796609E-06  0.00000E+00  9.000E+00
#rwgt            1           1   3.1362876905149981E-002           8      171088           0
</event>
<event>
      5   9999  3.19816E-02  3.85590E+02 -1.00000E+00  1.02167E-01
      21    -1     0     0   502   501  0.000000000E+00  0.000000000E+00  7.402800888E+02  7.402800888E+02  0.000000000E+00  0.00000E+00  9.000E+00
       2    -1     0     0   501     0  0.000000000E+00  0.000000000E+00 -5.554472334E+02  5.554472334E+02  0.000000000E+00  0.00000E+00  9.000E+00
      25     1     1     2     0     0 -1.819719462E+02  1.771885360E+02  2.534543846E+01  2.842128740E+02  1.250000000E+02  0.00000E+00  9.000E+00
      25     1     1     2     0     0  2.061416243E+02  2.076428327E+02  4.340382052E+02  5.381673334E+02  1.250000000E+02  0.00000E+00  9.000E+00
       2     1     1     2   502     0 -2.416967809E+01 -3.848313687E+02 -2.745507883E+02  4.733471147E+02  6.607249480E-06  0.00000E+00  9.000E+00
#rwgt            1           1   2.6680385406072631E-002           8      171197           0
</event>
<event>
      5   9999  3.19816E-02  4.94106E+01 -1.00000E+00  1.39370E-01
       2    -1     0     0   502     0  0.000000000E+00  0.000000000E+00  2.457762892E+03  2.457762892E+03  0.000000000E+00  0.00000E+00  9.000E+00
      21    -1     0     0   501   502  0.000000000E+00  0.000000000E+00 -1.552131050E+02  1.552131050E+02  0.000000000E+00  0.00000E+00  9.000E+00
      25     1     1     2     0     0  6.216362882E+01 -3.245133500E+02  2.754903955E+02  4.479879341E+02  1.250000000E+02  0.00000E+00  9.000E+00
      25     1     1     2     0     0 -9.028257882E+01  2.838841026E+02  3.116867820E+02  4.489039740E+02  1.250000000E+02  0.00000E+00  9.000E+00
       2     1     1     2   501     0  2.811894999E+01  4.062924733E+01  1.715372609E+03  1.716084089E+03  0.000000000E+00  0.00000E+00  9.000E+00
#rwgt            1           1   3.1996168813754951E-002           8      171286           0
</event>
<event>
      5   9999  3.19816E-02  4.91572E+01 -1.00000E+00  1.39498E-01
      21    -1     0     0   502   511  0.000000000E+00  0.000000000E+00  3.836786001E+02  3.836786001E+02  0.000000000E+00  0.00000E+00  9.000E+00
      21    -1     0     0   501   502  0.000000000E+00  0.000000000E+00 -8.423389720E+02  8.423389720E+02  0.000000000E+00  0.00000E+00  9.000E+00
      25     1     1     2     0     0  4.109945829E+02  2.161592625E+02 -4.836544755E+02  6.820469380E+02  1.250000000E+02  0.00000E+00  9.000E+00
      25     1     1     2     0     0 -3.988264498E+02 -2.637865861E+02  2.307115823E+01  4.947758870E+02  1.250000000E+02  0.00000E+00  9.000E+00
      21     1     1     2   501   511 -1.216813316E+01  4.762732359E+01  1.922945484E+00  4.919474704E+01  1.576004743E-06  0.00000E+00  9.000E+00
#rwgt            1           1   2.9426647111873365E-002           8      171403           0
</event>
<event>
      5   9999  3.19816E-02  2.23027E+01 -1.00000E+00  1.62557E-01
      21    -1     0     0   512   501  0.000000000E+00  0.000000000E+00  1.106591364E+03  1.106591364E+03  0.000000000E+00  0.00000E+00  9.000E+00
      21    -1     0     0   501   502  0.000000000E+00  0.000000000E+00 -2.682073793E+02  2.682073793E+02  0.000000000E+00  0.00000E+00  9.000E+00
      25     1     1     2     0     0  6.190687722E+01  8.536656148E+01 -3.007803205E+01  1.662816865E+02  1.250000000E+02  0.00000E+00  9.000E+00
      25     1     1     2     0     0 -4.011344711E+01 -8.062782214E+01 -1.349794923E+02  2.048277268E+02  1.250000000E+02  0.00000E+00  9.000E+00
      21     1     1     2   512   502 -2.179343011E+01 -4.738739343E+00  1.003441509E+03  1.003689330E+03  0.000000000E+00  0.00000E+00  9.000E+00
#rwgt            1           1   3.1825364846059370E-002           8      171529           0
</event>
<event>
      5   9999  3.19816E-02  4.43214E+01 -1.00000E+00  1.42130E-01
      21    -1     0     0   502   511  0.000000000E+00  0.000000000E+00  1.326903590E+02  1.326903590E+02  0.000000000E+00  0.00000E+00  9.000E+00
      21    -1     0     0   501   502  0.000000000E+00  0.000000000E+00 -8.153295186E+02  8.153295186E+02  0.000000000E+00  0.00000E+00  9.000E+00
      25     1     1     2     0     0  9.179680448E+01 -2.296494698E+02 -1.254961762E+02  3.042035873E+02  1.250000000E+02  0.00000E+00  9.000E+00
      25     1     1     2     0     0 -9.654759802E+01  1.855833793E+02 -5.462966650E+02  5.981869905E+02  1.250000000E+02  0.00000E+00  9.000E+00
      21     1     1     2   501   511  4.750793534E+00  4.406609051E+01 -1.084631840E+01  4.562929975E+01  3.769728732E-07  0.00000E+00  9.000E+00
#rwgt            1           1   2.9059519164848273E-002           8      171675           0
</event>
<event>
      5   9999  3.19816E-02  3.79541E+01 -1.00000E+00  1.46269E-01
      21    -1     0     0   502   501  0.000000000E+00  0.000000000E+00  4.941891659E+02  4.941891659E+02  0.000000000E+00  0.00000E+00  9.000E+00
      21    -1     0     0   512   502  0.000000000E+00  0.000000000E+00 -4.899665582E+02  4.899665582E+02  0.000000000E+00  0.00000E+00  9.000E+00
      25     1     1     2     0     0 -5.165097458E+01  3.612770817E+02 -1.872148614E+02  4.287929072E+02  1.250000000E+02  0.00000E+00  9.000E+00
      25     1     1     2     0     0  3.192081234E+01 -3.288543128E+02  2.853263174E+02  4.540927270E+02  1.250000000E+02  0.00000E+00  9.000E+00
      21     1     1     2   512   501  1.973016224E+01 -3.242276892E+01 -9.388884845E+01  1.012700899E+02  0.000000000E+00  0.00000E+00  9.000E+00
#rwgt            1           1   2.8443870400622323E-002           8      171775           0
</event>
<event>
      5   9999  3.19816E-02  9.62938E+01 -1.00000E+00  1.24570E-01
      21    -1     0     0   511   501  0.000000000E+00  0.000000000E+00  1.036028497E+03  1.036028497E+03  0.000000000E+00  0.00000E+00  9.000E+00
      21    -1     0     0   501   502  0.000000000E+00  0.000000000E+00 -5.244463503E+02  5.244463503E+02  0.000000000E+00  0.00000E+00  9.000E+00
      25     1     1     2     0     0  1.901571545E+02  3.865042848E+02  8.314192315E+01  4.561610296E+02  1.250000000E+02  0.00000E+00  9.000E+00
      25     1     1     2     0     0 -9.726187671E+01 -3.611475157E+02 -2.180986900E+02  4.506433615E+02  1.250000000E+02  0.00000E+00  9.000E+00
      21     1     1     2   511   502 -9.289527783E+01 -2.535676913E+01  6.465389133E+02  6.536704558E+02  7.629394531E-06  0.00000E+00  9.000E+00
#rwgt            1           1   2.8792111156612090E-002           8      171911           0
</event>
<event>
      5   9999  3.19816E-02  3.12960E+02 -1.00000E+00  1.04999E-01
      21    -1     0     0   512   501  0.000000000E+00  0.000000000E+00  5.956044031E+02  5.956044031E+02  0.000000000E+00  0.00000E+00  9.000E+00
      21    -1     0     0   501   502  0.000000000E+00  0.000000000E+00 -6.130821130E+02  6.130821130E+02  0.000000000E+00  0.00000E+00  9.000E+00
      25     1     1     2     0     0  5.691582897E+00 -4.650290632E+02  2.018171930E+01  4.819924538E+02  1.250000000E+02  0.00000E+00  9.000E+00
      25     1     1     2     0     0 -1.490588684E+02  1.868383187E+02 -2.341352167E+02  3.571713920E+02  1.250000000E+02  0.00000E+00  9.000E+00
      21     1     1     2   512   502  1.433672855E+02  2.781907444E+02  1.964757875E+02  3.695226704E+02  6.607249480E-06  0.00000E+00  9.000E+00
#rwgt            2          11   3.3866312717050697E-003           8      172089           0
</event>
<event>
      5   9999  3.19816E-02  2.02118E+01 -1.00000E+00  1.65993E-01
      21    -1     0     0   502   511  0.000000000E+00  0.000000000E+00  2.851708065E+02  2.851708065E+02  0.000000000E+00  0.00000E+00  9.000E+00
      21    -1     0     0   501   502  0.000000000E+00  0.000000000E+00 -1.591180422E+02  1.591180422E+02  0.000000000E+00  0.00000E+00  9.000E+00
      25     1     1     2     0     0  1.466429950E+02 -2.975647893E+01 -9.563523690E+00  1.952077790E+02  1.250000000E+02  0.00000E+00  9.000E+00
      25     1     1     2     0     0 -1.265301751E+02  3.175385585E+01  9.597259507E+01  2.045823345E+02  1.250000000E+02  0.00000E+00  9.000E+00
      21     1     1     2   501   511 -2.011281982E+01 -1.997376923E+00  3.964369297E+01  4.449873513E+01  0.000000000E+00  0.00000E+00  9.000E+00
#rwgt            1           1   2.3892921880262138E-002           8      172109           0
</event>
<event>
      5   9999  3.19816E-02  1.39659E+02 -1.00000E+00  1.17637E-01
      21    -1     0     0   502   501  0.000000000E+00  0.000000000E+00  8.417279271E+02  8.417279271E+02  0.000000000E+00  0.00000E+00  9.000E+00
      21    -1     0     0   501   512  0.000000000E+00  0.000000000E+00 -8.767267161E+02  8.767267161E+02  0.000000000E+00  0.00000E+00  9.000E+00
      25     1     1     2     0     0  4.487571756E+02 -3.688289956E+02  3.421888702E+02  6.856646801E+02  1.250000000E+02  0.00000E+00  9.000E+00
      25     1     1     2     0     0 -5.653350963E+02  4.457325619E+02 -1.204850746E+02  7.405558325E+02  1.250000000E+02  0.00000E+00  9.000E+00
      21     1     1     2   502   512  1.165779207E+02 -7.690356627E+01 -2.567025845E+02  2.922341305E+02  3.814697266E-06  0.00000E+00  9.000E+00
#rwgt            1           1   2.1026160810595988E-002           8      172223           0
</event>
<event>
      5   9999  3.19816E-02  1.05737E+02 -1.00000E+00  1.22748E-01
      21    -1     0     0   502   501  0.000000000E+00  0.000000000E+00  6.809230731E+02  6.809230731E+02  0.000000000E+00  0.00000E+00  9.000E+00
      21    -1     0     0   501   511  0.000000000E+00  0.000000000E+00 -4.854486377E+02  4.854486377E+02  0.000000000E+00  0.00000E+00  9.000E+00
      25     1     1     2     0     0 -2.503241355E+02  3.201075151E+02 -1.009071935E+02  4.369648221E+02  1.250000000E+02  0.00000E+00  9.000E+00
      25     1     1     2     0     0  1.891214090E+02 -4.063315190E+02  3.750391642E+02  5.976216071E+02  1.250000000E+02  0.00000E+00  9.000E+00
      21     1     1     2   502   511  6.120272647E+01  8.622400392E+01 -7.865753528E+01  1.317852816E+02  2.861022949E-06  0.00000E+00  9.000E+00
#rwgt            1           1   2.7180638689492987E-002           8      172302           0
</event>
<event>
      5   9999  3.19816E-02  1.88022E+01 -1.00000E+00  1.68613E-01
      21    -1     0     0   502   501  0.000000000E+00  0.000000000E+00  1.259224338E+03  1.259224338E+03  0.000000000E+00  0.00000E+00  9.000E+00
      21    -1     0     0   501   512  0.000000000E+00  0.000000000E+00 -3.829857743E+02  3.829857743E+02  0.000000000E+00  0.00000E+00  9.000E+00
      25     1     1     2     0     0 -2.421032287E+01 -1.381283449E+02  3.346521976E+02  3.837742471E+02  1.250000000E+02  0.00000E+00  9.000E+00
      25     1     1     2     0     0  1.376974209E+01  1.537654223E+02  8.887931209E+02  9.107203866E+02  1.250000000E+02  0.00000E+00  9.000E+00
      21     1     1     2   502   512  1.044058078E+01 -1.563707735E+01 -3.472067544E+02  3.477154789E+02  6.607249480E-06  0.00000E+00  9.000E+00
#rwgt            1           1   3.0983991981484285E-002           8      172380           0
</event>
<event>
      5   9999  3.19816E-02  1.99384E+02 -1.00000E+00  1.11697E-01
      21    -1     0     0   502   501  0.000000000E+00  0.000000000E+00  6.623135955E+02  6.623135955E+02  0.000000000E+00  0.00000E+00  9.000E+00
      21    -1     0     0   511   502  0.000000000E+00  0.000000000E+00 -7.335433472E+02  7.335433472E+02  0.000000000E+00  0.00000E+00  9.000E+00
      25     1     1     2     0     0  5.612663343E+02  3.611570188E+02  1.053078415E+02  6.871455680E+02  1.250000000E+02  0.00000E+00  9.000E+00
      25     1     1     2     0     0 -3.853977101E+02 -2.672199883E+02 -1.472099099E+02  5.071820922E+02  1.250000000E+02  0.00000E+00  9.000E+00
      21     1     1     2   511   501 -1.758686242E+02 -9.393703052E+01 -2.932768329E+01  2.015292825E+02  2.384185791E-06  0.00000E+00  9.000E+00
#rwgt            2          11   5.8453228538752630E-003           8      172517           0
</event>
<event>
      5   9999  3.19816E-02  1.44063E+02 -1.00000E+00  1.17093E-01
      21    -1     0     0   502   501  0.000000000E+00  0.000000000E+00  6.088750334E+02  6.088750334E+02  0.000000000E+00  0.00000E+00  9.000E+00
      21    -1     0     0   501   512  0.000000000E+00  0.000000000E+00 -2.042744193E+03  2.042744193E+03  0.000000000E+00  0.00000E+00  9.000E+00
      25     1     1     2     0     0 -5.957736030E+02  2.541853840E+02 -3.114126954E+01  6.604174242E+02  1.250000000E+02  0.00000E+00  9.000E+00
      25     1     1     2     0     0  5.919162334E+02 -1.101744907E+02 -3.500937650E+01  6.159171229E+02  1.250000000E+02  0.00000E+00  9.000E+00
      21     1     1     2   502   512  3.857369537E+00 -1.440108934E+02 -1.367718514E+03  1.375284680E+03  2.157918644E-05  0.00000E+00  9.000E+00
#rwgt            1           1   3.2764049360382921E-002           8      172582           0
</event>
<event>
      5   9999  3.19816E-02  5.80405E+01 -1.00000E+00  1.35479E-01
      21    -1     0     0   502   501  0.000000000E+00  0.000000000E+00  3.205451298E+02  3.205451298E+02  0.000000000E+00  0.00000E+00  9.000E+00
      21    -1     0     0   511   502  0.000000000E+00  0.000000000E+00 -7.749901423E+02  7.749901423E+02  0.000000000E+00  0.00000E+00  9.000E+00
      25     1     1     2     0     0  2.203880038E+02  2.852228341E+02 -3.834927062E+02  5.409386223E+02  1.250000000E+02  0.00000E+00  9.000E+00
      25     1     1     2     0     0 -2.569957013E+02 -3.302625447E+02  3.040158025E+01  4.378006338E+02  1.250000000E+02  0.00000E+00  9.000E+00
      21     1     1     2   511   501  3.660769751E+01  4.503971057E+01 -1.013538866E+02  1.167960161E+02  1.907348633E-06  0.00000E+00  9.000E+00
#rwgt            1           1   2.6503500343641542E-002           8      172648           0
</event>
<event>
      5   9999  3.19816E-02  6.60516E+01 -1.00000E+00  1.32511E-01
      21    -1     0     0   502   512  0.000000000E+00  0.000000000E+00  5.277947256E+02  5.277947256E+02  0.000000000E+00  0.00000E+00  9.000E+00
      21    -1     0     0   501   502  0.000000000E+00  0.000000000E+00 -7.130741018E+02  7.130741018E+02  0.000000000E+00  0.00000E+00  9.000E+00
      25     1     1     2     0     0 -1.090469178E+02 -8.908623911E+01  2.039433958E+02  2.775707062E+02  1.250000000E+02  0.00000E+00  9.000E+00
      25     1     1     2     0     0  5.320469901E+01  1.243631190E+02 -6.596715221E+02  6.849003157E+02  1.250000000E+02  0.00000E+00  9.000E+00
      21     1     1     2   501   512  5.584221875E+01 -3.527687985E+01  2.704487502E+02  2.783978055E+02  5.394796609E-06  0.00000E+00  9.000E+00
#rwgt            1           1   2.9003879620418480E-002           8      172734           0
</event>
<event>
      5   9999  3.19816E-02  1.29164E+02 -1.00000E+00  1.19027E-01
      21    -1     0     0   511   501  0.000000000E+00  0.000000000E+00  8.246119246E+01  8.246119246E+01  0.000000000E+00  0.00000E+00  9.000E+00
      21    -1     0     0   501   502  0.000000000E+00  0.000000000E+00 -1.773074696E+03  1.773074696E+03  0.000000000E+00  0.00000E+00  9.000E+00
      25     1     1     2     0     0  4.796497652E+01 -2.980038328E+01 -1.507400383E+03  1.513627965E+03  1.250000000E+02  0.00000E+00  9.000E+00
      25     1     1     2     0     0 -1.377882701E+01 -9.475774231E+01 -8.027689529E+01  1.767435026E+02  1.250000000E+02  0.00000E+00  9.000E+00
      21     1     1     2   511   502 -3.418614951E+01  1.245581256E+02 -1.029362255E+02  1.651644211E+02  2.697398305E-06  0.00000E+00  9.000E+00
#rwgt            2          11   3.7453961350344990E-003           8      172836           0
</event>
<event>
      5   9999  3.19816E-02  4.62768E+01 -1.00000E+00  1.41021E-01
      21    -1     0     0   512   501  0.000000000E+00  0.000000000E+00  7.314054338E+02  7.314054338E+02  0.000000000E+00  0.00000E+00  9.000E+00
      21    -1     0     0   501   502  0.000000000E+00  0.000000000E+00 -3.041823895E+02  3.041823895E+02  0.000000000E+00  0.00000E+00  9.000E+00
      25     1     1     2     0     0  3.302044344E+02  2.874390598E+02  1.278450114E+02  4.728906095E+02  1.250000000E+02  0.00000E+00  9.000E+00
      25     1     1     2     0     0 -2.992844423E+02 -2.530080770E+02  2.095502117E+02  4.616498193E+02  1.250000000E+02  0.00000E+00  9.000E+00
      21     1     1     2   512   502 -3.091999210E+01 -3.443098280E+01  8.982782111E+01  1.010473945E+02  1.348699152E-06  0.00000E+00  9.000E+00
#rwgt            1           1   2.9675849314215727E-002           8      172856           0
</event>
<event>
      5   9999  3.19816E-02  1.56305E+02 -1.00000E+00  1.15689E-01
      21    -1     0     0   511   501  0.000000000E+00  0.000000000E+00  2.215412007E+02  2.215412007E+02  0.000000000E+00  0.00000E+00  9.000E+00
      21    -1     0     0   501   502  0.000000000E+00  0.000000000E+00 -9.700778733E+02  9.700778733E+02  0.000000000E+00  0.00000E+00  9.000E+00
      25     1     1     2     0     0  1.238701612E+02  3.426629454E+00 -6.606307633E+02  6.836765054E+02  1.250000000E+02  0.00000E+00  9.000E+00
      25     1     1     2     0     0 -2.798719447E+02 -1.315630923E+01 -1.478122789E+02  3.405508239E+02  1.250000000E+02  0.00000E+00  9.000E+00
      21     1     1     2   511   502  1.560017834E+02  9.729679776E+00  5.990636955E+01  1.673917448E+02  3.989505894E-06  0.00000E+00  9.000E+00
#rwgt            1           1   2.8240224520621741E-002           8      172974           0
</event>
<event>
      5   9999  3.19816E-02  4.89468E+01 -1.00000E+00  1.39605E-01
      21    -1     0     0   502   512  0.000000000E+00  0.000000000E+00  2.864220536E+02  2.864220536E+02  0.000000000E+00  0.00000E+00  9.000E+00
      21    -1     0     0   501   502  0.000000000E+00  0.000000000E+00 -1.829941386E+03  1.829941386E+03  0.000000000E+00  0.00000E+00  9.000E+00
      25     1     1     2     0     0  6.071756093E+02  3.653838940E+02 -7.796967368E+02  1.060999346E+03  1.250000000E+02  0.00000E+00  9.000E+00
      25     1     1     2     0     0 -5.851179635E+02 -3.216889120E+02 -7.125131689E+02  9.844525398E+02  1.250000000E+02  0.00000E+00  9.000E+00
      21     1     1     2   501   512 -2.205764580E+01 -4.369498202E+01 -5.130942621E+01  7.091155343E+01  1.168007728E-06  0.00000E+00  9.000E+00
#rwgt            1           1   3.0063226089277823E-002           8      173032           0
</event>
<event>
      5   9999  3.19816E-02  8.34826E+01 -1.00000E+00  1.27460E-01
      21    -1     0     0   502   511  0.000000000E+00  0.000000000E+00  7.042833878E+02  7.042833878E+02  0.000000000E+00  0.00000E+00  9.000E+00
      21    -1     0     0   501   502  0.000000000E+00  0.000000000E+00 -1.609642690E+02  1.609642690E+02  0.000000000E+00  0.00000E+00  9.000E+00
      25     1     1     2     0     0  1.440761071E+01 -2.301149097E+02  3.932518277E+02  4.726864192E+02  1.250000000E+02  0.00000E+00  9.000E+00
      25     1     1     2     0     0  6.885003311E+01  2.239906923E+02  6.511245753E+01  2.734534502E+02  1.250000000E+02  0.00000E+00  9.000E+00
      21     1     1     2   501   511 -8.325764382E+01  6.124217333E+00  8.495483344E+01  1.191077874E+02  2.132480600E-06  0.00000E+00  9.000E+00
#rwgt            1           1   3.2697716604822943E-002           8      173124           0
</event>
<event>
      5   9999  3.19816E-02  3.12267E+01 -1.00000E+00  1.51841E-01
      21    -1     0     0   512   501  0.000000000E+00  0.000000000E+00  4.503752122E+02  4.503752122E+02  0.000000000E+00  0.00000E+00  9.000E+00
      21    -1     0     0   501   502  0.000000000E+00  0.000000000E+00 -3.714035182E+02  3.714035182E+02  0.000000000E+00  0.00000E+00  9.000E+00
      25     1     1     2     0     0 -2.720526921E+02 -1.479907028E+02 -1.446922646E+02  3.639708324E+02  1.250000000E+02  0.00000E+00  9.000E+00
      25     1     1     2     0     0  2.999205027E+02  1.620793628E+02  1.832278223E+02  4.067179153E+02  1.250000000E+02  0.00000E+00  9.000E+00
      21     1     1     2   512   502 -2.786781062E+01 -1.408866008E+01  4.043613630E+01  5.108998268E+01  4.768371582E-07  0.00000E+00  9.000E+00
#rwgt            1           1   2.3123021339220236E-002           8      173206           0
</event>
<event>
      5   9999  3.19816E-02  1.18487E+02 -1.00000E+00  1.20603E-01
      21    -1     0     0   502   511  0.000000000E+00  0.000000000E+00  1.571101710E+03  1.571101710E+03  0.000000000E+00  0.00000E+00  9.000E+00
      21    -1     0     0   501   502  0.000000000E+00  0.000000000E+00 -1.205263089E+02  1.205263089E+02  0.000000000E+00  0.00000E+00  9.000E+00
      25     1     1     2     0     0  2.889442630E+02 -4.027921149E+01  4.553278417E+02  5.550312112E+02  1.250000000E+02  0.00000E+00  9.000E+00
      25     1     1     2     0     0 -3.917440935E+02 -1.863818343E+01  6.294880990E+02  7.521243804E+02  1.250000000E+02  0.00000E+00  9.000E+00
      21     1     1     2   501   511  1.027998305E+02  5.891739492E+01  3.657594606E+02  3.844724276E+02  0.000000000E+00  0.00000E+00  9.000E+00
#rwgt            1           1   3.5908244335784788E-002           8      173324           0
</event>
<event>
      5   9999  3.19816E-02  3.82497E+00 -1.00000E+00  2.68135E-01
      21    -1     0     0   502   501  0.000000000E+00  0.000000000E+00  3.695819887E+02  3.695819887E+02  0.000000000E+00  0.00000E+00  9.000E+00
       1    -1     0     0   501     0  0.000000000E+00  0.000000000E+00 -5.682805234E+02  5.682805234E+02  0.000000000E+00  0.00000E+00  9.000E+00
      25     1     1     2     0     0 -9.222838528E+01  3.585832631E+02  9.527449987E+01  4.022316024E+02  1.250000000E+02  0.00000E+00  9.000E+00
      25     1     1     2     0     0  9.423834113E+01 -3.553289636E+02 -1.912365349E+02  4.328232313E+02  1.250000000E+02  0.00000E+00  9.000E+00
       1     1     1     2   502     0 -2.009955852E+00 -3.254299520E+00 -1.027364996E+02  1.028076784E+02  0.000000000E+00  0.00000E+00  9.000E+00
#rwgt            1           1   2.4753408689828508E-002           8      173379           0
</event>
<event>
      5   9999  3.19816E-02  1.37943E+02 -1.00000E+00  1.17854E-01
      21    -1     0     0   502   501  0.000000000E+00  0.000000000E+00  1.947048367E+03  1.947048367E+03  0.000000000E+00  0.00000E+00  9.000E+00
      21    -1     0     0   511   502  0.000000000E+00  0.000000000E+00 -1.057056534E+03  1.057056534E+03  0.000000000E+00  0.00000E+00  9.000E+00
      25     1     1     2     0     0 -1.191582586E+03 -5.977885381E+02  5.339314509E+02  1.441501991E+03  1.250000000E+02  0.00000E+00  9.000E+00
      25     1     1     2     0     0  1.190355375E+03  4.598507698E+02  4.878040385E+02  1.371855105E+03  1.250000000E+02  0.00000E+00  9.000E+00
      21     1     1     2   511   501  1.227210679E+00  1.379377683E+02 -1.317436569E+02  1.907478050E+02  2.697398305E-06  0.00000E+00  9.000E+00
#rwgt            1           1   2.2145440725579696E-002           8      173876           0
</event>
<event>
      5   9999  3.19816E-02  3.20032E+01 -1.00000E+00  1.51115E-01
      21    -1     0     0   512   501  0.000000000E+00  0.000000000E+00  5.413431892E+02  5.413431892E+02  0.000000000E+00  0.00000E+00  9.000E+00
      21    -1     0     0   501   502  0.000000000E+00  0.000000000E+00 -1.418198119E+03  1.418198119E+03  0.000000000E+00  0.00000E+00  9.000E+00
      25     1     1     2     0     0 -8.182212810E+02 -1.146609351E+02 -2.094438758E+02  8.614667328E+02  1.250000000E+02  0.00000E+00  9.000E+00
      25     1     1     2     0     0  8.141024702E+02  1.463979355E+02 -6.591166008E+02  1.065014029E+03  1.250000000E+02  0.00000E+00  9.000E+00
      21     1     1     2   512   502  4.118810745E+00 -3.173700047E+01 -8.294453156E+00  3.306054678E+01  3.769728732E-07  0.00000E+00  9.000E+00
#rwgt            1           1   3.4119122287970108E-002           8      173980           0
</event>
<event>
      5   9999  3.19816E-02  1.85922E+01 -1.00000E+00  1.69028E-01
      21    -1     0     0   502   511  0.000000000E+00  0.000000000E+00  8.058522536E+01  8.058522536E+01  0.000000000E+00  0.00000E+00  9.000E+00
      21    -1     0     0   501   502  0.000000000E+00  0.000000000E+00 -1.018874060E+03  1.018874060E+03  0.000000000E+00  0.00000E+00  9.000E+00
      25     1     1     2     0     0 -1.253527319E+02 -4.371712291E+01 -8.537022683E+02  8.729587946E+02  1.250000000E+02  0.00000E+00  9.000E+00
      25     1     1     2     0     0  1.306055271E+02  6.155187820E+01 -8.156702300E+01  2.076646736E+02  1.250000000E+02  0.00000E+00  9.000E+00
      21     1     1     2   501   511 -5.252795243E+00 -1.783475530E+01 -3.019543031E+00  1.883581680E+01  3.009887021E-07  0.00000E+00  9.000E+00
#rwgt            1           1   2.8783319898894037E-002           8      174195           0
</event>
<event>
      5   9999  3.19816E-02  4.96159E+01 -1.00000E+00  1.39267E-01
      21    -1     0     0   502   501  0.000000000E+00  0.000000000E+00  8.463051924E+02  8.463051924E+02  0.000000000E+00  0.00000E+00  9.000E+00
      21    -1     0     0   512   502  0.000000000E+00  0.000000000E+00 -7.310452766E+01  7.310452766E+01  0.000000000E+00  0.00000E+00  9.000E+00
      25     1     1     2     0     0 -1.651262946E+02 -4.214373341E+01  3.197164692E+02  3.832576263E+02  1.250000000E+02  0.00000E+00  9.000E+00
      25     1     1     2     0     0  1.563663211E+02  9.098016930E+01  4.260687777E+02  4.794657662E+02  1.250000000E+02  0.00000E+00  9.000E+00
      21     1     1     2   512   501  8.759973410E+00 -4.883643589E+01  2.741541784E+01  5.668632762E+01  8.259061849E-07  0.00000E+00  9.000E+00
#rwgt            1           1   3.3687272115437338E-002           8      174339           0
</event>
<event>
      5   9999  3.19816E-02  8.44253E+01 -1.00000E+00  1.27228E-01
      21    -1     0     0   502   501  0.000000000E+00  0.000000000E+00  5.532447590E+02  5.532447590E+02  0.000000000E+00  0.00000E+00  9.000E+00
      21    -1     0     0   511   502  0.000000000E+00  0.000000000E+00 -5.500227593E+02  5.500227593E+02  0.000000000E+00  0.00000E+00  9.000E+00
      25     1     1     2     0     0 -7.133709539E+01  4.032637592E+02 -2.095931257E+02  4.767231052E+02  1.250000000E+02  0.00000E+00  9.000E+00
      25     1     1     2     0     0  1.399471654E+01 -4.652272801E+02  2.392866751E+02  5.380663408E+02  1.250000000E+02  0.00000E+00  9.000E+00
      21     1     1     2   511   501  5.734237885E+01  6.196352089E+01 -2.647154969E+01  8.847807229E+01  1.168007728E-06  0.00000E+00  9.000E+00
#rwgt            1           1   2.6660647507675023E-002           8      174429           0
</event>
<event>
      5   9999  3.19816E-02  5.29759E+01 -1.00000E+00  1.37658E-01
       2    -1     0     0   502     0  0.000000000E+00  0.000000000E+00  2.018104849E+03  2.018104849E+03  0.000000000E+00  0.00000E+00  9.000E+00
      21    -1     0     0   501   502  0.000000000E+00  0.000000000E+00 -1.433402955E+02  1.433402955E+02  0.000000000E+00  0.00000E+00  9.000E+00
      25     1     1     2     0     0 -1.752974641E+02 -8.202643936E+01  3.963027773E+02  4.584085830E+02  1.250000000E+02  0.00000E+00  9.000E+00
      25     1     1     2     0     0  1.273467372E+02  1.045468848E+02 -1.618907983E+01  2.074471714E+02  1.250000000E+02  0.00000E+00  9.000E+00
       2     1     1     2   501     0  4.795072683E+01 -2.252044539E+01  1.494650856E+03  1.495589390E+03  2.157918644E-05  0.00000E+00  9.000E+00
#rwgt            1           1   2.5558819467731662E-002           8      174580           0
</event>
<event>
      5   9999  3.19816E-02  6.91046E+00 -1.00000E+00  2.16347E-01
      21    -1     0     0   502   511  0.000000000E+00  0.000000000E+00  8.105599284E+02  8.105599284E+02  0.000000000E+00  0.00000E+00  9.000E+00
      21    -1     0     0   501   502  0.000000000E+00  0.000000000E+00 -4.610793654E+02  4.610793654E+02  0.000000000E+00  0.00000E+00  9.000E+00
      25     1     1     2     0     0  4.736716990E+02 -3.070538293E+02  3.308188911E+02  6.661179110E+02  1.250000000E+02  0.00000E+00  9.000E+00
      25     1     1     2     0     0 -4.801816848E+02  3.047355182E+02 -3.505668220E+00  5.823018772E+02  1.250000000E+02  0.00000E+00  9.000E+00
      21     1     1     2   501   511  6.509985718E+00  2.318311094E+00  2.216734000E+01  2.321950566E+01  2.384185791E-07  0.00000E+00  9.000E+00
#rwgt            1           1   3.1306054479975122E-002           8      174649           0
</event>
<event>
      5   9999  3.19816E-02  2.60080E+01 -1.00000E+00  1.57476E-01
      21    -1     0     0   512   501  0.000000000E+00  0.000000000E+00  7.030612723E+01  7.030612723E+01  0.000000000E+00  0.00000E+00  9.000E+00
      21    -1     0     0   501   502  0.000000000E+00  0.000000000E+00 -1.732619260E+03  1.732619260E+03  0.000000000E+00  0.00000E+00  9.000E+00
      25     1     1     2     0     0 -2.997649481E+02  2.532751092E+01 -8.142761060E+02  8.770239927E+02  1.250000000E+02  0.00000E+00  9.000E+00
      25     1     1     2     0     0  3.194336773E+02 -4.234390061E+01 -7.912135534E+02  8.634088065E+02  1.250000000E+02  0.00000E+00  9.000E+00
      21     1     1     2   512   502 -1.966872917E+01  1.701638970E+01 -5.682347291E+01  6.249258755E+01  6.743495762E-07  0.00000E+00  9.000E+00
#rwgt            1           1   3.0793582378540359E-002           8      174991           0
</event>
<event>
      5   9999  3.19816E-02  9.08986E+01 -1.00000E+00  1.25721E-01
      21    -1     0     0   502   511  0.000000000E+00  0.000000000E+00  1.444579769E+03  1.444579769E+03  0.000000000E+00  0.00000E+00  9.000E+00
      21    -1     0     0   501   502  0.000000000E+00  0.000000000E+00 -2.950390901E+02  2.950390901E+02  0.000000000E+00  0.00000E+00  9.000E+00
      25     1     1     2     0     0 -2.264724886E+02 -4.303425785E+02  3.272090498E+01  5.031701309E+02  1.250000000E+02  0.00000E+00  9.000E+00
      25     1     1     2     0     0  1.904259961E+02  3.468967500E+02  7.360715843E+02  8.450004689E+02  1.250000000E+02  0.00000E+00  9.000E+00
      21     1     1     2   501   511  3.604649258E+01  8.344582853E+01  3.807481891E+02  3.914482590E+02  5.394796609E-06  0.00000E+00  9.000E+00
#rwgt            1           1   3.0212069866070584E-002           8      175160           0
</event>
<event>
      5   9999  3.19816E-02  1.07113E+02 -1.00000E+00  1.22500E-01
      21    -1     0     0   512   501  0.000000000E+00  0.000000000E+00  1.519800909E+03  1.519800909E+03  0.000000000E+00  0.00000E+00  9.000E+00
      21    -1     0     0   501   502  0.000000000E+00  0.000000000E+00 -1.171123938E+02  1.171123938E+02  0.000000000E+00  0.00000E+00  9.000E+00
      25     1     1     2     0     0 -1.611108221E+02  3.318354774E+02  4.226621131E+02  5.747518968E+02  1.250000000E+02  0.00000E+00  9.000E+00
      25     1     1     2     0     0  7.890298480E+01 -2.631684352E+02  7.479312487E+02  8.065416660E+02  1.250000000E+02  0.00000E+00  9.000E+00
      21     1     1     2   512   502  8.220783728E+01 -6.866704214E+01  2.320951533E+02  2.556197398E+02  5.394796609E-06  0.00000E+00  9.000E+00
#rwgt            1           1   2.5924189258439676E-002           8      175235           0
</event>
<event>
      5   9999  3.19816E-02  4.75787E+01 -1.00000E+00  1.40317E-01
      21    -1     0     0   502   511  0.000000000E+00  0.000000000E+00  1.726635493E+02  1.726635493E+02  0.000000000E+00  0.00000E+00  9.000E+00
      21    -1     0     0   501   502  0.000000000E+00  0.000000000E+00 -7.898627337E+02  7.898627337E+02  0.000000000E+00  0.00000E+00  9.000E+00
      25     1     1     2     0     0 -2.188737936E+02 -4.031394512E+01 -7.229091321E+01  2.652959250E+02  1.250000000E+02  0.00000E+00  9.000E+00
      25     1     1     2     0     0  1.802660080E+02  1.250798888E+01 -5.912844066E+02  6.307888180E+02  1.250000000E+02  0.00000E+00  9.000E+00
      21     1     1     2   501   511  3.860778559E+01  2.780595624E+01  4.637613542E+01  6.644154007E+01  1.507891493E-06  0.00000E+00  9.000E+00
#rwgt            1           1   2.5815234392251543E-002           8      175309           0
</event>
<event>
      5   9999  3.19816E-02  4.84261E+01 -1.00000E+00  1.39873E-01
      21    -1     0     0   512   501  0.000000000E+00  0.000000000E+00  9.145610176E+01  9.145610176E+01  0.000000000E+00  0.00000E+00  9.000E+00
      21    -1     0     0   501   502  0.000000000E+00  0.000000000E+00 -2.098434940E+03  2.098434940E+03  0.000000000E+00  0.00000E+00  9.000E+00
      25     1     1     2     0     0 -2.262924230E+02 -3.324407759E+02 -1.195431498E+03  1.267440963E+03  1.250000000E+02  0.00000E+00  9.000E+00
      25     1     1     2     0     0  2.353428137E+02  2.848679164E+02 -7.247732427E+02  8.230778961E+02  1.250000000E+02  0.00000E+00  9.000E+00
      21     1     1     2   512   502 -9.050390653E+00  4.757285951E+01 -8.677409786E+01  9.937218219E+01  9.536743164E-07  0.00000E+00  9.000E+00
#rwgt            1           1   2.9726596616354781E-002           8      175461           0
</event>
<event>
      5   9999  3.19816E-02  8.32165E+01 -1.00000E+00  1.27526E-01
      21    -1     0     0   502   501  0.000000000E+00  0.000000000E+00  4.444669738E+02  4.444669738E+02  0.000000000E+00  0.00000E+00  9.000E+00
      -3    -1     0     0     0   502  0.000000000E+00  0.000000000E+00 -4.517607238E+02  4.517607238E+02  0.000000000E+00  0.00000E+00  9.000E+00
      25     1     1     2     0     0  1.763260718E+02  8.592484829E+01  7.210320170E+01  2.435114676E+02  1.250000000E+02  0.00000E+00  9.000E+00
      25     1     1     2     0     0 -2.595425026E+02 -8.583093099E+01  2.000950588E+02  3.610987287E+02  1.250000000E+02  0.00000E+00  9.000E+00
      -3     1     1     2     0   501  8.321643071E+01 -9.391729684E-02 -2.794920104E+02  2.916175013E+02  3.814697266E-06  0.00000E+00  9.000E+00
#rwgt            1           1   2.9828942301627984E-002           8      175576           0
</event>
<event>
      5   9999  3.19816E-02  7.97092E+01 -1.00000E+00  1.28426E-01
      21    -1     0     0   511   501  0.000000000E+00  0.000000000E+00  4.991220070E+02  4.991220070E+02  0.000000000E+00  0.00000E+00  9.000E+00
      21    -1     0     0   501   502  0.000000000E+00  0.000000000E+00 -7.393851410E+02  7.393851410E+02  0.000000000E+00  0.00000E+00  9.000E+00
      25     1     1     2     0     0 -3.138562660E+02 -3.115536340E+02 -3.285826992E+02  5.649451414E+02  1.250000000E+02  0.00000E+00  9.000E+00
      25     1     1     2     0     0  3.100860130E+02  3.911736581E+02 -4.677605994E+01  5.167041379E+02  1.250000000E+02  0.00000E+00  9.000E+00
      21     1     1     2   511   502  3.770252946E+00 -7.962002411E+01  1.350956252E+02  1.568578687E+02  1.907348633E-06  0.00000E+00  9.000E+00
#rwgt            1           1   2.8732703315285928E-002           8      175696           0
</event>
<event>
      5   9999  3.19816E-02  3.17372E+01 -1.00000E+00  1.51361E-01
      21    -1     0     0   502   501  0.000000000E+00  0.000000000E+00  4.762245430E+02  4.762245430E+02  0.000000000E+00  0.00000E+00  9.000E+00
      -5    -1     0     0     0   502  0.000000000E+00  0.000000000E+00 -5.253487523E+02  5.253487523E+02  0.000000000E+00  0.00000E+00  9.000E+00
      25     1     1     2     0     0 -7.749388135E+01 -1.110263465E+02  7.842975717E+01  2.002707619E+02  1.250000000E+02  0.00000E+00  9.000E+00
      25     1     1     2     0     0  5.846165427E+01  1.364236456E+02  3.083055789E+02  3.642890419E+02  1.250000000E+02  0.00000E+00  9.000E+00
      -5     1     1     2     0   501  1.903222708E+01 -2.539729909E+01 -4.358595454E+02  4.370134915E+02  0.000000000E+00  0.00000E+00  9.000E+00
#rwgt            1           1   2.6433949188312371E-002           8      175797           0
</event>
<event>
      5   9999  3.19816E-02  1.13032E+02 -1.00000E+00  1.21481E-01
      21    -1     0     0   511   501  0.000000000E+00  0.000000000E+00  3.520196257E+02  3.520196257E+02  0.000000000E+00  0.00000E+00  9.000E+00
      21    -1     0     0   501   502  0.000000000E+00  0.000000000E+00 -5.480377772E+02  5.480377772E+02  0.000000000E+00  0.00000E+00  9.000E+00
      25     1     1     2     0     0 -2.381326295E+02 -2.081942739E+01 -3.680493700E+02  4.563178021E+02  1.250000000E+02  0.00000E+00  9.000E+00
      25     1     1     2     0     0  2.325251124E+02  1.337122608E+02  1.283456678E+02  3.225593078E+02  1.250000000E+02  0.00000E+00  9.000E+00
      21     1     1     2   511   502  5.607517086E+00 -1.128928334E+02  4.368555064E+01  1.211802930E+02  2.286830675E-06  0.00000E+00  9.000E+00
#rwgt            2          11   3.8044123855136311E-003           8      175954           0
</event>
<event>
      5   9999  3.19816E-02  4.32264E+01 -1.00000E+00  1.42781E-01
      21    -1     0     0   502   501  0.000000000E+00  0.000000000E+00  2.957406523E+01  2.957406523E+01  0.000000000E+00  0.00000E+00  9.000E+00
       2    -1     0     0   501     0  0.000000000E+00  0.000000000E+00 -1.397399358E+03  1.397399358E+03  0.000000000E+00  0.00000E+00  9.000E+00
      25     1     1     2     0     0  8.520104836E+01 -4.575093003E+01 -9.142206057E+02  9.277805140E+02  1.250000000E+02  0.00000E+00  9.000E+00
      25     1     1     2     0     0 -4.685878031E+01  6.571076902E+01 -2.489705796E+02  2.900431002E+02  1.250000000E+02  0.00000E+00  9.000E+00
       2     1     1     2   502     0 -3.834226806E+01 -1.995983899E+01 -2.046341073E+02  2.091498089E+02  3.814697266E-06  0.00000E+00  9.000E+00
#rwgt            1           1   3.2360426862531232E-002           8      175974           0
</event>
<event>
      5   9999  3.19816E-02  7.25554E+01 -1.00000E+00  1.30437E-01
      21    -1     0     0   502   501  0.000000000E+00  0.000000000E+00  1.349968151E+03  1.349968151E+03  0.000000000E+00  0.00000E+00  9.000E+00
      21    -1     0     0   501   511  0.000000000E+00  0.000000000E+00 -2.384305356E+02  2.384305356E+02  0.000000000E+00  0.00000E+00  9.000E+00
      25     1     1     2     0     0  2.845774909E+01 -1.307667656E+02  1.226129656E+03  1.239729294E+03  1.250000000E+02  0.00000E+00  9.000E+00
      25     1     1     2     0     0 -9.121326062E+01  1.671815709E+02 -1.890778912E+01  2.285870535E+02  1.250000000E+02  0.00000E+00  9.000E+00
      21     1     1     2   502   511  6.275551152E+01 -3.641480529E+01 -9.568425092E+01  1.200823390E+02  3.015782986E-06  0.00000E+00  9.000E+00
#rwgt            1           1   2.8112293256829006E-002           8      176018           0
</event>
<event>
      5   9999  3.19816E-02  8.72919E+01 -1.00000E+00  1.26542E-01
      21    -1     0     0   502   512  0.000000000E+00  0.000000000E+00  1.443508377E+02  1.443508377E+02  0.000000000E+00  0.00000E+00  9.000E+00
      21    -1     0     0   501   502  0.000000000E+00  0.000000000E+00 -1.297544160E+03  1.297544160E+03  0.000000000E+00  0.00000E+00  9.000E+00
      25     1     1     2     0     0 -3.200251179E+01 -1.418925073E+02 -1.227057632E+01  1.921801536E+02  1.250000000E+02  0.00000E+00  9.000E+00
      25     1     1     2     0     0  1.062979906E+02  1.877189618E+02 -1.135176249E+03  1.162233964E+03  1.250000000E+02  0.00000E+00  9.000E+00
      21     1     1     2   501   512 -7.429547879E+01 -4.582645449E+01 -5.746496991E+00  8.748087978E+01  1.884864366E-06  0.00000E+00  9.000E+00
#rwgt            1           1   3.2521350344162578E-002           8      176136           0
</event>
<event>
      5   9999  3.19816E-02  2.88859E+02 -1.00000E+00  1.06129E-01
       2    -1     0     0   502     0  0.000000000E+00  0.000000000E+00  4.346939630E+02  4.346939630E+02  0.000000000E+00  0.00000E+00  9.000E+00
      21    -1     0     0   501   502  0.000000000E+00  0.000000000E+00 -1.613957296E+03  1.613957296E+03  0.000000000E+00  0.00000E+00  9.000E+00
      25     1     1     2     0     0 -2.741169195E+02 -2.307740156E+02 -2.197071199E+02  4.385122010E+02  1.250000000E+02  0.00000E+00  9.000E+00
      25     1     1     2     0     0  2.247729924E+02 -5.383919354E+01  2.523296934E+02  3.643032131E+02  1.250000000E+02  0.00000E+00  9.000E+00
       2     1     1     2   501     0  4.934392712E+01  2.846132091E+02 -1.211885906E+03  1.245835845E+03  2.642899792E-05  0.00000E+00  9.000E+00
#rwgt            1           1   2.5860909256580147E-002           8      176216           0
</event>
<event>
      5   9999  3.19816E-02  4.98963E+01 -1.00000E+00  1.39127E-01
      21    -1     0     0   502   501  0.000000000E+00  0.000000000E+00  4.797998480E+02  4.797998480E+02  0.000000000E+00  0.00000E+00  9.000E+00
      21    -1     0     0   501   511  0.000000000E+00  0.000000000E+00 -8.611735654E+02  8.611735654E+02  0.000000000E+00  0.00000E+00  9.000E+00
      25     1     1     2     0     0  3.842539573E+02  1.502340798E+02  8.868710725E+01  4.401270106E+02  1.250000000E+02  0.00000E+00  9.000E+00
      25     1     1     2     0     0 -3.368976790E+02 -1.345169982E+02  4.234044270E+01  3.860214787E+02  1.250000000E+02  0.00000E+00  9.000E+00
      21     1     1     2   502   511 -4.735627828E+01 -1.571708165E+01 -5.124012673E+02  5.148249241E+02  7.629394531E-06  0.00000E+00  9.000E+00
#rwgt            1           1   2.6703324925577178E-002           8      176255           0
</event>
<event>
      5   9999  3.19816E-02  9.40777E+02 -1.00000E+00  9.16322E-02
      21    -1     0     0   502   501  0.000000000E+00  0.000000000E+00  3.394143740E+03  3.394143740E+03  0.000000000E+00  0.00000E+00  9.000E+00
      -2    -1     0     0     0   502  0.000000000E+00  0.000000000E+00 -6.894225031E+02  6.894225031E+02  0.000000000E+00  0.00000E+00  9.000E+00
      25     1     1     2     0     0  1.264395909E+02 -1.013643712E+03  2.496038402E+03  2.699869117E+03  1.250000000E+02  0.00000E+00  9.000E+00
      25     1     1     2     0     0  1.442908354E+02  1.126624336E+02  3.679205898E+02  4.295383912E+02  1.250000000E+02  0.00000E+00  9.000E+00
      -2     1     1     2     0   501 -2.707304263E+02  9.009812789E+02 -1.592377548E+02  9.541587348E+02  2.009516478E-05  0.00000E+00  9.000E+00
#rwgt            2           9   6.5972810947702353E-005           8      176429           0
</event>
<event>
      5   9999  3.19816E-02  1.50633E+01 -1.00000E+00  1.77212E-01
      21    -1     0     0   502   501  0.000000000E+00  0.000000000E+00  1.532813646E+02  1.532813646E+02  0.000000000E+00  0.00000E+00  9.000E+00
      21    -1     0     0   501   511  0.000000000E+00  0.000000000E+00 -2.312037916E+02  2.312037916E+02  0.000000000E+00  0.00000E+00  9.000E+00
      25     1     1     2     0     0 -9.431624746E+01  4.292326007E+01 -2.639687784E+01  1.644984983E+02  1.250000000E+02  0.00000E+00  9.000E+00
      25     1     1     2     0     0  9.598787821E+01 -5.789349776E+01 -1.673024717E+00  1.679080965E+02  1.250000000E+02  0.00000E+00  9.000E+00
      21     1     1     2   502   511 -1.671630752E+00  1.497023768E+01 -4.985252443E+01  5.207856140E+01  0.000000000E+00  0.00000E+00  9.000E+00
#rwgt            1           1   3.0615181730558064E-002           8      176448           0
</event>
<event>
      5   9999  3.19816E-02  6.85567E+01 -1.00000E+00  1.31681E-01
       2    -1     0     0   502     0  0.000000000E+00  0.000000000E+00  3.466109529E+03  3.466109529E+03  0.000000000E+00  0.00000E+00  9.000E+00
      21    -1     0     0   501   502  0.000000000E+00  0.000000000E+00 -2.388663594E+02  2.388663594E+02  0.000000000E+00  0.00000E+00  9.000E+00
      25     1     1     2     0     0  2.957155910E+02  5.279615478E+02  1.331482128E+03  1.467876276E+03  1.250000000E+02  0.00000E+00  9.000E+00
      25     1     1     2     0     0 -3.609818821E+02 -5.489457669E+02  4.885615194E+02  8.282310863E+02  1.250000000E+02  0.00000E+00  9.000E+00
       2     1     1     2   501     0  6.526629109E+01  2.098421904E+01  1.407199522E+03  1.408868525E+03  1.525878906E-05  0.00000E+00  9.000E+00
#rwgt            1           1   2.4599768527304819E-002           8      176615           0
</event>
<event>
      5   9999  3.19816E-02  8.54619E+01 -1.00000E+00  1.26976E-01
      21    -1     0     0   511   501  0.000000000E+00  0.000000000E+00  2.289074040E+02  2.289074040E+02  0.000000000E+00  0.00000E+00  9.000E+00
      21    -1     0     0   501   502  0.000000000E+00  0.000000000E+00 -9.006753838E+02  9.006753838E+02  0.000000000E+00  0.00000E+00  9.000E+00
      25     1     1     2     0     0  2.040584846E+02 -2.890729724E+02 -3.095013197E+02  4.864351091E+02  1.250000000E+02  0.00000E+00  9.000E+00
      25     1     1     2     0     0 -1.799694962E+02  3.710696747E+02 -3.532369258E+02  5.572100580E+02  1.250000000E+02  0.00000E+00  9.000E+00
      21     1     1     2   511   502 -2.408898837E+01 -8.199670227E+01 -9.029734300E+00  8.593762067E+01  2.252393201E-06  0.00000E+00  9.000E+00
#rwgt            1           1   2.8478924626806255E-002           8      176689           0
</event>
<event>
      5   9999  3.19816E-02  3.79800E+01 -1.00000E+00  1.46250E-01
      21    -1     0     0   502   501  0.000000000E+00  0.000000000E+00  8.388352981E+02  8.388352981E+02  0.000000000E+00  0.00000E+00  9.000E+00
      21    -1     0     0   501   512  0.000000000E+00  0.000000000E+00 -2.503406243E+02  2.503406243E+02  0.000000000E+00  0.00000E+00  9.000E+00
      25     1     1     2     0     0  1.841016147E+01  6.978409050E+01  7.806579884E+02  7.938895693E+02  1.250000000E+02  0.00000E+00  9.000E+00
      25     1     1     2     0     0 -5.625228647E+01 -7.301718564E+01 -7.567798891E+01  1.727657001E+02  1.250000000E+02  0.00000E+00  9.000E+00
      21     1     1     2   502   512  3.784212500E+01  3.233095134E+00 -1.164853257E+02  1.225206531E+02  1.907348633E-06  0.00000E+00  9.000E+00
#rwgt            1           1   2.7753868258224706E-002           8      176798           0
</event>
<event>
      5   9999  3.19816E-02  1.93214E+02 -1.00000E+00  1.12197E-01
      21    -1     0     0   502   501  0.000000000E+00  0.000000000E+00  5.697573622E+02  5.697573622E+02  0.000000000E+00  0.00000E+00  9.000E+00
      21    -1     0     0   511   502  0.000000000E+00  0.000000000E+00 -2.740280239E+02  2.740280239E+02  0.000000000E+00  0.00000E+00  9.000E+00
      25     1     1     2     0     0  1.262803599E+02  2.840932389E+02  2.774226555E+02  4.350218701E+02  1.250000000E+02  0.00000E+00  9.000E+00
      25     1     1     2     0     0 -8.514665671E+00 -1.309172032E+02  9.043885791E+01  2.025240742E+02  1.250000000E+02  0.00000E+00  9.000E+00
      21     1     1     2   511   501 -1.177656942E+02 -1.531760358E+02 -7.213217508E+01  2.062394418E+02  3.932099939E-06  0.00000E+00  9.000E+00
#rwgt            1           1   2.7023774658729356E-002           8      176893           0
</event>
<event>
      5   9999  3.19816E-02  6.18318E+01 -1.00000E+00  1.34009E-01
      21    -1     0     0   512   501  0.000000000E+00  0.000000000E+00  6.272303079E+01  6.272303079E+01  0.000000000E+00  0.00000E+00  9.000E+00
      21    -1     0     0   501   502  0.000000000E+00  0.000000000E+00 -1.568781207E+03  1.568781207E+03  0.000000000E+00  0.00000E+00  9.000E+00
      25     1     1     2     0     0  1.340410880E+02 -1.469252193E+02 -9.806913961E+02  1.008431776E+03  1.250000000E+02  0.00000E+00  9.000E+00
      25     1     1     2     0     0 -8.267721413E+01  1.813479886E+02 -5.064272081E+02  5.584049891E+02  1.250000000E+02  0.00000E+00  9.000E+00
      21     1     1     2   512   502 -5.136387385E+01 -3.442276935E+01 -1.893957203E+01  6.466747231E+01  3.371747881E-07  0.00000E+00  9.000E+00
#rwgt            1           1   3.0617829626896090E-002           8      176948           0
</event>
<event>
      5   9999  3.19816E-02  1.22883E+02 -1.00000E+00  1.19932E-01
       2    -1     0     0   502     0  0.000000000E+00  0.000000000E+00  2.061641829E+03  2.061641829E+03  0.000000000E+00  0.00000E+00  9.000E+00
      21    -1     0     0   501   502  0.000000000E+00  0.000000000E+00 -4.763396458E+01  4.763396458E+01  0.000000000E+00  0.00000E+00  9.000E+00
      25     1     1     2     0     0 -9.188940022E+01  1.394489355E+02  5.470254486E+02  5.854498346E+02  1.250000000E+02  0.00000E+00  9.000E+00
      25     1     1     2     0     0 -8.453640082E+00 -6.851504171E+01  1.743397477E+02  2.253555471E+02  1.250000000E+02  0.00000E+00  9.000E+00
       2     1     1     2   501     0  1.003430403E+02 -7.093389376E+01  1.292642668E+03  1.298470412E+03  2.157918644E-05  0.00000E+00  9.000E+00
#rwgt            1           1   2.9787601402081414E-002           8      177044           0
</event>
<event>
      5   9999  3.21498E-02  8.90051E+01 -1.00000E+00  1.26147E-01
      21    -1     0     0   502   501  0.000000000E+00  0.000000000E+00  7.620522871E+02  7.620522871E+02  0.000000000E+00  0.00000E+00  9.000E+00
      21    -1     0     0   511   502  0.000000000E+00  0.000000000E+00 -1.710946743E+03  1.710946743E+03  0.000000000E+00  0.00000E+00  9.000E+00
      25     1     1     2     0     0 -7.258189744E+02 -2.061032596E+02 -1.166190930E+03  1.394603178E+03  1.250000000E+02  0.00000E+00  9.000E+00
      25     1     1     2     0     0  8.120716736E+02  1.841402576E+02  3.555197010E+02  9.139952382E+02  1.250000000E+02  0.00000E+00  9.000E+00
      21     1     1     2   511   501 -8.625269923E+01  2.196300196E+01 -1.382232267E+02  1.644006143E+02  2.697398305E-06  0.00000E+00  9.000E+00
#rwgt            1           1   3.2046688607849365E-002           8      177089           0
</event>
<event>
      5   9999  3.19816E-02  6.49647E+00 -1.00000E+00  2.20240E-01
      21    -1     0     0   502   512  0.000000000E+00  0.000000000E+00  9.501145534E+02  9.501145534E+02  0.000000000E+00  0.00000E+00  9.000E+00
      21    -1     0     0   501   502  0.000000000E+00  0.000000000E+00 -1.836849595E+02  1.836849595E+02  0.000000000E+00  0.00000E+00  9.000E+00
      25     1     1     2     0     0 -1.573679726E+02  9.393268869E+01  8.462577637E+02  8.748515482E+02  1.250000000E+02  0.00000E+00  9.000E+00
      25     1     1     2     0     0  1.541139091E+02 -9.955542981E+01 -9.573197440E+01  2.417684667E+02  1.250000000E+02  0.00000E+00  9.000E+00
      21     1     1     2   501   512  3.254063510E+00  5.622741121E+00  1.590380462E+01  1.717949791E+01  1.685873940E-07  0.00000E+00  9.000E+00
#rwgt            1           1   2.5365961793356644E-002           8      177226           0
</event>
<event>
      5   9999  3.19816E-02  1.93763E+02 -1.00000E+00  1.12151E-01
      21    -1     0     0   502   511  0.000000000E+00  0.000000000E+00  8.887141455E+01  8.887141455E+01  0.000000000E+00  0.00000E+00  9.000E+00
      21    -1     0     0   501   502  0.000000000E+00  0.000000000E+00 -1.341571701E+03  1.341571701E+03  0.000000000E+00  0.00000E+00  9.000E+00
      25     1     1     2     0     0 -1.064558148E+01  4.457543366E+01 -5.539936888E+02  5.697668865E+02  1.250000000E+02  0.00000E+00  9.000E+00
      25     1     1     2     0     0  3.340486548E+01 -2.369966804E+02 -5.621292297E+02  6.236165347E+02  1.250000000E+02  0.00000E+00  9.000E+00
      21     1     1     2   501   511 -2.275928401E+01  1.924212468E+02 -1.365773679E+02  2.370596942E+02  3.814697266E-06  0.00000E+00  9.000E+00
#rwgt            1           1   2.8393611940980563E-002           8      177629           0
</event>
<event>
      5   9999  3.19816E-02  3.61631E+01 -1.00000E+00  1.47610E-01
      21    -1     0     0   502   501  0.000000000E+00  0.000000000E+00  1.565142720E+02  1.565142720E+02  0.000000000E+00  0.00000E+00  9.000E+00
      21    -1     0     0   501   512  0.000000000E+00  0.000000000E+00 -3.595007748E+02  3.595007748E+02  0.000000000E+00  0.00000E+00  9.000E+00
      25     1     1     2     0     0 -1.019178068E+02 -8.338144279E+01 -1.887963997E+02  2.619327869E+02  1.250000000E+02  0.00000E+00  9.000E+00
      25     1     1     2     0     0  6.617110012E+01  7.790945870E+01  5.942799045E+01  1.720615712E+02  1.250000000E+02  0.00000E+00  9.000E+00
      21     1     1     2   502   512  3.574670669E+01  5.471984082E+00 -7.361809364E+01  8.202068861E+01  9.536743164E-07  0.00000E+00  9.000E+00
#rwgt            1           1   2.9228078113291069E-002           8      177693           0
</event>
<event>
      5   9999  3.19816E-02  5.37053E+01 -1.00000E+00  1.37327E-01
      21    -1     0     0   502   501  0.000000000E+00  0.000000000E+00  2.188658466E+02  2.188658466E+02  0.000000000E+00  0.00000E+00  9.000E+00
      21    -1     0     0   511   502  0.000000000E+00  0.000000000E+00 -3.193268924E+02  3.193268924E+02  0.000000000E+00  0.00000E+00  9.000E+00
      25     1     1     2     0     0  6.797961509E+01  1.593237206E+02 -1.253659434E+02  2.476830551E+02  1.250000000E+02  0.00000E+00  9.000E+00
      25     1     1     2     0     0 -8.309187372E+01 -1.077885164E+02  9.047689547E+01  2.057515306E+02  1.250000000E+02  0.00000E+00  9.000E+00
      21     1     1     2   511   501  1.511225863E+01 -5.153520424E+01 -6.557199794E+01  8.475815330E+01  1.348699152E-06  0.00000E+00  9.000E+00
#rwgt            1           1   2.1300567217332044E-002           8      177797           0
</event>
<event>
      5   9999  3.19816E-02  1.14927E+02 -1.00000E+00  1.21170E-01
      21    -1     0     0   512   501  0.000000000E+00  0.000000000E+00  4.075979391E+02  4.075979391E+02  0.000000000E+00  0.00000E+00  9.000E+00
      21    -1     0     0   501   502  0.000000000E+00  0.000000000E+00 -3.865107177E+02  3.865107177E+02  0.000000000E+00  0.00000E+00  9.000E+00
      25     1     1     2     0     0  4.234207067E+01 -1.731164872E+02  1.028359507E+02  2.407538200E+02  1.250000000E+02  0.00000E+00  9.000E+00
      25     1     1     2     0     0 -7.158456321E+01  2.842605879E+02 -2.096124453E+02  3.814325743E+02  1.250000000E+02  0.00000E+00  9.000E+00
      21     1     1     2   512   502  2.924249254E+01 -1.111441007E+02  1.278637159E+02  1.719222625E+02  3.015782986E-06  0.00000E+00  9.000E+00
#rwgt            1           1   2.7574530860414139E-002           8      177861           0
</event>
<event>
      5   9999  3.19816E-02  2.29870E+02 -1.00000E+00  1.09491E-01
      21    -1     0     0   502   511  0.000000000E+00  0.000000000E+00  3.658748755E+02  3.658748755E+02  0.000000000E+00  0.00000E+00  9.000E+00
      21    -1     0     0   501   502  0.000000000E+00  0.000000000E+00 -5.177883124E+02  5.177883124E+02  0.000000000E+00  0.00000E+00  9.000E+00
      25     1     1     2     0     0  8.560520768E+01  1.850262139E+00 -3.099853267E+02  3.450327200E+02  1.250000000E+02  0.00000E+00  9.000E+00
      25     1     1     2     0     0  2.609719259E+01  1.990541195E+02  1.941100446E+02  3.059531261E+02  1.250000000E+02  0.00000E+00  9.000E+00
      21     1     1     2   501   511 -1.117024003E+02 -2.009043816E+02 -3.603815476E+01  2.326773418E+02  3.662655710E-06  0.00000E+00  9.000E+00
#rwgt            1           1   3.1519371045341735E-002           8      177956           0
</event>
<event>
      5   9999  3.19816E-02  2.90142E+01 -1.00000E+00  1.54055E-01
      21    -1     0     0   502   501  0.000000000E+00  0.000000000E+00  5.287398249E+01  5.287398249E+01  0.000000000E+00  0.00000E+00  9.000E+00
      21    -1     0     0   512   502  0.000000000E+00  0.000000000E+00 -6.777277912E+02  6.777277912E+02  0.000000000E+00  0.00000E+00  9.000E+00
      25     1     1     2     0     0 -1.137494269E+01 -3.325154769E+01 -4.888895409E+02  5.058389447E+02  1.250000000E+02  0.00000E+00  9.000E+00
      25     1     1     2     0     0  4.750645198E+00  6.149940039E+01 -7.747972239E+01  1.594768079E+02  1.250000000E+02  0.00000E+00  9.000E+00
      21     1     1     2   512   501  6.624297493E+00 -2.824785269E+01 -5.848454536E+01  6.528602106E+01  1.348699152E-06  0.00000E+00  9.000E+00
#rwgt            1           1   3.0159918024277033E-002           8      178075           0
</event>
<event>
      5   9999  3.19816E-02  2.77241E+02 -1.00000E+00  1.06717E-01
       2    -1     0     0   502     0  0.000000000E+00  0.000000000E+00  2.751962623E+03  2.751962623E+03  0.000000000E+00  0.00000E+00  9.000E+00
      21    -1     0     0   501   502  0.000000000E+00  0.000000000E+00 -1.774866616E+02  1.774866616E+02  0.000000000E+00  0.00000E+00  9.000E+00
      25     1     1     2     0     0  1.123945070E+02  1.853665512E+02  4.649300862E+01  2.545189253E+02  1.250000000E+02  0.00000E+00  9.000E+00
      25     1     1     2     0     0 -2.026814785E+02  7.676086501E+01  1.741733771E+02  3.048497620E+02  1.250000000E+02  0.00000E+00  9.000E+00
       2     1     1     2   501     0  9.028697150E+01 -2.621274162E+02  2.353809576E+03  2.370080598E+03  0.000000000E+00  0.00000E+00  9.000E+00
#rwgt            1           1   2.8031766414755854E-002           8      178145           0
</event>
<event>
      5   9999  3.19816E-02  2.25197E+01 -1.00000E+00  1.62226E-01
      21    -1     0     0   502   501  0.000000000E+00  0.000000000E+00  1.216608564E+02  1.216608564E+02  0.000000000E+00  0.00000E+00  9.000E+00
      21    -1     0     0   511   502  0.000000000E+00  0.000000000E+00 -3.083808096E+02  3.083808096E+02  0.000000000E+00  0.00000E+00  9.000E+00
      25     1     1     2     0     0 -3.170314491E+01  1.052212880E+02 -4.570876931E+01  1.726004068E+02  1.250000000E+02  0.00000E+00  9.000E+00
      25     1     1     2     0     0  4.986044493E+01 -1.185423157E+02 -8.784008477E+01  1.996978344E+02  1.250000000E+02  0.00000E+00  9.000E+00
      21     1     1     2   511   501 -1.815730003E+01  1.332102770E+01 -5.317109909E+01  5.774342475E+01  6.743495762E-07  0.00000E+00  9.000E+00
#rwgt            1           1   2.2748851391010700E-002           8      178172           0
</event>
<event>
      5   9999  3.19816E-02  1.49229E+02 -1.00000E+00  1.16482E-01
      21    -1     0     0   502   501  0.000000000E+00  0.000000000E+00  9.577941271E+01  9.577941271E+01  0.000000000E+00  0.00000E+00  9.000E+00
       2    -1     0     0   501     0  0.000000000E+00  0.000000000E+00 -2.107935621E+03  2.107935621E+03  0.000000000E+00  0.00000E+00  9.000E+00
      25     1     1     2     0     0  2.231142561E+02 -2.220218388E+02 -1.275146230E+03  1.319354606E+03  1.250000000E+02  0.00000E+00  9.000E+00
      25     1     1     2     0     0 -9.569196315E+01  2.996924922E+02 -4.844299632E+02  5.909906353E+02  1.250000000E+02  0.00000E+00  9.000E+00
       2     1     1     2   502     0 -1.274222930E+02 -7.767065336E+01 -2.525800145E+02  2.933697920E+02  6.031565972E-06  0.00000E+00  9.000E+00
#rwgt            1           1   2.7859872493073340E-002           8      178293           0
</event>
<event>
      5   9999  3.19816E-02  2.00069E+01 -1.00000E+00  1.66357E-01
      21    -1     0     0   511   501  0.000000000E+00  0.000000000E+00  6.003415680E+02  6.003415680E+02  0.000000000E+00  0.00000E+00  9.000E+00
      21    -1     0     0   501   502  0.000000000E+00  0.000000000E+00 -8.860884422E+02  8.860884422E+02  0.000000000E+00  0.00000E+00  9.000E+00
      25     1     1     2     0     0 -1.917890443E+02 -1.653888302E+02 -7.830593819E+02  8.324322785E+02  1.250000000E+02  0.00000E+00  9.000E+00
      25     1     1     2     0     0  1.911420464E+02  1.853852817E+02  1.993004841E+02  3.553148851E+02  1.250000000E+02  0.00000E+00  9.000E+00
      21     1     1     2   511   502  6.469978864E-01 -1.999645155E+01  2.980120236E+02  2.986828467E+02  0.000000000E+00  0.00000E+00  9.000E+00
#rwgt            1           1   3.0127179875748544E-002           8      178363           0
</event>
<event>
      5   9999  3.19816E-02  4.99239E+02 -1.00000E+00  9.88708E-02
       2    -1     0     0   502     0  0.000000000E+00  0.000000000E+00  2.534549700E+03  2.534549700E+03  0.000000000E+00  0.00000E+00  9.000E+00
      21    -1     0     0   501   502  0.000000000E+00  0.000000000E+00 -4.466060190E+02  4.466060190E+02  0.000000000E+00  0.00000E+00  9.000E+00
      25     1     1     2     0     0  2.943716694E+02 -8.853413502E+01 -2.594496764E+02  4.212269073E+02  1.250000000E+02  0.00000E+00  9.000E+00
      25     1     1     2     0     0  1.927899324E+02  1.976815865E+02  2.194460354E+02  3.742025256E+02  1.250000000E+02  0.00000E+00  9.000E+00
       2     1     1     2   501     0 -4.871616018E+02 -1.091474515E+02  2.127947322E+03  2.185726286E+03  3.051757812E-05  0.00000E+00  9.000E+00
#rwgt            1           1   2.7111163667215714E-002           8      178547           0
</event>
<event>
      5   9999  3.19816E-02  1.05403E+02 -1.00000E+00  1.22809E-01
      21    -1     0     0   502   501  0.000000000E+00  0.000000000E+00  7.082727095E+02  7.082727095E+02  0.000000000E+00  0.00000E+00  9.000E+00
      21    -1     0     0   511   502  0.000000000E+00  0.000000000E+00 -2.001567662E+02  2.001567662E+02  0.000000000E+00  0.00000E+00  9.000E+00
      25     1     1     2     0     0 -1.825553156E+01  1.553208411E+02  5.975568434E+02  6.302039425E+02  1.250000000E+02  0.00000E+00  9.000E+00
      25     1     1     2     0     0  7.128448343E+01 -6.422924949E+01 -6.173076120E+01  1.692411326E+02  1.250000000E+02  0.00000E+00  9.000E+00
      21     1     1     2   511   501 -5.302895187E+01 -9.109159158E+01 -2.771013881E+01  1.089844007E+02  1.545128989E-06  0.00000E+00  9.000E+00
#rwgt            1           1   2.7688906535912543E-002           8      178578           0
</event>
<event>
      5   9999  3.19816E-02  1.49748E+02 -1.00000E+00  1.16423E-01
      21    -1     0     0   502   501  0.000000000E+00  0.000000000E+00  3.067042794E+02  3.067042794E+02  0.000000000E+00  0.00000E+00  9.000E+00
       1    -1     0     0   501     0  0.000000000E+00  0.000000000E+00 -4.163117813E+02  4.163117813E+02  0.000000000E+00  0.00000E+00  9.000E+00
      25     1     1     2     0     0 -5.765023914E+00 -2.240987281E+02  2.114171831E+01  2.575372744E+02  1.250000000E+02  0.00000E+00  9.000E+00
      25     1     1     2     0     0 -1.439757842E+02  2.226465191E+02 -5.726189350E+01  2.986710956E+02  1.250000000E+02  0.00000E+00  9.000E+00
       1     1     1     2   502     0  1.497408081E+02  1.452209090E+00 -7.348732671E+01  1.668076908E+02  1.348699152E-06  0.00000E+00  9.000E+00
#rwgt            1           1   3.2599391362857208E-002           8      178638           0
</event>
<event>
      5   9999  3.20505E-02  4.06356E+01 -1.00000E+00  1.44417E-01
      21    -1     0     0   502   501  0.000000000E+00  0.000000000E+00  5.799221316E+02  5.799221316E+02  0.000000000E+00  0.00000E+00  9.000E+00
      21    -1     0     0   501   511  0.000000000E+00  0.000000000E+00 -2.242556605E+02  2.242556605E+02  0.000000000E+00  0.00000E+00  9.000E+00
      25     1     1     2     0     0 -4.735122099E+01  2.658149614E+02  2.528048324E+02  3.904292704E+02  1.250000000E+02  0.00000E+00  9.000E+00
      25     1     1     2     0     0  4.154670475E+01 -3.060339068E+02  1.374194515E+02  3.604053085E+02  1.250000000E+02  0.00000E+00  9.000E+00
      21     1     1     2   502   511  5.804516241E+00  4.021894531E+01 -3.455781286E+01  5.334321326E+01  4.768371582E-07  0.00000E+00  9.000E+00
#rwgt            1           1   3.0383034764915058E-002           8      178719           0
</event>
<event>
      5   9999  3.19816E-02  2.27821E+02 -1.00000E+00  1.09627E-01
      21    -1     0     0   502   501  0.000000000E+00  0.000000000E+00  1.518988095E+03  1.518988095E+03  0.000000000E+00  0.00000E+00  9.000E+00
       2    -1     0     0   501     0  0.000000000E+00  0.000000000E+00 -1.879666582E+03  1.879666582E+03  0.000000000E+00  0.00000E+00  9.000E+00
      25     1     1     2     0     0 -1.108361524E+02 -5.587022779E+01 -3.441115126E+01  1.794861063E+02  1.250000000E+02  0.00000E+00  9.000E+00
      25     1     1     2     0     0  3.316472638E+02 -2.086150274E-01  1.417217079E+03  1.460862485E+03  1.250000000E+02  0.00000E+00  9.000E+00
       2     1     1     2   502     0 -2.208111114E+02  5.607884282E+01 -1.743484415E+03  1.758306085E+03  2.157918644E-05  0.00000E+00  9.000E+00
#rwgt            1           1   2.9021100756553054E-002           8      178824           0
</event>
<event>
      5   9999  3.19816E-02  1.52396E+02 -1.00000E+00  1.16122E-01
      21    -1     0     0   502   501  0.000000000E+00  0.000000000E+00  2.476793645E+02  2.476793645E+02  0.000000000E+00  0.00000E+00  9.000E+00
      21    -1     0     0   511   502  0.000000000E+00  0.000000000E+00 -6.118703530E+02  6.118703530E+02  0.000000000E+00  0.00000E+00  9.000E+00
      25     1     1     2     0     0 -9.133504735E+01  1.430371443E+02 -1.951530659E+01  2.116779694E+02  1.250000000E+02  0.00000E+00  9.000E+00
      25     1     1     2     0     0 -3.893443344E+01 -2.221215783E+02  1.394707235E+01  2.582119410E+02  1.250000000E+02  0.00000E+00  9.000E+00
      21     1     1     2   511   501  1.302694808E+02  7.908443402E+01 -3.586227542E+02  3.896598070E+02  3.814697266E-06  0.00000E+00  9.000E+00
#rwgt            1           1   2.5795305688107086E-002           8      178880           0
</event>
<event>
      5   9999  3.19816E-02  6.88769E+01 -1.00000E+00  1.31577E-01
      21    -1     0     0   502   501  0.000000000E+00  0.000000000E+00  5.192425842E+01  5.192425842E+01  0.000000000E+00  0.00000E+00  9.000E+00
       2    -1     0     0   501     0  0.000000000E+00  0.000000000E+00 -1.160992982E+03  1.160992982E+03  0.000000000E+00  0.00000E+00  9.000E+00
      25     1     1     2     0     0  1.112297860E+02 -2.927589431E+01 -1.745564609E+02  2.435653944E+02  1.250000000E+02  0.00000E+00  9.000E+00
      25     1     1     2     0     0 -1.070776416E+02 -3.947574930E+01 -4.656651380E+02  4.954724784E+02  1.250000000E+02  0.00000E+00  9.000E+00
       2     1     1     2   502     0 -4.152144355E+00  6.875164361E+01 -4.688471247E+02  4.738793677E+02  7.629394531E-06  0.00000E+00  9.000E+00
#rwgt            1           1   2.5336520050942536E-002           8      178940           0
</event>
<event>
      5   9999  3.19816E-02  5.08106E+01 -1.00000E+00  1.38678E-01
      21    -1     0     0   502   501  0.000000000E+00  0.000000000E+00  8.388309329E+02  8.388309329E+02  0.000000000E+00  0.00000E+00  9.000E+00
      21    -1     0     0   511   502  0.000000000E+00  0.000000000E+00 -1.210685087E+03  1.210685087E+03  0.000000000E+00  0.00000E+00  9.000E+00
      25     1     1     2     0     0 -5.490401128E+02 -6.740687414E+02 -1.279362436E+02  8.875845853E+02  1.250000000E+02  0.00000E+00  9.000E+00
      25     1     1     2     0     0  5.036101702E+02  6.513127234E+02  7.766963649E+01  8.363546135E+02  1.250000000E+02  0.00000E+00  9.000E+00
      21     1     1     2   511   501  4.542994264E+01  2.275601807E+01 -3.215875472E+02  3.255768213E+02  3.814697266E-06  0.00000E+00  9.000E+00
#rwgt            1           1   3.4719252902874982E-002           8      179024           0
</event>
<event>
      5   9999  3.19816E-02  4.52603E+01 -1.00000E+00  1.41589E-01
      21    -1     0     0   502   501  0.000000000E+00  0.000000000E+00  1.238218160E+02  1.238218160E+02  0.000000000E+00  0.00000E+00  9.000E+00
       1    -1     0     0   501     0  0.000000000E+00  0.000000000E+00 -1.139628669E+03  1.139628669E+03  0.000000000E+00  0.00000E+00  9.000E+00
      25     1     1     2     0     0  1.956719616E+00 -5.505203690E+01  3.513318073E+01  1.410457228E+02  1.250000000E+02  0.00000E+00  9.000E+00
      25     1     1     2     0     0  4.230538049E+01  4.559885290E+01 -1.032899120E+02  1.736744268E+02  1.250000000E+02  0.00000E+00  9.000E+00
       1     1     1     2   502     0 -4.426210011E+01  9.453184008E+00 -9.476501212E+02  9.487303349E+02  1.525878906E-05  0.00000E+00  9.000E+00
#rwgt            1           1   5.1473862201762588E-002           8      179224           0
</event>
<event>
      5   9999  3.19816E-02  7.02435E+01 -1.00000E+00  1.31144E-01
      21    -1     0     0   502   501  0.000000000E+00  0.000000000E+00  4.665471601E+03  4.665471601E+03  0.000000000E+00  0.00000E+00  9.000E+00
      21    -1     0     0   501   511  0.000000000E+00  0.000000000E+00 -4.485764435E+02  4.485764435E+02  0.000000000E+00  0.00000E+00  9.000E+00
      25     1     1     2     0     0  4.659785121E+02 -7.971569092E+02  9.292939774E+02  1.315981538E+03  1.250000000E+02  0.00000E+00  9.000E+00
      25     1     1     2     0     0 -4.493272397E+02  7.289155799E+02  3.483803447E+03  3.589669114E+03  1.250000000E+02  0.00000E+00  9.000E+00
      21     1     1     2   502   511 -1.665127235E+01  6.824132926E+01 -1.962022667E+02  2.083973929E+02  3.814697266E-06  0.00000E+00  9.000E+00
#rwgt            2          11   1.7501595158278898E-003           8      179390           0
</event>
<event>
      5   9999  3.19816E-02  3.29668E+01 -1.00000E+00  1.50249E-01
      21    -1     0     0   502   501  0.000000000E+00  0.000000000E+00  3.584278890E+03  3.584278890E+03  0.000000000E+00  0.00000E+00  9.000E+00
      21    -1     0     0   501   512  0.000000000E+00  0.000000000E+00 -3.404778127E+02  3.404778127E+02  0.000000000E+00  0.00000E+00  9.000E+00
      25     1     1     2     0     0  8.130437394E+02  1.278232132E+02  3.576666497E+02  9.060515042E+02  1.250000000E+02  0.00000E+00  9.000E+00
      25     1     1     2     0     0 -7.996503032E+02 -9.769971291E+01  2.866855038E+03  2.980514830E+03  1.250000000E+02  0.00000E+00  9.000E+00
      21     1     1     2   502   512 -1.339343620E+01 -3.012350030E+01  1.927938962E+01  3.819036878E+01  6.307962682E-07  0.00000E+00  9.000E+00
#rwgt            1           1   5.2104444771887998E-002           8      179410           0
</event>
<event>
      5   9999  3.19816E-02  3.36949E+02 -1.00000E+00  1.03979E-01
      21    -1     0     0   511   501  0.000000000E+00  0.000000000E+00  2.654094352E+02  2.654094352E+02  0.000000000E+00  0.00000E+00  9.000E+00
      21    -1     0     0   501   502  0.000000000E+00  0.000000000E+00 -2.273557140E+03  2.273557140E+03  0.000000000E+00  0.00000E+00  9.000E+00
      25     1     1     2     0     0  1.977886399E+02  3.898726156E+02 -2.702808583E+02  5.289591145E+02  1.250000000E+02  0.00000E+00  9.000E+00
      25     1     1     2     0     0 -5.331762218E+02 -3.574734258E+02 -1.320777843E+03  1.473819272E+03  1.250000000E+02  0.00000E+00  9.000E+00
      21     1     1     2   511   502  3.353875819E+02 -3.239918976E+01 -4.170890026E+02  5.361881887E+02  1.078959322E-05  0.00000E+00  9.000E+00
#rwgt            1           1   3.0599407415520377E-002           8      179594           0
</event>
<event>
      5   9999  3.19816E-02  1.20618E+02 -1.00000E+00  1.20274E-01
      21    -1     0     0   502   501  0.000000000E+00  0.000000000E+00  1.607665248E+03  1.607665248E+03  0.000000000E+00  0.00000E+00  9.000E+00
      21    -1     0     0   512   502  0.000000000E+00  0.000000000E+00 -7.235774683E+01  7.235774683E+01  0.000000000E+00  0.00000E+00  9.000E+00
      25     1     1     2     0     0 -1.314866081E+01  2.371107007E+02  8.911940088E+02  9.307234460E+02  1.250000000E+02  0.00000E+00  9.000E+00
      25     1     1     2     0     0  1.253208183E+02 -1.927701351E+02  4.586692028E+02  5.280796058E+02  1.250000000E+02  0.00000E+00  9.000E+00
      21     1     1     2   512   501 -1.121721575E+02 -4.434056553E+01  1.854442899E+02  2.212199433E+02  2.697398305E-06  0.00000E+00  9.000E+00
#rwgt            1           1   2.9230549630684978E-002           8      179646           0
</event>
<event>
      5   9999  3.19816E-02  3.56167E+01 -1.00000E+00  1.48037E-01
      21    -1     0     0   502   501  0.000000000E+00  0.000000000E+00  1.150643756E+02  1.150643756E+02  0.000000000E+00  0.00000E+00  9.000E+00
      21    -1     0     0   511   502  0.000000000E+00  0.000000000E+00 -9.462348637E+02  9.462348637E+02  0.000000000E+00  0.00000E+00  9.000E+00
      25     1     1     2     0     0 -1.036341089E+02 -2.038687519E+02 -5.948613832E+02  6.494517394E+02  1.250000000E+02  0.00000E+00  9.000E+00
      25     1     1     2     0     0  1.191570620E+02  2.359247653E+02 -1.744440229E+02  3.404623583E+02  1.250000000E+02  0.00000E+00  9.000E+00
      21     1     1     2   511   501 -1.552295314E+01 -3.205601341E+01 -6.186508204E+01  7.138514163E+01  6.743495762E-07  0.00000E+00  9.000E+00
#rwgt            1           1   2.8241770700369605E-002           8      179731           0
</event>
<event>
      5   9999  3.19816E-02  1.40524E+02 -1.00000E+00  1.17528E-01
      21    -1     0     0   502   501  0.000000000E+00  0.000000000E+00  4.548540872E+02  4.548540872E+02  0.000000000E+00  0.00000E+00  9.000E+00
      21    -1     0     0   501   512  0.000000000E+00  0.000000000E+00 -1.208371730E+03  1.208371730E+03  0.000000000E+00  0.00000E+00  9.000E+00
      25     1     1     2     0     0  3.103728888E+02  4.192085999E+02 -1.263381632E+02  5.510476493E+02  1.250000000E+02  0.00000E+00  9.000E+00
      25     1     1     2     0     0 -3.521593789E+02 -2.850415095E+02 -5.541733937E-01  4.699895716E+02  1.250000000E+02  0.00000E+00  9.000E+00
      21     1     1     2   502   512  4.178649015E+01 -1.341670905E+02 -6.266253062E+02  6.421885963E+02  0.000000000E+00  0.00000E+00  9.000E+00
#rwgt            1           1   3.1482602552819761E-002           8      179829           0
</event>
<event>
      5   9999  3.19816E-02  5.57327E+01 -1.00000E+00  1.36438E-01
      21    -1     0     0   511   501  0.000000000E+00  0.000000000E+00  4.762390103E+02  4.762390103E+02  0.000000000E+00  0.00000E+00  9.000E+00
      21    -1     0     0   501   502  0.000000000E+00  0.000000000E+00 -2.348665604E+02  2.348665604E+02  0.000000000E+00  0.00000E+00  9.000E+00
      25     1     1     2     0     0  1.360357299E+02  1.467785698E+02 -7.440425169E+01  2.474078839E+02  1.250000000E+02  0.00000E+00  9.000E+00
      25     1     1     2     0     0 -1.848678653E+02 -1.736404078E+02  2.767862528E+02  3.956801089E+02  1.250000000E+02  0.00000E+00  9.000E+00
      21     1     1     2   511   502  4.883213549E+01  2.686183798E+01  3.899044885E+01  6.801757786E+01  0.000000000E+00  0.00000E+00  9.000E+00
#rwgt            1           1   2.8565229661393434E-002           8      179894           0
</event>
<event>
      5   9999  3.19816E-02  2.32488E+02 -1.00000E+00  1.09319E-01
      21    -1     0     0   512   501  0.000000000E+00  0.000000000E+00  1.276737478E+03  1.276737478E+03  0.000000000E+00  0.00000E+00  9.000E+00
      21    -1     0     0   501   502  0.000000000E+00  0.000000000E+00 -4.105457529E+02  4.105457529E+02  0.000000000E+00  0.00000E+00  9.000E+00
      25     1     1     2     0     0  8.656905979E+00 -4.367406568E+02  7.189261548E+02  8.504687880E+02  1.250000000E+02  0.00000E+00  9.000E+00
      25     1     1     2     0     0 -2.345535323E+02  3.817745821E+02 -1.221559241E+02  4.809514121E+02  1.250000000E+02  0.00000E+00  9.000E+00
      21     1     1     2   512   502  2.258966263E+02  5.496607475E+01  2.694214947E+02  3.558630312E+02  5.394796609E-06  0.00000E+00  9.000E+00
#rwgt            1           1   3.3118633704995688E-002           8      179970           0
</event>
<event>
      5   9999  3.19816E-02  3.94809E+00 -1.00000E+00  2.64814E-01
      21    -1     0     0   502   501  0.000000000E+00  0.000000000E+00  8.439044522E+02  8.439044522E+02  0.000000000E+00  0.00000E+00  9.000E+00
      21    -1     0     0   511   502  0.000000000E+00  0.000000000E+00 -9.555106483E+01  9.555106483E+01  0.000000000E+00  0.00000E+00  9.000E+00
      25     1     1     2     0     0  1.166826801E+02  7.615001100E+01  4.446277161E+01  1.923944128E+02  1.250000000E+02  0.00000E+00  9.000E+00
      25     1     1     2     0     0 -1.133394754E+02 -7.404991011E+01  7.133743294E+02  7.367884091E+02  1.250000000E+02  0.00000E+00  9.000E+00
      21     1     1     2   511   501 -3.343204688E+00 -2.100100890E+00 -9.483713671E+00  1.027269518E+01  1.192092896E-07  0.00000E+00  9.000E+00
#rwgt            1           1   2.7596846524260601E-002           8      180016           0
</event>
<event>
      5   9999  3.19816E-02  3.63950E+02 -1.00000E+00  1.02935E-01
      21    -1     0     0   502   501  0.000000000E+00  0.000000000E+00  8.165646274E+02  8.165646274E+02  0.000000000E+00  0.00000E+00  9.000E+00
      21    -1     0     0   501   512  0.000000000E+00  0.000000000E+00 -1.422445002E+03  1.422445002E+03  0.000000000E+00  0.00000E+00  9.000E+00
      25     1     1     2     0     0 -3.802350198E+02 -5.812403920E+02 -3.020367281E+02  7.676394002E+02  1.250000000E+02  0.00000E+00  9.000E+00
      25     1     1     2     0     0  3.540918852E+02  9.442498695E+02 -3.125399451E+01  1.016656624E+03  1.250000000E+02  0.00000E+00  9.000E+00
      21     1     1     2   502   512  2.614313458E+01 -3.630094774E+02 -2.725896519E+02  4.547136049E+02  9.344061824E-06  0.00000E+00  9.000E+00
#rwgt            2          11   4.0545032943107790E-003           8      180577           0
</event>
<event>
      5   9999  3.19816E-02  2.25566E+02 -1.00000E+00  1.09779E-01
      21    -1     0     0   502   501  0.000000000E+00  0.000000000E+00  4.633124313E+02  4.633124313E+02  0.000000000E+00  0.00000E+00  9.000E+00
      21    -1     0     0   511   502  0.000000000E+00  0.000000000E+00 -4.704104534E+02  4.704104534E+02  0.000000000E+00  0.00000E+00  9.000E+00
      25     1     1     2     0     0 -9.825141590E+01 -6.089943852E+01 -1.241987836E+02  2.107425448E+02  1.250000000E+02  0.00000E+00  9.000E+00
      25     1     1     2     0     0 -9.962763944E+01  1.691772528E+02  3.359481430E+02  4.086964206E+02  1.250000000E+02  0.00000E+00  9.000E+00
      21     1     1     2   511   501  1.978790553E+02 -1.082778142E+02 -2.188473815E+02  3.142839194E+02  4.672030912E-06  0.00000E+00  9.000E+00
#rwgt            1           1   2.9575262393433603E-002           8      180597           0
</event>
<event>
      5   9999  3.19816E-02  1.26989E+02 -1.00000E+00  1.19334E-01
      21    -1     0     0   502   501  0.000000000E+00  0.000000000E+00  3.751973961E+02  3.751973961E+02  0.000000000E+00  0.00000E+00  9.000E+00
      21    -1     0     0   512   502  0.000000000E+00  0.000000000E+00 -4.606833848E+02  4.606833848E+02  0.000000000E+00  0.00000E+00  9.000E+00
      25     1     1     2     0     0 -2.127607942E+02  4.880315880E+01 -1.661551397E+01  2.520912120E+02  1.250000000E+02  0.00000E+00  9.000E+00
      25     1     1     2     0     0  2.046269938E+02 -1.755314138E+02  1.483760094E+02  3.321504539E+02  1.250000000E+02  0.00000E+00  9.000E+00
      21     1     1     2   512   501  8.133800348E+00  1.267282550E+02 -2.172464841E+02  2.516391150E+02  2.697398305E-06  0.00000E+00  9.000E+00
#rwgt            1           1   2.5537705614378532E-002           8      180661           0
</event>
<event>
      5   9999  3.19816E-02  1.17048E+02 -1.00000E+00  1.20829E-01
      21    -1     0     0   502   511  0.000000000E+00  0.000000000E+00  7.645839246E+02  7.645839246E+02  0.000000000E+00  0.00000E+00  9.000E+00
      21    -1     0     0   501   502  0.000000000E+00  0.000000000E+00 -4.649359311E+02  4.649359311E+02  0.000000000E+00  0.00000E+00  9.000E+00
      25     1     1     2     0     0 -1.082318572E+02 -9.941429755E+01 -1.896288705E+02  2.705206942E+02  1.250000000E+02  0.00000E+00  9.000E+00
      25     1     1     2     0     0  1.714448490E+02  1.979247151E+02 -1.377103380E+02  3.211801150E+02  1.250000000E+02  0.00000E+00  9.000E+00
      21     1     1     2   501   511 -6.321299181E+01 -9.851041753E+01  6.269872020E+02  6.378190465E+02  1.078959322E-05  0.00000E+00  9.000E+00
#rwgt            1           1   2.5808114897400019E-002           8      180726           0
</event>
<event>
      5   9999  3.19816E-02  1.87499E+02 -1.00000E+00  1.12678E-01
      21    -1     0     0   502   501  0.000000000E+00  0.000000000E+00  2.726363257E+02  2.726363257E+02  0.000000000E+00  0.00000E+00  9.000E+00
      21    -1     0     0   512   502  0.000000000E+00  0.000000000E+00 -1.142186400E+03  1.142186400E+03  0.000000000E+00  0.00000E+00  9.000E+00
      25     1     1     2     0     0  3.781174960E+02  9.109501576E+01 -9.926830189E+00  4.086498313E+02  1.250000000E+02  0.00000E+00  9.000E+00
      25     1     1     2     0     0 -2.226951929E+02 -1.959743298E+02 -4.276714581E+02  5.352821339E+02  1.250000000E+02  0.00000E+00  9.000E+00
      21     1     1     2   512   501 -1.554223031E+02  1.048793140E+02 -4.319517860E+02  4.708907604E+02  5.394796609E-06  0.00000E+00  9.000E+00
#rwgt            2          11   2.7316433072619006E-003           8      180791           0
</event>
<event>
      5   9999  3.19816E-02  7.40853E+00 -1.00000E+00  2.12130E-01
      21    -1     0     0   511   501  0.000000000E+00  0.000000000E+00  5.700654711E+01  5.700654711E+01  0.000000000E+00  0.00000E+00  9.000E+00
      21    -1     0     0   501   502  0.000000000E+00  0.000000000E+00 -1.173378441E+03  1.173378441E+03  0.000000000E+00  0.00000E+00  9.000E+00
      25     1     1     2     0     0 -1.445749163E+02 -5.993394912E+01 -7.230108275E+02  7.502423885E+02  1.250000000E+02  0.00000E+00  9.000E+00
      25     1     1     2     0     0  1.500416109E+02  5.493379895E+01 -4.124636834E+02  4.596536711E+02  1.250000000E+02  0.00000E+00  9.000E+00
      21     1     1     2   511   502 -5.466694575E+00  5.000150169E+00  1.910261657E+01  2.048892899E+01  4.129530925E-07  0.00000E+00  9.000E+00
#rwgt            1           1   4.2324961672879934E-002           8      180841           0
</event>
<event>
      5   9999  3.19816E-02  9.31043E+01 -1.00000E+00  1.25240E-01
      21    -1     0     0   502   501  0.000000000E+00  0.000000000E+00  5.700758186E+02  5.700758186E+02  0.000000000E+00  0.00000E+00  9.000E+00
      21    -1     0     0   501   512  0.000000000E+00  0.000000000E+00 -3.987635308E+02  3.987635308E+02  0.000000000E+00  0.00000E+00  9.000E+00
      25     1     1     2     0     0  3.223409953E+02 -3.013330320E+02  5.062120283E+01  4.614030989E+02  1.250000000E+02  0.00000E+00  9.000E+00
      25     1     1     2     0     0 -2.292589739E+02  2.992946373E+02  1.177759300E+02  4.142862860E+02  1.250000000E+02  0.00000E+00  9.000E+00
      21     1     1     2   502   512 -9.308202141E+01  2.038394665E+00  2.915155035E+00  9.314996453E+01  2.119110684E-06  0.00000E+00  9.000E+00
#rwgt            1           1   2.9235598730325787E-002           8      181044           0
</event>
<event>
      5   9999  3.19816E-02  4.03924E+01 -1.00000E+00  1.44578E-01
      21    -1     0     0   502   501  0.000000000E+00  0.000000000E+00  2.890727266E+02  2.890727266E+02  0.000000000E+00  0.00000E+00  9.000E+00
      21    -1     0     0   501   511  0.000000000E+00  0.000000000E+00 -1.677167735E+03  1.677167735E+03  0.000000000E+00  0.00000E+00  9.000E+00
      25     1     1     2     0     0  3.494220159E+02 -4.116438237E+02 -9.787498824E+02  1.124776740E+03  1.250000000E+02  0.00000E+00  9.000E+00
      25     1     1     2     0     0 -3.474719139E+02  3.712985190E+02 -1.045440989E+02  5.339979305E+02  1.250000000E+02  0.00000E+00  9.000E+00
      21     1     1     2   502   511 -1.950101992E+00  4.034530472E+01 -3.048010274E+02  3.074657913E+02  0.000000000E+00  0.00000E+00  9.000E+00
#rwgt            1           1   3.2276113175600300E-002           8      181170           0
</event>
<event>
      5   9999  3.19816E-02  4.08475E+01 -1.00000E+00  1.44278E-01
      21    -1     0     0   502   501  0.000000000E+00  0.000000000E+00  7.474665751E+02  7.474665751E+02  0.000000000E+00  0.00000E+00  9.000E+00
      21    -1     0     0   501   512  0.000000000E+00  0.000000000E+00 -5.441291723E+02  5.441291723E+02  0.000000000E+00  0.00000E+00  9.000E+00
      25     1     1     2     0     0  5.308522296E+01 -4.116365825E+02  5.234331136E+01  4.366091378E+02  1.250000000E+02  0.00000E+00  9.000E+00
      25     1     1     2     0     0 -2.223121208E+01  3.848681607E+02  4.195615218E+02  5.833306082E+02  1.250000000E+02  0.00000E+00  9.000E+00
      21     1     1     2   502   512 -3.085401088E+01  2.676842178E+01 -2.685674304E+02  2.716560013E+02  0.000000000E+00  0.00000E+00  9.000E+00
#rwgt            1           1   2.7785908334584622E-002           8      181344           0
</event>
<event>
      5   9999  3.19816E-02  8.21570E+01 -1.00000E+00  1.27793E-01
      21    -1     0     0   502   501  0.000000000E+00  0.000000000E+00  7.091503368E+02  7.091503368E+02  0.000000000E+00  0.00000E+00  9.000E+00
       1    -1     0     0   501     0  0.000000000E+00  0.000000000E+00 -1.464760005E+03  1.464760005E+03  0.000000000E+00  0.00000E+00  9.000E+00
      25     1     1     2     0     0  4.813147923E+02  1.139849461E+02 -4.604987499E+02  6.872703950E+02  1.250000000E+02  0.00000E+00  9.000E+00
      25     1     1     2     0     0 -5.540635995E+02 -1.521606482E+02  4.478539239E+02  7.391464485E+02  1.250000000E+02  0.00000E+00  9.000E+00
       1     1     1     2   502     0  7.274880716E+01  3.817570210E+01 -7.429648426E+02  7.474934987E+02  0.000000000E+00  0.00000E+00  9.000E+00
#rwgt            1           1   3.1938777369252422E-002           8      181479           0
</event>
<event>
      5   9999  3.19816E-02  1.27883E+02 -1.00000E+00  1.19207E-01
      21    -1     0     0   502   511  0.000000000E+00  0.000000000E+00  5.615845364E+02  5.615845364E+02  0.000000000E+00  0.00000E+00  9.000E+00
      21    -1     0     0   501   502  0.000000000E+00  0.000000000E+00 -1.352547527E+02  1.352547527E+02  0.000000000E+00  0.00000E+00  9.000E+00
      25     1     1     2     0     0  4.998684340E+01  1.744617202E+02  1.926726529E+02  2.927171459E+02  1.250000000E+02  0.00000E+00  9.000E+00
      25     1     1     2     0     0 -3.556554171E+01 -4.739457199E+01  6.576771438E-01  1.383350489E+02  1.250000000E+02  0.00000E+00  9.000E+00
      21     1     1     2   501   511 -1.442130169E+01 -1.270671482E+02  2.329994537E+02  2.657870943E+02  2.697398305E-06  0.00000E+00  9.000E+00
#rwgt            1           1   2.1552834358918190E-002           8      181614           0
</event>
<event>
      5   9999  3.19816E-02  5.22286E+01 -1.00000E+00  1.38003E-01
      21    -1     0     0   502   501  0.000000000E+00  0.000000000E+00  1.538268611E+02  1.538268611E+02  0.000000000E+00  0.00000E+00  9.000E+00
      21    -1     0     0   501   512  0.000000000E+00  0.000000000E+00 -9.429060734E+02  9.429060734E+02  0.000000000E+00  0.00000E+00  9.000E+00
      25     1     1     2     0     0  5.600097639E+01 -2.135380563E+02 -3.218769550E+02  4.098345825E+02  1.250000000E+02  0.00000E+00  9.000E+00
      25     1     1     2     0     0 -8.486146592E+01  2.570685418E+02 -9.777935237E+01  3.138016974E+02  1.250000000E+02  0.00000E+00  9.000E+00
      21     1     1     2   502   512  2.886048953E+01 -4.353048547E+01 -3.694229049E+02  3.730966546E+02  0.000000000E+00  0.00000E+00  9.000E+00
#rwgt            1           1   2.7690972187388797E-002           8      181644           0
</event>
<event>
      5   9999  3.19816E-02  1.10497E+02 -1.00000E+00  1.21909E-01
       2    -1     0     0   502     0  0.000000000E+00  0.000000000E+00  3.166875425E+02  3.166875425E+02  0.000000000E+00  0.00000E+00  9.000E+00
      21    -1     0     0   501   502  0.000000000E+00  0.000000000E+00 -5.246402590E+02  5.246402590E+02  0.000000000E+00  0.00000E+00  9.000E+00
      25     1     1     2     0     0  1.276724605E+02 -2.065409785E+02 -9.670525309E+00  2.732726697E+02  1.250000000E+02  0.00000E+00  9.000E+00
      25     1     1     2     0     0 -1.950089314E+02  1.189323151E+02 -3.140938802E+02  4.079869415E+02  1.250000000E+02  0.00000E+00  9.000E+00
       2     1     1     2   501     0  6.733647084E+01  8.760866342E+01  1.158116890E+02  1.600681902E+02  2.336015456E-06  0.00000E+00  9.000E+00
#rwgt            1           1   2.3317990712971602E-002           8      181732           0
</event>
<event>
      5   9999  3.19816E-02  5.31069E+01 -1.00000E+00  1.37598E-01
      21    -1     0     0   502   501  0.000000000E+00  0.000000000E+00  5.590005234E+02  5.590005234E+02  0.000000000E+00  0.00000E+00  9.000E+00
      21    -1     0     0   511   502  0.000000000E+00  0.000000000E+00 -6.799048945E+02  6.799048945E+02  0.000000000E+00  0.00000E+00  9.000E+00
      25     1     1     2     0     0  5.026896112E+02  2.437130546E+02  1.123627322E+02  5.833894769E+02  1.250000000E+02  0.00000E+00  9.000E+00
      25     1     1     2     0     0 -4.538049435E+02 -2.644647673E+02 -1.564396664E+02  5.621200130E+02  1.250000000E+02  0.00000E+00  9.000E+00
      21     1     1     2   511   501 -4.888466771E+01  2.075171261E+01 -7.682743686E+01  9.339592801E+01  1.348699152E-06  0.00000E+00  9.000E+00
#rwgt            2          11   3.6053057779417514E-003           8      181783           0
</event>
<event>
      5   9999  3.19816E-02  9.52573E+00 -1.00000E+00  1.98229E-01
      21    -1     0     0   502   501  0.000000000E+00  0.000000000E+00  2.808873629E+02  2.808873629E+02  0.000000000E+00  0.00000E+00  9.000E+00
      21    -1     0     0   512   502  0.000000000E+00  0.000000000E+00 -2.178694325E+02  2.178694325E+02  0.000000000E+00  0.00000E+00  9.000E+00
      25     1     1     2     0     0 -2.169607309E+01 -8.820081658E+01 -1.522740226E+02  2.169388890E+02  1.250000000E+02  0.00000E+00  9.000E+00
      25     1     1     2     0     0  2.605262535E+01  9.667194197E+01  2.192405555E+02  2.715062151E+02  1.250000000E+02  0.00000E+00  9.000E+00
      21     1     1     2   512   501 -4.356552259E+00 -8.471125394E+00 -3.948602668E+00  1.031169123E+01  1.264405455E-07  0.00000E+00  9.000E+00
#rwgt            1           1   2.8520680215003390E-002           8      181803           0
</event>
<event>
      5   9999  3.19816E-02  4.71377E+01 -1.00000E+00  1.40552E-01
      21    -1     0     0   502   511  0.000000000E+00  0.000000000E+00  9.789631384E+02  9.789631384E+02  0.000000000E+00  0.00000E+00  9.000E+00
      21    -1     0     0   501   502  0.000000000E+00  0.000000000E+00 -1.065524205E+02  1.065524205E+02  0.000000000E+00  0.00000E+00  9.000E+00
      25     1     1     2     0     0  4.481357094E+01 -3.309382719E+01  8.142458619E+02  8.256662650E+02  1.250000000E+02  0.00000E+00  9.000E+00
      25     1     1     2     0     0 -7.429223209E+01  6.987657764E+01 -2.597340584E+01  1.634065166E+02  1.250000000E+02  0.00000E+00  9.000E+00
      21     1     1     2   501   511  2.947866115E+01 -3.678275045E+01  8.413826180E+01  9.644277730E+01  9.536743164E-07  0.00000E+00  9.000E+00
#rwgt            1           1   2.8917962869057914E-002           8      182060           0
</event>
<event>
      5   9999  3.19816E-02  1.24539E+02 -1.00000E+00  1.19688E-01
      21    -1     0     0   512   501  0.000000000E+00  0.000000000E+00  2.456635688E+02  2.456635688E+02  0.000000000E+00  0.00000E+00  9.000E+00
      21    -1     0     0   501   502  0.000000000E+00  0.000000000E+00 -1.192511260E+03  1.192511260E+03  0.000000000E+00  0.00000E+00  9.000E+00
      25     1     1     2     0     0  2.273451577E+02  2.118702701E+02 -7.096948296E+02  7.847716759E+02  1.250000000E+02  0.00000E+00  9.000E+00
      25     1     1     2     0     0 -2.119795527E+02 -3.354577928E+02 -3.009432787E+02  5.134774761E+02  1.250000000E+02  0.00000E+00  9.000E+00
      21     1     1     2   512   502 -1.536560497E+01  1.235875227E+02  6.379041742E+01  1.399256765E+02  1.907348633E-06  0.00000E+00  9.000E+00
#rwgt            1           1   2.3687581525612480E-002           8      182183           0
</event>
<event>
      5   9999  3.19816E-02  6.58754E+01 -1.00000E+00  1.32571E-01
       2    -1     0     0   502     0  0.000000000E+00  0.000000000E+00  2.306910805E+03  2.306910805E+03  0.000000000E+00  0.00000E+00  9.000E+00
      21    -1     0     0   501   502  0.000000000E+00  0.000000000E+00 -5.816406344E+02  5.816406344E+02  0.000000000E+00  0.00000E+00  9.000E+00
      25     1     1     2     0     0 -1.906801851E+02 -2.750720078E+02 -3.451291808E+02  4.967521453E+02  1.250000000E+02  0.00000E+00  9.000E+00
      25     1     1     2     0     0  2.019830896E+02  2.101735272E+02 -3.170683733E+00  3.171831226E+02  1.250000000E+02  0.00000E+00  9.000E+00
       2     1     1     2   501     0 -1.130290448E+01  6.489848054E+01  2.073570035E+03  2.074616171E+03  0.000000000E+00  0.00000E+00  9.000E+00
#rwgt            1           1   2.7711936999240031E-002           8      182255           0
</event>
<event>
      5   9999  3.19816E-02  1.06834E+02 -1.00000E+00  1.22550E-01
      21    -1     0     0   502   501  0.000000000E+00  0.000000000E+00  1.402209560E+02  1.402209560E+02  0.000000000E+00  0.00000E+00  9.000E+00
      21    -1     0     0   511   502  0.000000000E+00  0.000000000E+00 -9.336826494E+02  9.336826494E+02  0.000000000E+00  0.00000E+00  9.000E+00
      25     1     1     2     0     0  5.257420589E+01  2.016444878E+02 -5.756437440E+02  6.248321908E+02  1.250000000E+02  0.00000E+00  9.000E+00
      25     1     1     2     0     0  5.323316819E+01 -2.164170165E+02 -6.685468237E+01  2.641299752E+02  1.250000000E+02  0.00000E+00  9.000E+00
      21     1     1     2   511   501 -1.058073741E+02  1.477252871E+01 -1.509632671E+02  1.849414394E+02  0.000000000E+00  0.00000E+00  9.000E+00
#rwgt            1           1   2.9572465445775280E-002           8      182300           0
</event>
<event>
      5   9999  3.19816E-02  1.47293E+01 -1.00000E+00  1.78132E-01
       1    -1     0     0   502     0  0.000000000E+00  0.000000000E+00  2.015950948E+02  2.015950948E+02  0.000000000E+00  0.00000E+00  9.000E+00
      21    -1     0     0   501   502  0.000000000E+00  0.000000000E+00 -1.424389007E+03  1.424389007E+03  0.000000000E+00  0.00000E+00  9.000E+00
      25     1     1     2     0     0  1.002981056E+02  3.701926577E+00 -1.268246743E+03  1.278338067E+03  1.250000000E+02  0.00000E+00  9.000E+00
      25     1     1     2     0     0 -1.105053201E+02 -1.432107560E+01 -1.042271711E+02  1.972430536E+02  1.250000000E+02  0.00000E+00  9.000E+00
       1     1     1     2   501     0  1.020721454E+01  1.061914903E+01  1.496800019E+02  1.504029805E+02  3.303624740E-06  0.00000E+00  9.000E+00
#rwgt            1           1   2.5190785225585436E-002           8      182356           0
</event>
<event>
      5   9999  3.19816E-02  4.98866E+01 -1.00000E+00  1.39132E-01
      21    -1     0     0   502   501  0.000000000E+00  0.000000000E+00  1.026442702E+03  1.026442702E+03  0.000000000E+00  0.00000E+00  9.000E+00
      21    -1     0     0   511   502  0.000000000E+00  0.000000000E+00 -1.699291343E+02  1.699291343E+02  0.000000000E+00  0.00000E+00  9.000E+00
      25     1     1     2     0     0  2.052664108E+02 -1.996011854E+02  9.809654557E+01  3.274490264E+02  1.250000000E+02  0.00000E+00  9.000E+00
      25     1     1     2     0     0 -1.612342411E+02  2.230498256E+02  7.611349775E+02  8.189622453E+02  1.250000000E+02  0.00000E+00  9.000E+00
      21     1     1     2   511   501 -4.403216978E+01 -2.344864024E+01 -2.717955634E+00  4.996056433E+01  6.861009856E-07  0.00000E+00  9.000E+00
#rwgt            1           1   2.7170576627859315E-002           8      182479           0
</event>
<event>
      5   9999  3.19816E-02  3.93892E+01 -1.00000E+00  1.45256E-01
      21    -1     0     0   512   501  0.000000000E+00  0.000000000E+00  1.101617371E+03  1.101617371E+03  0.000000000E+00  0.00000E+00  9.000E+00
      21    -1     0     0   501   502  0.000000000E+00  0.000000000E+00 -9.278513232E+02  9.278513232E+02  0.000000000E+00  0.00000E+00  9.000E+00
      25     1     1     2     0     0  3.289408225E+02 -4.891045664E+02 -6.823943999E+02  9.103364535E+02  1.250000000E+02  0.00000E+00  9.000E+00
      25     1     1     2     0     0 -3.668425566E+02  4.783821326E+02  5.990297857E+02  8.590021015E+02  1.250000000E+02  0.00000E+00  9.000E+00
      21     1     1     2   512   502  3.790173408E+01  1.072243377E+01  2.571306623E+02  2.601301396E+02  3.814697266E-06  0.00000E+00  9.000E+00
#rwgt            1           1   2.0332238508085534E-002           8      182601           0
</event>
<event>
      5   9999  3.35087E-02  7.53583E+01 -1.00000E+00  1.29619E-01
      21    -1     0     0   502   501  0.000000000E+00  0.000000000E+00  5.799085462E+02  5.799085462E+02  0.000000000E+00  0.00000E+00  9.000E+00
       2    -1     0     0   501     0  0.000000000E+00  0.000000000E+00 -2.331987717E+03  2.331987717E+03  0.000000000E+00  0.00000E+00  9.000E+00
      25     1     1     2     0     0 -2.314449540E+02  7.005774709E+01 -4.338373121E+02  5.121666409E+02  1.250000000E+02  0.00000E+00  9.000E+00
      25     1     1     2     0     0  2.860049071E+02 -1.807612611E+01  4.947029740E+02  5.852192630E+02  1.250000000E+02  0.00000E+00  9.000E+00
       2     1     1     2   502     0 -5.455995308E+01 -5.198162098E+01 -1.812944832E+03  1.814510359E+03  3.051757812E-05  0.00000E+00  9.000E+00
#rwgt            1           1   3.4927130402452503E-002           8      182757           0
</event>
<event>
      5   9999  3.19816E-02  3.67869E+02 -1.00000E+00  1.02792E-01
      21    -1     0     0   502   511  0.000000000E+00  0.000000000E+00  5.888302176E+02  5.888302176E+02  0.000000000E+00  0.00000E+00  9.000E+00
      21    -1     0     0   501   502  0.000000000E+00  0.000000000E+00 -1.762353429E+03  1.762353429E+03  0.000000000E+00  0.00000E+00  9.000E+00
      25     1     1     2     0     0 -4.022111182E+02 -5.105311344E+02 -6.836405806E+02  9.515278589E+02  1.250000000E+02  0.00000E+00  9.000E+00
      25     1     1     2     0     0  2.145694923E+02  8.269459815E+02 -5.545124879E+02  1.026152436E+03  1.250000000E+02  0.00000E+00  9.000E+00
      21     1     1     2   501   511  1.876416259E+02 -3.164148471E+02  6.462985682E+01  3.735033516E+02  8.635888231E-06  0.00000E+00  9.000E+00
#rwgt            2          11   4.2422351102738721E-003           8      182893           0
</event>
<event>
      5   9999  3.19816E-02  2.49902E+01 -1.00000E+00  1.58764E-01
      21    -1     0     0   502   501  0.000000000E+00  0.000000000E+00  1.085107109E+02  1.085107109E+02  0.000000000E+00  0.00000E+00  9.000E+00
      21    -1     0     0   512   502  0.000000000E+00  0.000000000E+00 -2.053243819E+03  2.053243819E+03  0.000000000E+00  0.00000E+00  9.000E+00
      25     1     1     2     0     0  2.175918645E+02  3.427366782E+02 -5.430846462E+02  6.894784862E+02  1.250000000E+02  0.00000E+00  9.000E+00
      25     1     1     2     0     0 -1.987240174E+02 -3.263503092E+02 -1.128194971E+03  1.197683035E+03  1.250000000E+02  0.00000E+00  9.000E+00
      21     1     1     2   512   501 -1.886784702E+01 -1.638636896E+01 -2.734534914E+02  2.745930092E+02  3.814697266E-06  0.00000E+00  9.000E+00
#rwgt            1           1   2.8411050121148754E-002           8      182913           0
</event>
<event>
      5   9999  3.19816E-02  2.50097E+01 -1.00000E+00  1.58738E-01
       3    -1     0     0   502     0  0.000000000E+00  0.000000000E+00  3.908069735E+02  3.908069735E+02  0.000000000E+00  0.00000E+00  9.000E+00
      21    -1     0     0   501   502  0.000000000E+00  0.000000000E+00 -7.115265184E+02  7.115265184E+02  0.000000000E+00  0.00000E+00  9.000E+00
      25     1     1     2     0     0 -1.759924681E+02  3.674341140E+02  4.752698719E+00  4.261792640E+02  1.250000000E+02  0.00000E+00  9.000E+00
      25     1     1     2     0     0  1.560669211E+02 -3.825490112E+02 -4.055384855E+02  5.922728198E+02  1.250000000E+02  0.00000E+00  9.000E+00
       3     1     1     2   501     0  1.992554695E+01  1.511489722E+01  8.006624185E+01  8.388140809E+01  0.000000000E+00  0.00000E+00  9.000E+00
#rwgt            1           1   2.9431148736263863E-002           8      183056           0
</event>
<event>
      5   9999  3.19816E-02  5.08624E+01 -1.00000E+00  1.38653E-01
      21    -1     0     0   502   501  0.000000000E+00  0.000000000E+00  6.556304794E+02  6.556304794E+02  0.000000000E+00  0.00000E+00  9.000E+00
      21    -1     0     0   511   502  0.000000000E+00  0.000000000E+00 -4.124001250E+02  4.124001250E+02  0.000000000E+00  0.00000E+00  9.000E+00
      25     1     1     2     0     0  1.284554702E+02  3.875684959E+02  3.184026864E+02  5.326494321E+02  1.250000000E+02  0.00000E+00  9.000E+00
      25     1     1     2     0     0 -1.339397538E+02 -4.381343232E+02 -4.694495868E+01  4.772110351E+02  1.250000000E+02  0.00000E+00  9.000E+00
      21     1     1     2   511   501  5.484283667E+00  5.056582730E+01 -2.822737323E+01  5.817013716E+01  4.768371582E-07  0.00000E+00  9.000E+00
#rwgt            1           1   2.9595945559823877E-002           8      183209           0
</event>
<event>
      5   9999  3.19816E-02  1.38529E+02 -1.00000E+00  1.17780E-01
      21    -1     0     0   502   501  0.000000000E+00  0.000000000E+00  5.252915480E+02  5.252915480E+02  0.000000000E+00  0.00000E+00  9.000E+00
      21    -1     0     0   501   512  0.000000000E+00  0.000000000E+00 -2.421373115E+02  2.421373115E+02  0.000000000E+00  0.00000E+00  9.000E+00
      25     1     1     2     0     0  1.339387804E+02  1.064602181E+02  3.509932881E+02  4.099934917E+02  1.250000000E+02  0.00000E+00  9.000E+00
      25     1     1     2     0     0 -1.105800876E+01 -1.704178036E+02 -2.936421505E+01  2.136627353E+02  1.250000000E+02  0.00000E+00  9.000E+00
      21     1     1     2   502   512 -1.228807717E+02  6.395758549E+01 -3.847483665E+01  1.437726325E+02  2.132480600E-06  0.00000E+00  9.000E+00
#rwgt            1           1   2.7724156063131951E-002           8      183308           0
</event>
<event>
      5   9999  3.19816E-02  3.04719E+01 -1.00000E+00  1.52571E-01
      21    -1     0     0   502   501  0.000000000E+00  0.000000000E+00  1.451891341E+03  1.451891341E+03  0.000000000E+00  0.00000E+00  9.000E+00
      21    -1     0     0   511   502  0.000000000E+00  0.000000000E+00 -8.528226557E+01  8.528226557E+01  0.000000000E+00  0.00000E+00  9.000E+00
      25     1     1     2     0     0 -9.281142330E+01 -2.636900523E+02  4.505022919E+02  5.447235252E+02  1.250000000E+02  0.00000E+00  9.000E+00
      25     1     1     2     0     0  9.428792043E+01  2.941261827E+02  8.959785901E+02  9.559304667E+02  1.250000000E+02  0.00000E+00  9.000E+00
      21     1     1     2   511   501 -1.476497136E+00 -3.043613040E+01  2.012819341E+01  3.651961456E+01  2.384185791E-07  0.00000E+00  9.000E+00
#rwgt            1           1   3.5683030098628353E-002           8      183359           0
</event>
<event>
      5   9999  3.19816E-02  1.61606E+02 -1.00000E+00  1.15125E-01
      21    -1     0     0   502   501  0.000000000E+00  0.000000000E+00  1.403608255E+03  1.403608255E+03  0.000000000E+00  0.00000E+00  9.000E+00
      21    -1     0     0   501   512  0.000000000E+00  0.000000000E+00 -9.820469467E+02  9.820469467E+02  0.000000000E+00  0.00000E+00  9.000E+00
      25     1     1     2     0     0  3.199454938E+02 -9.803412010E+02 -2.637497701E+02  1.071738275E+03  1.250000000E+02  0.00000E+00  9.000E+00
      25     1     1     2     0     0 -3.697895078E+02  8.266136361E+02  7.003881651E+02  1.151608860E+03  1.250000000E+02  0.00000E+00  9.000E+00
      21     1     1     2   502   512  4.984401402E+01  1.537275648E+02 -1.507708701E+01  1.623080666E+02  3.421950363E-06  0.00000E+00  9.000E+00
#rwgt            1           1   2.1985779576797423E-002           8      183463           0
</event>
<event>
      5   9999  3.19816E-02  1.66908E+01 -1.00000E+00  1.73122E-01
      21    -1     0     0   502   501  0.000000000E+00  0.000000000E+00  3.701646708E+02  3.701646708E+02  0.000000000E+00  0.00000E+00  9.000E+00
      21    -1     0     0   511   502  0.000000000E+00  0.000000000E+00 -1.243942941E+02  1.243942941E+02  0.000000000E+00  0.00000E+00  9.000E+00
      25     1     1     2     0     0 -8.988210435E+01  6.393975965E+01 -1.692416184E+01  1.675664429E+02  1.250000000E+02  0.00000E+00  9.000E+00
      25     1     1     2     0     0  1.033404208E+02 -5.406772162E+01  2.582665159E+02  3.097243199E+02  1.250000000E+02  0.00000E+00  9.000E+00
      21     1     1     2   511   501 -1.345831649E+01 -9.872038034E+00  4.428022634E+00  1.726820205E+01  1.576990671E-07  0.00000E+00  9.000E+00
#rwgt            1           1   2.9048531172646580E-002           8      183558           0
</event>
<event>
      5   9999  3.19816E-02  2.56077E+01 -1.00000E+00  1.57973E-01
      21    -1     0     0   502   501  0.000000000E+00  0.000000000E+00  3.823516347E+02  3.823516347E+02  0.000000000E+00  0.00000E+00  9.000E+00
      21    -1     0     0   512   502  0.000000000E+00  0.000000000E+00 -4.515378475E+02  4.515378475E+02  0.000000000E+00  0.00000E+00  9.000E+00
      25     1     1     2     0     0 -1.967246521E+02  2.852164409E+02 -1.738698356E+02  4.073140393E+02  1.250000000E+02  0.00000E+00  9.000E+00
      25     1     1     2     0     0  1.877262344E+02 -3.091911196E+02  1.139993636E+02  3.993258599E+02  1.250000000E+02  0.00000E+00  9.000E+00
      21     1     1     2   512   501  8.998417720E+00  2.397467872E+01 -9.315740821E+00  2.724958290E+01  6.194296387E-07  0.00000E+00  9.000E+00
#rwgt            1           1   2.7247976955134135E-002           8      183692           0
</event>
<event>
      5   9999  3.19816E-02  1.12704E+02 -1.00000E+00  1.21536E-01
      21    -1     0     0   502   511  0.000000000E+00  0.000000000E+00  5.229026931E+02  5.229026931E+02  0.000000000E+00  0.00000E+00  9.000E+00
      21    -1     0     0   501   502  0.000000000E+00  0.000000000E+00 -1.534623102E+02  1.534623102E+02  0.000000000E+00  0.00000E+00  9.000E+00
      25     1     1     2     0     0  1.157295952E+02  2.299903888E+01  3.200351228E+02  3.632764441E+02  1.250000000E+02  0.00000E+00  9.000E+00
      25     1     1     2     0     0 -9.257651635E+00 -5.995746071E+01 -6.420252554E+01  1.530606595E+02  1.250000000E+02  0.00000E+00  9.000E+00
      21     1     1     2   501   511 -1.064719436E+02  3.695842183E+01  1.136077856E+02  1.600278996E+02  1.907348633E-06  0.00000E+00  9.000E+00
#rwgt            1           1   2.6491511228928788E-002           8      183884           0
</event>
<event>
      5   9999  3.19816E-02  5.35008E+01 -1.00000E+00  1.37419E-01
      21    -1     0     0   512   501  0.000000000E+00  0.000000000E+00  6.048186054E+01  6.048186054E+01  0.000000000E+00  0.00000E+00  9.000E+00
      21    -1     0     0   501   502  0.000000000E+00  0.000000000E+00 -1.414200370E+03  1.414200370E+03  0.000000000E+00  0.00000E+00  9.000E+00
      25     1     1     2     0     0 -1.724409592E+02 -1.444615685E+02 -7.605043183E+02  8.028678891E+02  1.250000000E+02  0.00000E+00  9.000E+00
      25     1     1     2     0     0  1.210481400E+02  1.593316333E+02 -5.628474469E+02  6.102962150E+02  1.250000000E+02  0.00000E+00  9.000E+00
      21     1     1     2   512   502  5.139281918E+01 -1.487006472E+01 -3.036674373E+01  6.151812589E+01  8.920806376E-07  0.00000E+00  9.000E+00
#rwgt            1           1   3.9068262264545683E-002           8      183948           0
</event>
<event>
      5   9999  3.19816E-02  9.28573E+01 -1.00000E+00  1.25293E-01
      21    -1     0     0   511   501  0.000000000E+00  0.000000000E+00  1.470619975E+03  1.470619975E+03  0.000000000E+00  0.00000E+00  9.000E+00
      21    -1     0     0   501   502  0.000000000E+00  0.000000000E+00 -1.013942792E+02  1.013942792E+02  0.000000000E+00  0.00000E+00  9.000E+00
      25     1     1     2     0     0  1.823961409E+02 -2.090047719E+02  2.942945802E+02  4.233032564E+02  1.250000000E+02  0.00000E+00  9.000E+00
      25     1     1     2     0     0 -2.435185487E+02  1.391010486E+02  7.406298819E+02  8.017530837E+02  1.250000000E+02  0.00000E+00  9.000E+00
      21     1     1     2   511   502  6.112240776E+01  6.990372336E+01  3.343012333E+02  3.469579137E+02  3.814697266E-06  0.00000E+00  9.000E+00
#rwgt            2          11   2.2866428908021237E-003           8      184367           0
</event>
<event>
      5   9999  3.19816E-02  2.96751E+02 -1.00000E+00  1.05746E-01
      21    -1     0     0   502   512  0.000000000E+00  0.000000000E+00  1.806021628E+02  1.806021628E+02  0.000000000E+00  0.00000E+00  9.000E+00
      21    -1     0     0   501   502  0.000000000E+00  0.000000000E+00 -1.485451913E+03  1.485451913E+03  0.000000000E+00  0.00000E+00  9.000E+00
      25     1     1     2     0     0  1.871263493E+02  6.967549862E+01 -2.996998234E+02  3.812032658E+02  1.250000000E+02  0.00000E+00  9.000E+00
      25     1     1     2     0     0  1.074480579E+02 -3.379875171E+01 -9.717681189E+02  9.862280252E+02  1.250000000E+02  0.00000E+00  9.000E+00
      21     1     1     2   501   512 -2.945744072E+02 -3.587674691E+01 -3.338180756E+01  2.986227845E+02  3.814697266E-06  0.00000E+00  9.000E+00
#rwgt            1           1   3.3189325237266011E-002           8      184387           0
</event>
<event>
      5   9999  3.19816E-02  2.29444E+02 -1.00000E+00  1.09519E-01
       2    -1     0     0   502     0  0.000000000E+00  0.000000000E+00  5.308399515E+02  5.308399515E+02  0.000000000E+00  0.00000E+00  9.000E+00
      21    -1     0     0   501   502  0.000000000E+00  0.000000000E+00 -4.346291992E+02  4.346291992E+02  0.000000000E+00  0.00000E+00  9.000E+00
      25     1     1     2     0     0  1.028702178E+00  1.352759493E+02  2.853177970E+02  3.396054858E+02  1.250000000E+02  0.00000E+00  9.000E+00
      25     1     1     2     0     0  2.416466916E+01  9.278026268E+01 -3.235993273E+02  3.599078118E+02  1.250000000E+02  0.00000E+00  9.000E+00
       2     1     1     2   501     0 -2.519337133E+01 -2.280562119E+02  1.344922825E+02  2.659558531E+02  0.000000000E+00  0.00000E+00  9.000E+00
#rwgt            1           1   3.2887298745514645E-002           8      184430           0
</event>
<event>
      5   9999  3.19816E-02  1.78858E+02 -1.00000E+00  1.13443E-01
      21    -1     0     0   511   501  0.000000000E+00  0.000000000E+00  3.338132049E+02  3.338132049E+02  0.000000000E+00  0.00000E+00  9.000E+00
      21    -1     0     0   501   502  0.000000000E+00  0.000000000E+00 -1.342518088E+03  1.342518088E+03  0.000000000E+00  0.00000E+00  9.000E+00
      25     1     1     2     0     0  6.221814017E+01 -2.311919683E+02 -3.761822480E+01  2.726920498E+02  1.250000000E+02  0.00000E+00  9.000E+00
      25     1     1     2     0     0 -9.337436191E+01  4.073157511E+02 -1.099896525E+03  1.183225363E+03  1.250000000E+02  0.00000E+00  9.000E+00
      21     1     1     2   511   502  3.115622174E+01 -1.761237827E+02  1.288098668E+02  2.204138806E+02  3.303624740E-06  0.00000E+00  9.000E+00
#rwgt            1           1   2.3675800659328457E-002           8      184479           0
</event>
<event>
      5   9999  3.19816E-02  5.63502E+01 -1.00000E+00  1.36176E-01
      21    -1     0     0   502   501  0.000000000E+00  0.000000000E+00  1.690632431E+03  1.690632431E+03  0.000000000E+00  0.00000E+00  9.000E+00
      21    -1     0     0   501   512  0.000000000E+00  0.000000000E+00 -4.484960390E+02  4.484960390E+02  0.000000000E+00  0.00000E+00  9.000E+00
      25     1     1     2     0     0 -5.901907457E+02  4.109381722E+02  7.980336361E+02  1.081516520E+03  1.250000000E+02  0.00000E+00  9.000E+00
      25     1     1     2     0     0  6.344315451E+02 -4.458394208E+02  5.352373700E+02  9.504631591E+02  1.250000000E+02  0.00000E+00  9.000E+00
      21     1     1     2   502   512 -4.424079939E+01  3.490124867E+01 -9.113461435E+01  1.071487910E+02  2.336015456E-06  0.00000E+00  9.000E+00
#rwgt            1           1   2.7162659433315861E-002           8      184550           0
</event>
<event>
      5   9999  3.19816E-02  6.58013E+01 -1.00000E+00  1.32596E-01
      21    -1     0     0   502   501  0.000000000E+00  0.000000000E+00  7.557254465E+02  7.557254465E+02  0.000000000E+00  0.00000E+00  9.000E+00
      21    -1     0     0   501   511  0.000000000E+00  0.000000000E+00 -1.065968196E+03  1.065968196E+03  0.000000000E+00  0.00000E+00  9.000E+00
      25     1     1     2     0     0  8.424750550E+02  1.921637600E+02 -1.706390206E+02  8.896256540E+02  1.250000000E+02  0.00000E+00  9.000E+00
      25     1     1     2     0     0 -7.817435165E+02 -1.668359649E+02 -3.666214211E+01  8.098927568E+02  1.250000000E+02  0.00000E+00  9.000E+00
      21     1     1     2   502   511 -6.073153842E+01 -2.532779507E+01 -1.029415868E+02  1.221752318E+02  1.348699152E-06  0.00000E+00  9.000E+00
#rwgt            1           1   3.5208466799216506E-002           8      184756           0
</event>
<event>
      5   9999  3.19816E-02  6.61043E+00 -1.00000E+00  2.19129E-01
      21    -1     0     0   502   501  0.000000000E+00  0.000000000E+00  1.418622010E+03  1.418622010E+03  0.000000000E+00  0.00000E+00  9.000E+00
      21    -1     0     0   512   502  0.000000000E+00  0.000000000E+00 -1.330890401E+02  1.330890401E+02  0.000000000E+00  0.00000E+00  9.000E+00
      25     1     1     2     0     0  1.314362768E+02  1.316559710E+02  1.131248805E+03  1.153237897E+03  1.250000000E+02  0.00000E+00  9.000E+00
      25     1     1     2     0     0 -1.354826937E+02 -1.368832319E+02  2.285204306E+02  3.239431534E+02  1.250000000E+02  0.00000E+00  9.000E+00
      21     1     1     2   512   501  4.046416912E+00  5.227260953E+00 -7.423626532E+01  7.452999957E+01  3.162979880E-06  0.00000E+00  9.000E+00
#rwgt            1           1   2.9738547768633598E-002           8      184869           0
</event>
<event>
      5   9999  3.19816E-02  1.19105E+01 -1.00000E+00  1.87370E-01
      21    -1     0     0   511   501  0.000000000E+00  0.000000000E+00  2.106945080E+03  2.106945080E+03  0.000000000E+00  0.00000E+00  9.000E+00
      21    -1     0     0   501   502  0.000000000E+00  0.000000000E+00 -1.158735410E+03  1.158735410E+03  0.000000000E+00  0.00000E+00  9.000E+00
      25     1     1     2     0     0  4.161235538E+02 -4.605565152E+02 -5.685258373E+02  8.509510817E+02  1.250000000E+02  0.00000E+00  9.000E+00
      25     1     1     2     0     0 -4.048419495E+02  4.643756905E+02 -2.289391336E+02  6.690141350E+02  1.250000000E+02  0.00000E+00  9.000E+00
      21     1     1     2   511   502 -1.128160430E+01 -3.819175249E+00  1.745674641E+03  1.745715273E+03  0.000000000E+00  0.00000E+00  9.000E+00
#rwgt            1           1   2.9914314116051166E-002           8      185147           0
</event>
<event>
      5   9999  3.19816E-02  2.19117E+01 -1.00000E+00  1.63163E-01
      21    -1     0     0   502   512  0.000000000E+00  0.000000000E+00  1.696402228E+02  1.696402228E+02  0.000000000E+00  0.00000E+00  9.000E+00
      21    -1     0     0   501   502  0.000000000E+00  0.000000000E+00 -4.019488415E+02  4.019488415E+02  0.000000000E+00  0.00000E+00  9.000E+00
      25     1     1     2     0     0 -5.603336138E+01 -8.790744966E+01 -1.396581168E+02  2.144687550E+02  1.250000000E+02  0.00000E+00  9.000E+00
      25     1     1     2     0     0  4.323805250E+01  1.056951521E+02 -1.916494597E+02  2.557254578E+02  1.250000000E+02  0.00000E+00  9.000E+00
      21     1     1     2   501   512  1.279530887E+01 -1.778770241E+01  9.899895777E+01  1.013948516E+02  1.348699152E-06  0.00000E+00  9.000E+00
#rwgt            1           1   2.6230242831890422E-002           8      185416           0
</event>
<event>
      5   9999  3.19816E-02  3.90488E+01 -1.00000E+00  1.45491E-01
       2    -1     0     0   502     0  0.000000000E+00  0.000000000E+00  3.516447911E+02  3.516447911E+02  0.000000000E+00  0.00000E+00  9.000E+00
      21    -1     0     0   501   502  0.000000000E+00  0.000000000E+00 -2.336946940E+02  2.336946940E+02  0.000000000E+00  0.00000E+00  9.000E+00
      25     1     1     2     0     0  5.585289784E+01  7.533890353E+01 -1.262575362E+02  2.009016227E+02  1.250000000E+02  0.00000E+00  9.000E+00
      25     1     1     2     0     0 -4.067443278E+01 -1.113170063E+02  4.040468192E+01  1.769277358E+02  1.250000000E+02  0.00000E+00  9.000E+00
       2     1     1     2   501     0 -1.517846506E+01  3.597810274E+01  2.038029514E+02  2.075101267E+02  0.000000000E+00  0.00000E+00  9.000E+00
#rwgt            1           1   2.7750304578059527E-002           8      185506           0
</event>
<event>
      5   9999  3.19816E-02  9.96194E+01 -1.00000E+00  1.23902E-01
       2    -1     0     0   502     0  0.000000000E+00  0.000000000E+00  8.503114034E+02  8.503114034E+02  0.000000000E+00  0.00000E+00  9.000E+00
      21    -1     0     0   501   502  0.000000000E+00  0.000000000E+00 -6.204853123E+02  6.204853123E+02  0.000000000E+00  0.00000E+00  9.000E+00
      25     1     1     2     0     0  2.556387062E+02  1.331753270E+02 -1.595180271E+02  3.523603508E+02  1.250000000E+02  0.00000E+00  9.000E+00
      25     1     1     2     0     0 -2.920339391E+02 -4.044235605E+01 -2.898815866E+02  4.319441399E+02  1.250000000E+02  0.00000E+00  9.000E+00
       2     1     1     2   501     0  3.639523287E+01 -9.273297095E+01  6.792257048E+02  6.864922250E+02  0.000000000E+00  0.00000E+00  9.000E+00
#rwgt            1           1   2.9998644022733778E-002           8      185631           0
</event>
<event>
      5   9999  3.19816E-02  6.37076E+01 -1.00000E+00  1.33326E-01
       2    -1     0     0   502     0  0.000000000E+00  0.000000000E+00  1.719970912E+03  1.719970912E+03  0.000000000E+00  0.00000E+00  9.000E+00
      21    -1     0     0   501   502  0.000000000E+00  0.000000000E+00 -1.927848577E+02  1.927848577E+02  0.000000000E+00  0.00000E+00  9.000E+00
      25     1     1     2     0     0 -2.398215436E+01  1.174633580E+02  2.174792065E+02  2.780197645E+02  1.250000000E+02  0.00000E+00  9.000E+00
      25     1     1     2     0     0  8.648789597E+01 -1.051469046E+02 -1.090168596E+02  2.145826259E+02  1.250000000E+02  0.00000E+00  9.000E+00
       2     1     1     2   501     0 -6.250574162E+01 -1.231645347E+01  1.418723707E+03  1.420153379E+03  1.525878906E-05  0.00000E+00  9.000E+00
#rwgt            1           1   3.2531465444294458E-002           8      185716           0
</event>
<event>
      5   9999  3.19816E-02  1.42516E+01 -1.00000E+00  1.79504E-01
      21    -1     0     0   511   501  0.000000000E+00  0.000000000E+00  1.595870256E+03  1.595870256E+03  0.000000000E+00  0.00000E+00  9.000E+00
      21    -1     0     0   501   502  0.000000000E+00  0.000000000E+00 -4.672505994E+02  4.672505994E+02  0.000000000E+00  0.00000E+00  9.000E+00
      25     1     1     2     0     0  2.644408496E+01 -6.593493728E+02 -8.359146984E+01  6.767964383E+02  1.250000000E+02  0.00000E+00  9.000E+00
      25     1     1     2     0     0 -2.485663702E+01  6.451864978E+02  1.194659371E+03  1.363715323E+03  1.250000000E+02  0.00000E+00  9.000E+00
      21     1     1     2   511   502 -1.587447941E+00  1.416287506E+01  1.755175544E+01  2.260909418E+01  0.000000000E+00  0.00000E+00  9.000E+00
#rwgt            1           1   2.2448189954776921E-002           8      185791           0
</event>
<event>
      5   9999  3.19816E-02  3.25237E+01 -1.00000E+00  1.50643E-01
      21    -1     0     0   502   501  0.000000000E+00  0.000000000E+00  1.899101265E+02  1.899101265E+02  0.000000000E+00  0.00000E+00  9.000E+00
      21    -1     0     0   512   502  0.000000000E+00  0.000000000E+00 -2.010147032E+02  2.010147032E+02  0.000000000E+00  0.00000E+00  9.000E+00
      25     1     1     2     0     0  7.910270086E+01 -2.833993988E+01 -8.280534912E+01  1.718781991E+02  1.250000000E+02  0.00000E+00  9.000E+00
      25     1     1     2     0     0 -4.686123341E+01  2.406466586E+01  1.057220403E+02  1.719803278E+02  1.250000000E+02  0.00000E+00  9.000E+00
      21     1     1     2   512   501 -3.224146746E+01  4.275274026E+00 -3.402126787E+01  4.706630280E+01  4.768371582E-07  0.00000E+00  9.000E+00
#rwgt            2          11   9.6190008863634589E-004           8      186005           0
</event>
<event>
      5   9999  3.19816E-02  6.33611E+01 -1.00000E+00  1.33451E-01
      21    -1     0     0   502   501  0.000000000E+00  0.000000000E+00  4.028472097E+02  4.028472097E+02  0.000000000E+00  0.00000E+00  9.000E+00
      21    -1     0     0   511   502  0.000000000E+00  0.000000000E+00 -3.843832152E+02  3.843832152E+02  0.000000000E+00  0.00000E+00  9.000E+00
      25     1     1     2     0     0 -2.389775638E+02  1.002923586E+02  2.248990361E+02  3.652032442E+02  1.250000000E+02  0.00000E+00  9.000E+00
      25     1     1     2     0     0  2.411744360E+02 -3.696936492E+01 -8.837636077E+01  2.880403160E+02  1.250000000E+02  0.00000E+00  9.000E+00
      21     1     1     2   511   501 -2.196872188E+00 -6.332299366E+01 -1.180586808E+02  1.339868646E+02  1.348699152E-06  0.00000E+00  9.000E+00
#rwgt            1           1   2.9127356032705838E-002           8      186040           0
</event>
<event>
      5   9999  3.19816E-02  4.62341E+00 -1.00000E+00  2.49479E-01
      21    -1     0     0   512   501  0.000000000E+00  0.000000000E+00  1.229115535E+02  1.229115535E+02  0.000000000E+00  0.00000E+00  9.000E+00
      21    -1     0     0   501   502  0.000000000E+00  0.000000000E+00 -1.272643194E+03  1.272643194E+03  0.000000000E+00  0.00000E+00  9.000E+00
      25     1     1     2     0     0 -3.562443180E+02 -7.047226508E+01 -6.130965905E+02  7.234561379E+02  1.250000000E+02  0.00000E+00  9.000E+00
      25     1     1     2     0     0  3.519129806E+02  7.208950730E+01 -5.437745636E+02  6.635928111E+02  1.250000000E+02  0.00000E+00  9.000E+00
      21     1     1     2   512   502  4.331337420E+00 -1.617242215E+00  7.139513532E+00  8.505798593E+00  0.000000000E+00  0.00000E+00  9.000E+00
#rwgt            1           1   2.8787131402248589E-002           8      186144           0
</event>
<event>
      5   9999  3.19816E-02  4.89627E+01 -1.00000E+00  1.39597E-01
      21    -1     0     0   502   501  0.000000000E+00  0.000000000E+00  5.216639254E+02  5.216639254E+02  0.000000000E+00  0.00000E+00  9.000E+00
      21    -1     0     0   501   511  0.000000000E+00  0.000000000E+00 -2.483690107E+02  2.483690107E+02  0.000000000E+00  0.00000E+00  9.000E+00
      25     1     1     2     0     0  5.363666680E+01 -1.959891904E+02  3.228823832E+02  4.014557113E+02  1.250000000E+02  0.00000E+00  9.000E+00
      25     1     1     2     0     0 -6.485284803E+01  2.436498783E+02  2.152351975E+01  2.822399990E+02  1.250000000E+02  0.00000E+00  9.000E+00
      21     1     1     2   502   511  1.121618123E+01 -4.766068800E+01 -7.111098824E+01  8.633722575E+01  0.000000000E+00  0.00000E+00  9.000E+00
#rwgt            1           1   2.9987791465101235E-002           8      186567           0
</event>
<event>
      5   9999  3.19816E-02  4.41239E+02 -1.00000E+00  1.00419E-01
      21    -1     0     0   512   501  0.000000000E+00  0.000000000E+00  1.150732624E+03  1.150732624E+03  0.000000000E+00  0.00000E+00  9.000E+00
      21    -1     0     0   501   502  0.000000000E+00  0.000000000E+00 -1.258650889E+03  1.258650889E+03  0.000000000E+00  0.00000E+00  9.000E+00
      25     1     1     2     0     0 -8.040036312E+02  8.652800003E+02 -5.129877677E+01  1.188859909E+03  1.250000000E+02  0.00000E+00  9.000E+00
      25     1     1     2     0     0  4.893022847E+02 -5.559987291E+02 -1.585407280E+02  7.676662524E+02  1.250000000E+02  0.00000E+00  9.000E+00
      21     1     1     2   512   502  3.147013465E+02 -3.092812712E+02  1.019212404E+02  4.528573522E+02  6.325959759E-06  0.00000E+00  9.000E+00
#rwgt            1           1   3.0900555193366000E-002           8      186733           0
</event>
<event>
      5   9999  3.19816E-02  1.75053E+02 -1.00000E+00  1.13796E-01
      21    -1     0     0   502   511  0.000000000E+00  0.000000000E+00  4.130616131E+02  4.130616131E+02  0.000000000E+00  0.00000E+00  9.000E+00
      21    -1     0     0   501   502  0.000000000E+00  0.000000000E+00 -9.443156467E+02  9.443156467E+02  0.000000000E+00  0.00000E+00  9.000E+00
      25     1     1     2     0     0  3.282898444E+02  2.611749831E+02 -3.333509914E+02  5.502131198E+02  1.250000000E+02  0.00000E+00  9.000E+00
      25     1     1     2     0     0 -4.807941888E+02 -3.471166283E+02 -1.737706434E+02  6.304555830E+02  1.250000000E+02  0.00000E+00  9.000E+00
      21     1     1     2   501   511  1.525043444E+02  8.594164522E+01 -2.413239875E+01  1.767085570E+02  2.454669509E-06  0.00000E+00  9.000E+00
#rwgt            1           1   3.1259224860012723E-002           8      186803           0
</event>
<event>
      5   9999  3.19816E-02  6.55952E+01 -1.00000E+00  1.32666E-01
       1    -1     0     0   502     0  0.000000000E+00  0.000000000E+00  3.108576747E+03  3.108576747E+03  0.000000000E+00  0.00000E+00  9.000E+00
      21    -1     0     0   501   502  0.000000000E+00  0.000000000E+00 -3.835424635E+02  3.835424635E+02  0.000000000E+00  0.00000E+00  9.000E+00
      25     1     1     2     0     0 -3.488468807E+01 -7.898760098E+01  2.993063250E+01  1.548445199E+02  1.250000000E+02  0.00000E+00  9.000E+00
      25     1     1     2     0     0 -1.912725330E+01  1.162091134E+02 -2.977350266E+02  3.437172616E+02  1.250000000E+02  0.00000E+00  9.000E+00
       1     1     1     2   501     0  5.401194137E+01 -3.722151244E+01  2.992838678E+03  2.993557429E+03  6.103515625E-05  0.00000E+00  9.000E+00
#rwgt            1           1   2.7413074350522183E-002           8      186841           0
</event>
<event>
      5   9999  3.19816E-02  6.73194E+01 -1.00000E+00  1.32085E-01
       2    -1     0     0   502     0  0.000000000E+00  0.000000000E+00  5.705581981E+02  5.705581981E+02  0.000000000E+00  0.00000E+00  9.000E+00
      21    -1     0     0   501   502  0.000000000E+00  0.000000000E+00 -3.434138883E+03  3.434138883E+03  0.000000000E+00  0.00000E+00  9.000E+00
      25     1     1     2     0     0 -2.775292065E+02  3.732896104E+02 -3.161873745E+03  3.198349289E+03  1.250000000E+02  0.00000E+00  9.000E+00
      25     1     1     2     0     0  3.428487281E+02 -3.895763996E+02  3.539774711E+01  5.349701132E+02  1.250000000E+02  0.00000E+00  9.000E+00
       2     1     1     2   501     0 -6.531952163E+01  1.628678918E+01  2.628953128E+02  2.713776794E+02  0.000000000E+00  0.00000E+00  9.000E+00
#rwgt            1           1   6.7928869012787010E-002           8      186913           0
</event>
<event>
      5   9999  3.19816E-02  1.31918E+01 -1.00000E+00  1.82806E-01
      21    -1     0     0   511   501  0.000000000E+00  0.000000000E+00  2.752523435E+02  2.752523435E+02  0.000000000E+00  0.00000E+00  9.000E+00
      21    -1     0     0   501   502  0.000000000E+00  0.000000000E+00 -3.214742886E+02  3.214742886E+02  0.000000000E+00  0.00000E+00  9.000E+00
      25     1     1     2     0     0 -1.261493867E+02  2.166597144E+02 -6.470055683E+01  2.875174111E+02  1.250000000E+02  0.00000E+00  9.000E+00
      25     1     1     2     0     0  1.143805268E+02 -2.226194022E+02 -7.727991695E+00  2.798696572E+02  1.250000000E+02  0.00000E+00  9.000E+00
      21     1     1     2   511   502  1.176885990E+01  5.959687865E+00  2.620660345E+01  2.933956385E+01  3.371747881E-07  0.00000E+00  9.000E+00
#rwgt            1           1   2.7071380985583121E-002           8      187048           0
</event>
<event>
      5   9999  3.19816E-02  1.75730E+02 -1.00000E+00  1.13732E-01
       3    -1     0     0   502     0  0.000000000E+00  0.000000000E+00  1.678887206E+02  1.678887206E+02  0.000000000E+00  0.00000E+00  9.000E+00
      21    -1     0     0   501   502  0.000000000E+00  0.000000000E+00 -2.649367640E+03  2.649367640E+03  0.000000000E+00  0.00000E+00  9.000E+00
      25     1     1     2     0     0  1.972507404E+01 -3.788495482E+02 -1.631585584E+03  1.679765631E+03  1.250000000E+02  0.00000E+00  9.000E+00
      25     1     1     2     0     0  1.453641348E+02  3.186289723E+02 -8.835075790E+02  9.585748775E+02  1.250000000E+02  0.00000E+00  9.000E+00
       3     1     1     2   501     0 -1.650892089E+02  6.022057587E+01  3.361424339E+01  1.789158517E+02  3.198720900E-06  0.00000E+00  9.000E+00
#rwgt            2          19   2.7641139109793605E-004           8      187293           0
</event>
<event>
      5   9999  3.19816E-02  4.26174E+01 -1.00000E+00  1.43153E-01
      21    -1     0     0   502   511  0.000000000E+00  0.000000000E+00  6.305425895E+01  6.305425895E+01  0.000000000E+00  0.00000E+00  9.000E+00
      21    -1     0     0   501   502  0.000000000E+00  0.000000000E+00 -9.947552000E+02  9.947552000E+02  0.000000000E+00  0.00000E+00  9.000E+00
      25     1     1     2     0     0 -1.112670709E+02  3.665740835E+01 -8.114109766E+02  8.292990411E+02  1.250000000E+02  0.00000E+00  9.000E+00
      25     1     1     2     0     0  6.925825630E+01 -4.383406793E+01 -7.855474597E+01  1.688608294E+02  1.250000000E+02  0.00000E+00  9.000E+00
      21     1     1     2   501   511  4.200881458E+01  7.176659580E+00 -4.173521848E+01  5.964958849E+01  8.259061849E-07  0.00000E+00  9.000E+00
#rwgt            1           1   2.7894819537658537E-002           8      187327           0
</event>
<event>
      5   9999  3.19816E-02  8.40888E+01 -1.00000E+00  1.27310E-01
      21    -1     0     0   502   501  0.000000000E+00  0.000000000E+00  9.308053490E+02  9.308053490E+02  0.000000000E+00  0.00000E+00  9.000E+00
       2    -1     0     0   501     0  0.000000000E+00  0.000000000E+00 -2.162999298E+03  2.162999298E+03  0.000000000E+00  0.00000E+00  9.000E+00
      25     1     1     2     0     0  7.256485406E+02  1.721740942E+02 -6.267130879E+02  9.821425649E+02  1.250000000E+02  0.00000E+00  9.000E+00
      25     1     1     2     0     0 -6.693507658E+02 -1.097122375E+02  5.933951796E+02  9.098406794E+02  1.250000000E+02  0.00000E+00  9.000E+00
       2     1     1     2   502     0 -5.629777480E+01 -6.246185661E+01 -1.198876041E+03  1.201821403E+03  1.525878906E-05  0.00000E+00  9.000E+00
#rwgt            2          13   3.7965221911203948E-003           8      187442           0
</event>
<event>
      5   9999  3.19816E-02  3.56765E+01 -1.00000E+00  1.47990E-01
      21    -1     0     0   502   501  0.000000000E+00  0.000000000E+00  1.050255860E+02  1.050255860E+02  0.000000000E+00  0.00000E+00  9.000E+00
       2    -1     0     0   501     0  0.000000000E+00  0.000000000E+00 -2.540604395E+03  2.540604395E+03  0.000000000E+00  0.00000E+00  9.000E+00
      25     1     1     2     0     0 -1.559294657E+02 -2.061118519E+02 -1.681529018E+02  3.327108236E+02  1.250000000E+02  0.00000E+00  9.000E+00
      25     1     1     2     0     0  1.808771033E+02  2.316153888E+02 -1.112169810E+03  1.157112311E+03  1.250000000E+02  0.00000E+00  9.000E+00
       2     1     1     2   502     0 -2.494763766E+01 -2.550353687E+01 -1.155256097E+03  1.155806846E+03  1.525878906E-05  0.00000E+00  9.000E+00
#rwgt            1           1   2.9544088369875258E-002           8      187461           0
</event>
<event>
      5   9999  3.19816E-02  2.74897E+02 -1.00000E+00  1.06840E-01
      21    -1     0     0   511   501  0.000000000E+00  0.000000000E+00  1.525745569E+02  1.525745569E+02  0.000000000E+00  0.00000E+00  9.000E+00
      21    -1     0     0   501   502  0.000000000E+00  0.000000000E+00 -1.032640195E+03  1.032640195E+03  0.000000000E+00  0.00000E+00  9.000E+00
      25     1     1     2     0     0 -1.722465093E+02  7.171874753E+01 -6.474891362E+02  6.853317593E+02  1.250000000E+02  0.00000E+00  9.000E+00
      25     1     1     2     0     0 -8.865198457E+01  1.488716947E+01 -1.446746780E+02  2.112736724E+02  1.250000000E+02  0.00000E+00  9.000E+00
      21     1     1     2   511   502  2.608984939E+02 -8.660591699E+01 -8.790182363E+01  2.886093199E+02  3.693564745E-06  0.00000E+00  9.000E+00
#rwgt            1           1   7.6358677469433492E-002           8      187578           0
</event>
<event>
      5   9999  3.19816E-02  1.62055E+02 -1.00000E+00  1.15078E-01
       2    -1     0     0   502     0  0.000000000E+00  0.000000000E+00  8.994125955E+02  8.994125955E+02  0.000000000E+00  0.00000E+00  9.000E+00
      21    -1     0     0   501   502  0.000000000E+00  0.000000000E+00 -2.329467472E+03  2.329467472E+03  0.000000000E+00  0.00000E+00  9.000E+00
      25     1     1     2     0     0 -7.350048030E+02 -1.112488543E+02 -1.900721862E+03  2.044743740E+03  1.250000000E+02  0.00000E+00  9.000E+00
      25     1     1     2     0     0  8.895334051E+02  6.243563658E+01  3.007685703E+02  9.493443108E+02  1.250000000E+02  0.00000E+00  9.000E+00
       2     1     1     2   501     0 -1.545286021E+02  4.881321777E+01  1.698984156E+02  2.347920159E+02  2.697398305E-06  0.00000E+00  9.000E+00
#rwgt            1           1   5.6217612894545917E-002           8      187608           0
</event>
<event>
      5   9999  3.19816E-02  6.02685E+01 -1.00000E+00  1.34600E-01
      21    -1     0     0   511   501  0.000000000E+00  0.000000000E+00  1.472725948E+02  1.472725948E+02  0.000000000E+00  0.00000E+00  9.000E+00
      21    -1     0     0   501   502  0.000000000E+00  0.000000000E+00 -1.309722001E+03  1.309722001E+03  0.000000000E+00  0.00000E+00  9.000E+00
      25     1     1     2     0     0 -4.808776066E+01 -9.093232678E+01  5.268641813E+01  1.702409452E+02  1.250000000E+02  0.00000E+00  9.000E+00
      25     1     1     2     0     0  5.647784574E+01  1.506139823E+02 -1.209147921E+03  1.226188409E+03  1.250000000E+02  0.00000E+00  9.000E+00
      21     1     1     2   511   502 -8.390085074E+00 -5.968165550E+01 -5.987903274E+00  6.056524181E+01  1.230226007E-06  0.00000E+00  9.000E+00
#rwgt            1           1   3.0237137134508266E-002           8      187700           0
</event>
<event>
      5   9999  3.19816E-02  9.10037E+01 -1.00000E+00  1.25698E-01
      21    -1     0     0   502   501  0.000000000E+00  0.000000000E+00  1.099242581E+03  1.099242581E+03  0.000000000E+00  0.00000E+00  9.000E+00
      21    -1     0     0   512   502  0.000000000E+00  0.000000000E+00 -3.619634711E+02  3.619634711E+02  0.000000000E+00  0.00000E+00  9.000E+00
      25     1     1     2     0     0  3.310219288E+02 -2.076014907E+02  8.491104856E+02  9.430204203E+02  1.250000000E+02  0.00000E+00  9.000E+00
      25     1     1     2     0     0 -3.545472115E+02  1.196910735E+02 -2.977954727E+01  3.956532569E+02  1.250000000E+02  0.00000E+00  9.000E+00
      21     1     1     2   512   501  2.352528273E+01  8.791041726E+01 -8.205182839E+01  1.225323750E+02  9.536743164E-07  0.00000E+00  9.000E+00
#rwgt            1           1   2.8319704890525925E-002           8      187812           0
</event>
<event>
      5   9999  3.19816E-02  1.14120E+02 -1.00000E+00  1.21302E-01
      21    -1     0     0   502   511  0.000000000E+00  0.000000000E+00  5.686939594E+02  5.686939594E+02  0.000000000E+00  0.00000E+00  9.000E+00
      21    -1     0     0   501   502  0.000000000E+00  0.000000000E+00 -2.671693737E+02  2.671693737E+02  0.000000000E+00  0.00000E+00  9.000E+00
      25     1     1     2     0     0  1.922242216E+02 -9.634768430E+01  2.805395288E+02  3.749139300E+02  1.250000000E+02  0.00000E+00  9.000E+00
      25     1     1     2     0     0 -2.866678169E+02  3.228603372E+01 -6.122175313E+01  3.203028696E+02  1.250000000E+02  0.00000E+00  9.000E+00
      21     1     1     2   501   511  9.444359530E+01  6.406165058E+01  8.220681004E+01  1.406465335E+02  9.536743164E-07  0.00000E+00  9.000E+00
#rwgt            1           1   2.7896921212379928E-002           8      187871           0
</event>
<event>
      5   9999  3.19816E-02  5.99788E+01 -1.00000E+00  1.34712E-01
      21    -1     0     0   502   501  0.000000000E+00  0.000000000E+00  1.806455334E+03  1.806455334E+03  0.000000000E+00  0.00000E+00  9.000E+00
       1    -1     0     0   501     0  0.000000000E+00  0.000000000E+00 -6.323486308E+02  6.323486308E+02  0.000000000E+00  0.00000E+00  9.000E+00
      25     1     1     2     0     0  6.055867947E+02  8.824598648E+00  2.540346031E+02  6.685595105E+02  1.250000000E+02  0.00000E+00  9.000E+00
      25     1     1     2     0     0 -6.497513970E+02 -4.940720560E+01  1.260557370E+03  1.424516702E+03  1.250000000E+02  0.00000E+00  9.000E+00
       1     1     1     2   502     0  4.416460223E+01  4.058260695E+01 -3.404852698E+02  3.457277528E+02  1.009274029E-05  0.00000E+00  9.000E+00
#rwgt            1           1   3.1792052405250217E-002           8      187962           0
</event>
<event>
      5   9999  3.21721E-02  5.43218E+01 -1.00000E+00  1.37052E-01
      21    -1     0     0   502   501  0.000000000E+00  0.000000000E+00  5.017806701E+02  5.017806701E+02  0.000000000E+00  0.00000E+00  9.000E+00
      21    -1     0     0   501   511  0.000000000E+00  0.000000000E+00 -1.056456771E+03  1.056456771E+03  0.000000000E+00  0.00000E+00  9.000E+00
      25     1     1     2     0     0  4.522350548E+02  9.218323384E+01 -5.654202035E+02  7.404993585E+02  1.250000000E+02  0.00000E+00  9.000E+00
      25     1     1     2     0     0 -4.340275886E+02 -1.433628133E+02  2.750453395E+02  5.479122035E+02  1.250000000E+02  0.00000E+00  9.000E+00
      21     1     1     2   502   511 -1.820746617E+01  5.117957949E+01 -2.643012373E+02  2.698258794E+02  3.814697266E-06  0.00000E+00  9.000E+00
#rwgt            1           1   3.1828254790687363E-002           8      188132           0
</event>
<event>
      5   9999  3.19816E-02  1.35071E+02 -1.00000E+00  1.18227E-01
      21    -1     0     0   502   501  0.000000000E+00  0.000000000E+00  1.195704936E+03  1.195704936E+03  0.000000000E+00  0.00000E+00  9.000E+00
       2    -1     0     0   501     0  0.000000000E+00  0.000000000E+00 -6.154236884E+02  6.154236884E+02  0.000000000E+00  0.00000E+00  9.000E+00
      25     1     1     2     0     0 -3.704454075E+01 -1.455939323E+02  1.112390628E+03  1.129428085E+03  1.250000000E+02  0.00000E+00  9.000E+00
      25     1     1     2     0     0  3.104884419E+01  1.065605089E+01  3.536679076E+00  1.292868526E+02  1.250000000E+02  0.00000E+00  9.000E+00
       2     1     1     2   502     0  5.995696559E+00  1.349378814E+02 -5.356460593E+02  5.524136865E+02  1.321449896E-05  0.00000E+00  9.000E+00
#rwgt            1           1   2.9009549999612562E-002           8      188251           0
</event>
<event>
      5   9999  3.19816E-02  4.26290E+01 -1.00000E+00  1.43146E-01
      21    -1     0     0   511   501  0.000000000E+00  0.000000000E+00  1.316996071E+02  1.316996071E+02  0.000000000E+00  0.00000E+00  9.000E+00
      21    -1     0     0   501   502  0.000000000E+00  0.000000000E+00 -9.094965532E+02  9.094965532E+02  0.000000000E+00  0.00000E+00  9.000E+00
      25     1     1     2     0     0 -1.373776865E+02  1.342235156E+02 -9.104509674E+01  2.465822186E+02  1.250000000E+02  0.00000E+00  9.000E+00
      25     1     1     2     0     0  1.356700766E+02 -1.768183463E+02 -7.037616209E+02  7.487165794E+02  1.250000000E+02  0.00000E+00  9.000E+00
      21     1     1     2   511   502  1.707609947E+00  4.259483074E+01  1.700977148E+01  4.589736227E+01  1.634515429E-06  0.00000E+00  9.000E+00
#rwgt            1           1   3.5362387459762348E-002           8      188314           0
</event>
<event>
      5   9999  3.19816E-02  9.80096E+01 -1.00000E+00  1.24222E-01
      21    -1     0     0   502   501  0.000000000E+00  0.000000000E+00  1.983031934E+03  1.983031934E+03  0.000000000E+00  0.00000E+00  9.000E+00
      21    -1     0     0   501   512  0.000000000E+00  0.000000000E+00 -1.605480142E+02  1.605480142E+02  0.000000000E+00  0.00000E+00  9.000E+00
      25     1     1     2     0     0  1.660094855E+02 -1.170196079E+02  2.451763987E+02  3.420368465E+02  1.250000000E+02  0.00000E+00  9.000E+00
      25     1     1     2     0     0 -1.029187025E+02  4.201670677E+01  1.662977210E+03  1.671369458E+03  1.250000000E+02  0.00000E+00  9.000E+00
      21     1     1     2   502   512 -6.309078293E+01  7.500290113E+01 -8.566968875E+01  1.301736442E+02  4.156969970E-06  0.00000E+00  9.000E+00
#rwgt            1           1   3.5597850637604643E-002           8      188380           0
</event>
<event>
      5   9999  3.19816E-02  6.16930E+01 -1.00000E+00  1.34061E-01
      21    -1     0     0   502   501  0.000000000E+00  0.000000000E+00  1.077726591E+03  1.077726591E+03  0.000000000E+00  0.00000E+00  9.000E+00
      21    -1     0     0   511   502  0.000000000E+00  0.000000000E+00 -1.358015899E+03  1.358015899E+03  0.000000000E+00  0.00000E+00  9.000E+00
      25     1     1     2     0     0 -1.344177098E+02 -1.571721917E+02 -7.343420026E+02  7.730811053E+02  1.250000000E+02  0.00000E+00  9.000E+00
      25     1     1     2     0     0  8.484311886E+01  1.938925367E+02  1.042450997E+03  1.071037698E+03  1.250000000E+02  0.00000E+00  9.000E+00
      21     1     1     2   511   501  4.957459092E+01 -3.672034497E+01 -5.883983028E+02  5.916236866E+02  0.000000000E+00  0.00000E+00  9.000E+00
#rwgt            1           1   2.6868582590692299E-002           8      188430           0
</event>
<event>
      5   9999  3.19816E-02  5.59799E+01 -1.00000E+00  1.36333E-01
      21    -1     0     0   502   501  0.000000000E+00  0.000000000E+00  5.594195895E+02  5.594195895E+02  0.000000000E+00  0.00000E+00  9.000E+00
      21    -1     0     0   512   502  0.000000000E+00  0.000000000E+00 -4.438236485E+02  4.438236485E+02  0.000000000E+00  0.00000E+00  9.000E+00
      25     1     1     2     0     0 -1.296489988E+02  1.384823635E+02 -3.241428402E+01  2.294818374E+02  1.250000000E+02  0.00000E+00  9.000E+00
      25     1     1     2     0     0  8.440296314E+01 -1.055196219E+02  4.397384285E+02  4.767107470E+02  1.250000000E+02  0.00000E+00  9.000E+00
      21     1     1     2   512   501  4.524603562E+01 -3.296274157E+01 -2.917282035E+02  2.970506536E+02  3.814697266E-06  0.00000E+00  9.000E+00
#rwgt            1           1   2.7707807741123018E-002           8      188531           0
</event>
<event>
      5   9999  3.19816E-02  1.50567E+02 -1.00000E+00  1.16329E-01
      21    -1     0     0   502   511  0.000000000E+00  0.000000000E+00  1.437629449E+02  1.437629449E+02  0.000000000E+00  0.00000E+00  9.000E+00
      21    -1     0     0   501   502  0.000000000E+00  0.000000000E+00 -1.835622010E+03  1.835622010E+03  0.000000000E+00  0.00000E+00  9.000E+00
      25     1     1     2     0     0  4.834792227E+01 -9.919984673E+00 -1.607538995E+03  1.613146784E+03  1.250000000E+02  0.00000E+00  9.000E+00
      25     1     1     2     0     0 -8.901621904E+01 -1.350506854E+02 -3.240610004E+01  2.069727765E+02  1.250000000E+02  0.00000E+00  9.000E+00
      21     1     1     2   501   511  4.066829677E+01  1.449706701E+02 -5.191397055E+01  1.592653945E+02  3.371747881E-06  0.00000E+00  9.000E+00
#rwgt            1           1   2.6976647585406740E-002           8      188638           0
</event>
<event>
      5   9999  3.19816E-02  6.09681E+01 -1.00000E+00  1.34333E-01
      21    -1     0     0   502   512  0.000000000E+00  0.000000000E+00  6.986267253E+02  6.986267253E+02  0.000000000E+00  0.00000E+00  9.000E+00
      21    -1     0     0   501   502  0.000000000E+00  0.000000000E+00 -1.737962006E+02  1.737962006E+02  0.000000000E+00  0.00000E+00  9.000E+00
      25     1     1     2     0     0  1.691323410E+02  1.004203743E+02  3.482925348E+02  4.190736095E+02  1.250000000E+02  0.00000E+00  9.000E+00
      25     1     1     2     0     0 -2.256180572E+02 -1.233653535E+02  2.146274414E+01  2.867196672E+02  1.250000000E+02  0.00000E+00  9.000E+00
      21     1     1     2   501   512  5.648571614E+01  2.294497917E+01  1.550752458E+02  1.666296493E+02  3.303624740E-06  0.00000E+00  9.000E+00
#rwgt            1           1   2.8127626829643471E-002           8      188691           0
</event>
<event>
      5   9999  3.19816E-02  1.01304E+01 -1.00000E+00  1.95109E-01
      21    -1     0     0   502   501  0.000000000E+00  0.000000000E+00  2.037082056E+03  2.037082056E+03  0.000000000E+00  0.00000E+00  9.000E+00
      21    -1     0     0   511   502  0.000000000E+00  0.000000000E+00 -1.139023412E+02  1.139023412E+02  0.000000000E+00  0.00000E+00  9.000E+00
      25     1     1     2     0     0  5.906591338E+01 -2.776327684E+02  1.850318009E+02  3.611516351E+02  1.250000000E+02  0.00000E+00  9.000E+00
      25     1     1     2     0     0 -5.596967789E+01  2.679871307E+02  1.749164467E+03  1.774866485E+03  1.250000000E+02  0.00000E+00  9.000E+00
      21     1     1     2   511   501 -3.096235487E+00  9.645637683E+00 -1.101655324E+01  1.496627695E+01  2.665600750E-07  0.00000E+00  9.000E+00
#rwgt            1           1   3.5345178314248923E-002           8      188757           0
</event>
<event>
      5   9999  3.19816E-02  4.81337E+00 -1.00000E+00  2.45862E-01
      21    -1     0     0   512   501  0.000000000E+00  0.000000000E+00  4.827732173E+02  4.827732173E+02  0.000000000E+00  0.00000E+00  9.000E+00
      21    -1     0     0   501   502  0.000000000E+00  0.000000000E+00 -8.970928438E+02  8.970928438E+02  0.000000000E+00  0.00000E+00  9.000E+00
      25     1     1     2     0     0 -2.564260576E+02 -4.730392620E+02 -5.167367135E+02  7.564141045E+02  1.250000000E+02  0.00000E+00  9.000E+00
      25     1     1     2     0     0  2.565588477E+02  4.778508046E+02  3.695403698E+01  5.578121859E+02  1.250000000E+02  0.00000E+00  9.000E+00
      21     1     1     2   512   502 -1.327901651E-01 -4.811542613E+00  6.546305000E+01  6.563977065E+01  1.348699152E-06  0.00000E+00  9.000E+00
#rwgt            1           1   3.4016079502183251E-002           8      189005           0
</event>
<event>
      5   9999  3.19816E-02  8.63718E+01 -1.00000E+00  1.26759E-01
      21    -1     0     0   502   501  0.000000000E+00  0.000000000E+00  7.629504491E+02  7.629504491E+02  0.000000000E+00  0.00000E+00  9.000E+00
       5    -1     0     0   501     0  0.000000000E+00  0.000000000E+00 -2.093943685E+02  2.093943685E+02  0.000000000E+00  0.00000E+00  9.000E+00
      25     1     1     2     0     0 -8.065517118E+01  2.218614873E+02  3.045817846E+02  4.051207718E+02  1.250000000E+02  0.00000E+00  9.000E+00
      25     1     1     2     0     0  9.566326268E+01 -3.069193665E+02  3.081475203E+02  4.625265956E+02  1.250000000E+02  0.00000E+00  9.000E+00
       5     1     1     2   502     0 -1.500809151E+01  8.505787918E+01 -5.917322424E+01  1.046974502E+02  9.536743164E-07  0.00000E+00  9.000E+00
#rwgt            1           1   2.7662446154186608E-002           8      189580           0
</event>
<event>
      5   9999  3.19816E-02  1.64121E+02 -1.00000E+00  1.14866E-01
      21    -1     0     0   502   511  0.000000000E+00  0.000000000E+00  4.511849947E+02  4.511849947E+02  0.000000000E+00  0.00000E+00  9.000E+00
      21    -1     0     0   501   502  0.000000000E+00  0.000000000E+00 -4.240244567E+02  4.240244567E+02  0.000000000E+00  0.00000E+00  9.000E+00
      25     1     1     2     0     0 -1.814821895E+02  1.067848778E+02 -1.109786338E+02  2.688494977E+02  1.250000000E+02  0.00000E+00  9.000E+00
      25     1     1     2     0     0  3.341178189E+02 -1.671022195E+02  3.292099826E+00  3.939463245E+02  1.250000000E+02  0.00000E+00  9.000E+00
      21     1     1     2   501   511 -1.526356293E+02  6.031734165E+01  1.348470720E+02  2.124136292E+02  1.907348633E-06  0.00000E+00  9.000E+00
#rwgt            1           1   3.1151396624790585E-002           8      189639           0
</event>
<event>
      5   9999  3.19816E-02  1.90802E+01 -1.00000E+00  1.68074E-01
      21    -1     0     0   502   501  0.000000000E+00  0.000000000E+00  3.292585876E+02  3.292585876E+02  0.000000000E+00  0.00000E+00  9.000E+00
      21    -1     0     0   501   512  0.000000000E+00  0.000000000E+00 -1.329595386E+03  1.329595386E+03  0.000000000E+00  0.00000E+00  9.000E+00
      25     1     1     2     0     0  5.543838900E+01  2.009339657E+02  2.664156585E+02  3.606247033E+02  1.250000000E+02  0.00000E+00  9.000E+00
      25     1     1     2     0     0 -7.077166950E+01 -2.122893652E+02 -1.057999326E+03  1.088605979E+03  1.250000000E+02  0.00000E+00  9.000E+00
      21     1     1     2   502   512  1.533328051E+01  1.135539956E+01 -2.087531313E+02  2.096232917E+02  0.000000000E+00  0.00000E+00  9.000E+00
#rwgt            1           1   3.3735862186463725E-002           8      189693           0
</event>
<event>
      5   9999  3.19816E-02  6.57237E+01 -1.00000E+00  1.32622E-01
      21    -1     0     0   502   511  0.000000000E+00  0.000000000E+00  9.181374791E+02  9.181374791E+02  0.000000000E+00  0.00000E+00  9.000E+00
      21    -1     0     0   501   502  0.000000000E+00  0.000000000E+00 -3.696945097E+02  3.696945097E+02  0.000000000E+00  0.00000E+00  9.000E+00
      25     1     1     2     0     0  8.018688109E+01 -3.443203339E+02  5.851182173E+01  3.795195140E+02  1.250000000E+02  0.00000E+00  9.000E+00
      25     1     1     2     0     0 -4.713731851E+01  4.011299911E+02  8.974754384E+00  4.228862054E+02  1.250000000E+02  0.00000E+00  9.000E+00
      21     1     1     2   501   511 -3.304956258E+01 -5.680965716E+01  4.809563933E+02  4.854262693E+02  7.629394531E-06  0.00000E+00  9.000E+00
#rwgt            1           1   2.5549593717756915E-002           8      189916           0
</event>
<event>
      5   9999  3.19816E-02  1.27341E+02 -1.00000E+00  1.19284E-01
      21    -1     0     0   502   512  0.000000000E+00  0.000000000E+00  1.091505779E+02  1.091505779E+02  0.000000000E+00  0.00000E+00  9.000E+00
      21    -1     0     0   501   502  0.000000000E+00  0.000000000E+00 -1.342453382E+03  1.342453382E+03  0.000000000E+00  0.00000E+00  9.000E+00
      25     1     1     2     0     0  2.219155330E+02  7.344557539E+01 -7.229332143E+02  7.699988238E+02  1.250000000E+02  0.00000E+00  9.000E+00
      25     1     1     2     0     0 -2.124927411E+02 -2.004371877E+02 -4.142018550E+02  5.220310411E+02  1.250000000E+02  0.00000E+00  9.000E+00
      21     1     1     2   501   512 -9.422791823E+00  1.269916123E+02 -9.616773528E+01  1.595740954E+02  1.907348633E-06  0.00000E+00  9.000E+00
#rwgt            1           1   2.9599612447083985E-002           8      190079           0
</event>
<event>
      5   9999  3.19816E-02  2.09475E+01 -1.00000E+00  1.64727E-01
      21    -1     0     0   502   501  0.000000000E+00  0.000000000E+00  1.203385400E+02  1.203385400E+02  0.000000000E+00  0.00000E+00  9.000E+00
      21    -1     0     0   511   502  0.000000000E+00  0.000000000E+00 -1.149207534E+03  1.149207534E+03  0.000000000E+00  0.00000E+00  9.000E+00
      25     1     1     2     0     0  1.213728054E+02 -1.472157224E+02 -2.838751592E+01  2.298579516E+02  1.250000000E+02  0.00000E+00  9.000E+00
      25     1     1     2     0     0 -1.188303878E+02  1.264230967E+02 -5.715283418E+02  6.102238163E+02  1.250000000E+02  0.00000E+00  9.000E+00
      21     1     1     2   511   501 -2.542417683E+00  2.079262575E+01 -4.289531367E+02  4.294643066E+02  0.000000000E+00  0.00000E+00  9.000E+00
#rwgt            1           1   2.1282018748045171E-002           8      190170           0
</event>
<event>
      5   9999  3.19816E-02  2.59689E+01 -1.00000E+00  1.57524E-01
      21    -1     0     0   502   501  0.000000000E+00  0.000000000E+00  8.447794164E+02  8.447794164E+02  0.000000000E+00  0.00000E+00  9.000E+00
       2    -1     0     0   501     0  0.000000000E+00  0.000000000E+00 -1.008994756E+03  1.008994756E+03  0.000000000E+00  0.00000E+00  9.000E+00
      25     1     1     2     0     0  5.956872752E+01 -4.249376316E+02  4.943951244E+02  6.664622743E+02  1.250000000E+02  0.00000E+00  9.000E+00
      25     1     1     2     0     0 -6.394798832E+01  3.993406220E+02  9.452354274E+01  4.337303053E+02  1.250000000E+02  0.00000E+00  9.000E+00
       2     1     1     2   502     0  4.379260806E+00  2.559700953E+01 -7.531340069E+02  7.535815929E+02  1.078959322E-05  0.00000E+00  9.000E+00
#rwgt            1           1   2.6584790166214043E-002           8      190413           0
</event>
<event>
      5   9999  3.19816E-02  3.41962E+01 -1.00000E+00  1.49193E-01
      21    -1     0     0   511   501  0.000000000E+00  0.000000000E+00  5.818498408E+02  5.818498408E+02  0.000000000E+00  0.00000E+00  9.000E+00
      21    -1     0     0   501   502  0.000000000E+00  0.000000000E+00 -6.503304145E+02  6.503304145E+02  0.000000000E+00  0.00000E+00  9.000E+00
      25     1     1     2     0     0  3.954944531E+02 -2.801170120E+02 -2.619977836E+02  5.649329531E+02  1.250000000E+02  0.00000E+00  9.000E+00
      25     1     1     2     0     0 -3.634881115E+02  2.921576215E+02  1.243997475E+01  4.829693944E+02  1.250000000E+02  0.00000E+00  9.000E+00
      21     1     1     2   511   502 -3.200634154E+01 -1.204060943E+01  1.810772352E+02  1.842779078E+02  2.697398305E-06  0.00000E+00  9.000E+00
#rwgt            1           1   2.9376547086897502E-002           8      190638           0
</event>
<event>
      5   9999  3.19816E-02  1.00298E+02 -1.00000E+00  1.23770E-01
      21    -1     0     0   502   501  0.000000000E+00  0.000000000E+00  2.069302889E+02  2.069302889E+02  0.000000000E+00  0.00000E+00  9.000E+00
      21    -1     0     0   501   512  0.000000000E+00  0.000000000E+00 -8.022881496E+02  8.022881496E+02  0.000000000E+00  0.00000E+00  9.000E+00
      25     1     1     2     0     0 -3.772299919E+01  3.564553709E+01  8.600213869E+01  1.603589625E+02  1.250000000E+02  0.00000E+00  9.000E+00
      25     1     1     2     0     0 -6.120755874E+01 -5.214920556E+01  1.122163609E+01  1.490531114E+02  1.250000000E+02  0.00000E+00  9.000E+00
      21     1     1     2   502   512  9.893055793E+01  1.650366847E+01 -6.925816354E+02  6.998063647E+02  1.078959322E-05  0.00000E+00  9.000E+00
#rwgt            1           1   1.6725089773544050E-002           8      190798           0
</event>
<event>
      5   9999  3.59482E-02  6.15924E+01 -1.00000E+00  1.34098E-01
      21    -1     0     0   502   501  0.000000000E+00  0.000000000E+00  1.127825134E+03  1.127825134E+03  0.000000000E+00  0.00000E+00  9.000E+00
       2    -1     0     0   501     0  0.000000000E+00  0.000000000E+00 -1.638253876E+03  1.638253876E+03  0.000000000E+00  0.00000E+00  9.000E+00
      25     1     1     2     0     0 -3.712198951E+02  2.589648067E+00  9.142446561E+02  9.946251595E+02  1.250000000E+02  0.00000E+00  9.000E+00
      25     1     1     2     0     0  3.970075020E+02  5.334446466E+01 -8.224030200E+01  4.276085310E+02  1.250000000E+02  0.00000E+00  9.000E+00
       2     1     1     2   502     0 -2.578760690E+01 -5.593411273E+01 -1.342433096E+03  1.343845320E+03  1.525878906E-05  0.00000E+00  9.000E+00
#rwgt            1           1   3.7306846612864125E-002           8      190855           0
</event>
<event>
      5   9999  3.19816E-02  3.34755E+01 -1.00000E+00  1.49805E-01
      21    -1     0     0   511   501  0.000000000E+00  0.000000000E+00  9.510395668E+01  9.510395668E+01  0.000000000E+00  0.00000E+00  9.000E+00
      21    -1     0     0   501   502  0.000000000E+00  0.000000000E+00 -1.897112212E+03  1.897112212E+03  0.000000000E+00  0.00000E+00  9.000E+00
      25     1     1     2     0     0  4.197897542E+01 -2.752017942E+02 -1.277535104E+03  1.313476000E+03  1.250000000E+02  0.00000E+00  9.000E+00
      25     1     1     2     0     0 -3.323645391E+01  3.075155255E+02 -5.453428803E+02  6.392920439E+02  1.250000000E+02  0.00000E+00  9.000E+00
      21     1     1     2   511   502 -8.742521509E+00 -3.231373135E+01  2.086972902E+01  3.944812424E+01  1.410503336E-06  0.00000E+00  9.000E+00
#rwgt            1           1   3.6584036376114550E-002           8      190941           0
</event>
<event>
      5   9999  3.19816E-02  1.39328E+01 -1.00000E+00  1.80457E-01
      21    -1     0     0   502   512  0.000000000E+00  0.000000000E+00  1.322552156E+03  1.322552156E+03  0.000000000E+00  0.00000E+00  9.000E+00
      21    -1     0     0   501   502  0.000000000E+00  0.000000000E+00 -5.252855479E+02  5.252855479E+02  0.000000000E+00  0.00000E+00  9.000E+00
      25     1     1     2     0     0  2.372593059E+01  6.645239278E+02  4.536815629E+02  8.146207283E+02  1.250000000E+02  0.00000E+00  9.000E+00
      25     1     1     2     0     0 -3.049419728E+01 -6.767023489E+02 -5.239929393E-01  6.888259864E+02  1.250000000E+02  0.00000E+00  9.000E+00
      21     1     1     2   501   512  6.768266686E+00  1.217842108E+01  3.441090378E+02  3.443909889E+02  6.607249480E-06  0.00000E+00  9.000E+00
#rwgt            1           1   2.8192483817874186E-002           8      191129           0
</event>
<event>
      5   9999  3.19816E-02  8.87785E+01 -1.00000E+00  1.26198E-01
      21    -1     0     0   502   501  0.000000000E+00  0.000000000E+00  5.692443370E+02  5.692443370E+02  0.000000000E+00  0.00000E+00  9.000E+00
      21    -1     0     0   511   502  0.000000000E+00  0.000000000E+00 -2.730042999E+02  2.730042999E+02  0.000000000E+00  0.00000E+00  9.000E+00
      25     1     1     2     0     0  5.199091168E+01  3.500473222E+02  2.604688560E+02  4.568426508E+02  1.250000000E+02  0.00000E+00  9.000E+00
      25     1     1     2     0     0 -2.408192246E+01 -2.657697422E+02  3.368784848E+01  2.966030444E+02  1.250000000E+02  0.00000E+00  9.000E+00
      21     1     1     2   511   501 -2.790898921E+01 -8.427757999E+01  2.083332563E+00  8.880294163E+01  1.801993425E-06  0.00000E+00  9.000E+00
#rwgt            1           1   3.1476546998304364E-002           8      191338           0
</event>
<event>
      5   9999  3.42391E-02  2.32385E+01 -1.00000E+00  1.61165E-01
      21    -1     0     0   512   501  0.000000000E+00  0.000000000E+00  7.123906161E+01  7.123906161E+01  0.000000000E+00  0.00000E+00  9.000E+00
      21    -1     0     0   501   502  0.000000000E+00  0.000000000E+00 -1.960814835E+03  1.960814835E+03  0.000000000E+00  0.00000E+00  9.000E+00
      25     1     1     2     0     0 -2.958884519E+01  1.095113124E+02 -2.088466469E+02  2.685333298E+02  1.250000000E+02  0.00000E+00  9.000E+00
      25     1     1     2     0     0  3.271079970E+01 -1.325391522E+02 -1.713432534E+03  1.723401483E+03  1.250000000E+02  0.00000E+00  9.000E+00
      21     1     1     2   512   502 -3.121954512E+00  2.302783985E+01  3.270340757E+01  4.011908368E+01  1.784161275E-06  0.00000E+00  9.000E+00
#rwgt            1           1  0.10185066490927262                8      191437           0
</event>
<event>
      5   9999  3.19816E-02  2.42327E+02 -1.00000E+00  1.08695E-01
      21    -1     0     0   502   501  0.000000000E+00  0.000000000E+00  3.239434028E+02  3.239434028E+02  0.000000000E+00  0.00000E+00  9.000E+00
      21    -1     0     0   511   502  0.000000000E+00  0.000000000E+00 -4.716116106E+02  4.716116106E+02  0.000000000E+00  0.00000E+00  9.000E+00
      25     1     1     2     0     0 -8.394385020E+01 -3.541663442E+01  1.323856478E+02  2.035973176E+02  1.250000000E+02  0.00000E+00  9.000E+00
      25     1     1     2     0     0  2.008461528E+01 -1.983450328E+02 -1.946853647E+01  2.361104990E+02  1.250000000E+02  0.00000E+00  9.000E+00
      21     1     1     2   511   501  6.385923492E+01  2.337616673E+02 -2.605853192E+02  3.558471969E+02  3.814697266E-06  0.00000E+00  9.000E+00
#rwgt            1           1   2.4945895314980714E-002           8      191570           0
</event>
<event>
      5   9999  3.19816E-02  7.17119E+01 -1.00000E+00  1.30691E-01
      21    -1     0     0   512   501  0.000000000E+00  0.000000000E+00  3.320271842E+02  3.320271842E+02  0.000000000E+00  0.00000E+00  9.000E+00
      21    -1     0     0   501   502  0.000000000E+00  0.000000000E+00 -3.284465516E+02  3.284465516E+02  0.000000000E+00  0.00000E+00  9.000E+00
      25     1     1     2     0     0 -1.064599536E+02 -3.000395429E+01 -4.885219894E+01  1.739123237E+02  1.250000000E+02  0.00000E+00  9.000E+00
      25     1     1     2     0     0  6.628700115E+01 -2.939922436E+01 -1.871653034E+02  2.364616919E+02  1.250000000E+02  0.00000E+00  9.000E+00
      21     1     1     2   512   502  4.017295248E+01  5.940317865E+01  2.395981350E+02  2.500997202E+02  2.697398305E-06  0.00000E+00  9.000E+00
#rwgt            1           1   2.3578324961027582E-002           8      191600           0
</event>
<event>
      5   9999  3.19816E-02  9.37437E+01 -1.00000E+00  1.25103E-01
      21    -1     0     0   502   501  0.000000000E+00  0.000000000E+00  4.493439283E+02  4.493439283E+02  0.000000000E+00  0.00000E+00  9.000E+00
       3    -1     0     0   501     0  0.000000000E+00  0.000000000E+00 -5.448293217E+02  5.448293217E+02  0.000000000E+00  0.00000E+00  9.000E+00
      25     1     1     2     0     0  3.927502830E+02 -1.299468986E+01 -2.133998663E+02  4.643125560E+02  1.250000000E+02  0.00000E+00  9.000E+00
      25     1     1     2     0     0 -3.114130826E+02 -3.361158687E+01  2.109516756E+02  3.977856913E+02  1.250000000E+02  0.00000E+00  9.000E+00
       3     1     1     2   502     0 -8.133720042E+01  4.660627673E+01 -9.303720286E+01  1.320750026E+02  2.697398305E-06  0.00000E+00  9.000E+00
#rwgt            1           1   2.4261718293131306E-002           8      191662           0
</event>
<event>
      5   9999  3.19816E-02  9.11193E+01 -1.00000E+00  1.25672E-01
      21    -1     0     0   511   501  0.000000000E+00  0.000000000E+00  3.389891600E+02  3.389891600E+02  0.000000000E+00  0.00000E+00  9.000E+00
      21    -1     0     0   501   502  0.000000000E+00  0.000000000E+00 -5.303609237E+02  5.303609237E+02  0.000000000E+00  0.00000E+00  9.000E+00
      25     1     1     2     0     0 -3.302473050E+02 -1.847067972E+02 -2.201941326E+02  4.552914884E+02  1.250000000E+02  0.00000E+00  9.000E+00
      25     1     1     2     0     0  2.738558107E+02  1.131335195E+02  1.544320825E+01  3.219622508E+02  1.250000000E+02  0.00000E+00  9.000E+00
      21     1     1     2   511   502  5.639149429E+01  7.157327766E+01  1.337916069E+01  9.209634436E+01  1.617033478E-06  0.00000E+00  9.000E+00
#rwgt            1           1   2.7249084709244763E-002           8      191765           0
</event>
<event>
      5   9999  3.19816E-02  9.69719E+01 -1.00000E+00  1.24432E-01
      21    -1     0     0   502   512  0.000000000E+00  0.000000000E+00  1.322121453E+03  1.322121453E+03  0.000000000E+00  0.00000E+00  9.000E+00
      21    -1     0     0   501   502  0.000000000E+00  0.000000000E+00 -6.258832737E+02  6.258832737E+02  0.000000000E+00  0.00000E+00  9.000E+00
      25     1     1     2     0     0 -5.586974460E+02  5.443817159E+02  7.426627930E+01  7.934952861E+02  1.250000000E+02  0.00000E+00  9.000E+00
      25     1     1     2     0     0  6.556575478E+02 -5.428687015E+02  4.879904639E+02  9.891172529E+02  1.250000000E+02  0.00000E+00  9.000E+00
      21     1     1     2   501   512 -9.696010185E+01 -1.513014431E+00  1.339814360E+02  1.653921877E+02  2.697398305E-06  0.00000E+00  9.000E+00
#rwgt            1           1   3.0504832458124645E-002           8      191809           0
</event>
<event>
      5   9999  3.19816E-02  7.89969E+01 -1.00000E+00  1.28615E-01
      21    -1     0     0   511   501  0.000000000E+00  0.000000000E+00  3.311475575E+02  3.311475575E+02  0.000000000E+00  0.00000E+00  9.000E+00
      21    -1     0     0   501   502  0.000000000E+00  0.000000000E+00 -4.972708432E+02  4.972708432E+02  0.000000000E+00  0.00000E+00  9.000E+00
      25     1     1     2     0     0  7.357267973E+01 -5.435484303E+01  1.530491152E+02  2.177531167E+02  1.250000000E+02  0.00000E+00  9.000E+00
      25     1     1     2     0     0 -6.919682208E+01 -2.452072760E+01 -4.416997145E+02  4.648796663E+02  1.250000000E+02  0.00000E+00  9.000E+00
      21     1     1     2   511   502 -4.375857651E+00  7.887557064E+01  1.225273135E+02  1.457856177E+02  1.348699152E-06  0.00000E+00  9.000E+00
#rwgt            1           1   2.4222913226973310E-002           8      191899           0
</event>
<event>
      5   9999  3.19816E-02  3.39296E+01 -1.00000E+00  1.49417E-01
      21    -1     0     0   502   501  0.000000000E+00  0.000000000E+00  4.764422430E+01  4.764422430E+01  0.000000000E+00  0.00000E+00  9.000E+00
      21    -1     0     0   501   512  0.000000000E+00  0.000000000E+00 -9.323737065E+02  9.323737065E+02  0.000000000E+00  0.00000E+00  9.000E+00
      25     1     1     2     0     0 -1.122291615E+02 -1.115423029E+02 -3.319680880E+02  3.884132869E+02  1.250000000E+02  0.00000E+00  9.000E+00
      25     1     1     2     0     0  9.331505797E+01  8.337357472E+01 -4.675086007E+02  4.998481217E+02  1.250000000E+02  0.00000E+00  9.000E+00
      21     1     1     2   502   512  1.891410354E+01  2.816872820E+01 -8.525279359E+01  9.175652225E+01  9.536743164E-07  0.00000E+00  9.000E+00
#rwgt            1           1   1.9366146996637582E-002           8      192015           0
</event>
<event>
      5   9999  3.19816E-02  2.26776E+01 -1.00000E+00  1.61989E-01
      21    -1     0     0   502   511  0.000000000E+00  0.000000000E+00  2.683922068E+03  2.683922068E+03  0.000000000E+00  0.00000E+00  9.000E+00
      21    -1     0     0   501   502  0.000000000E+00  0.000000000E+00 -1.842229332E+01  1.842229332E+01  0.000000000E+00  0.00000E+00  9.000E+00
      25     1     1     2     0     0 -1.152253921E+01 -1.594400613E+02  1.687412368E+03  1.699570358E+03  1.250000000E+02  0.00000E+00  9.000E+00
      25     1     1     2     0     0 -8.799530698E+00  1.493758254E+02  8.085342894E+02  8.317110472E+02  1.250000000E+02  0.00000E+00  9.000E+00
      21     1     1     2   501   511  2.032206991E+01  1.006423589E+01  1.695531169E+02  1.710629557E+02  2.697398305E-06  0.00000E+00  9.000E+00
#rwgt            1           1   4.1762285147954561E-002           8      192174           0
</event>
<event>
      5   9999  3.19816E-02  1.15255E+02 -1.00000E+00  1.21117E-01
      -5    -1     0     0     0   501  0.000000000E+00  0.000000000E+00  2.227906986E+03  2.227906986E+03  0.000000000E+00  0.00000E+00  9.000E+00
      21    -1     0     0   501   502  0.000000000E+00  0.000000000E+00 -4.081429775E+01  4.081429775E+01  0.000000000E+00  0.00000E+00  9.000E+00
      25     1     1     2     0     0  1.379790236E+02 -5.045174204E+01  3.850643764E+02  4.306775629E+02  1.250000000E+02  0.00000E+00  9.000E+00
      25     1     1     2     0     0 -1.501733183E+02 -6.415625729E+01  6.882585543E+02  7.183264498E+02  1.250000000E+02  0.00000E+00  9.000E+00
      -5     1     1     2     0   502  1.219429470E+01  1.146079993E+02  1.113769758E+03  1.119717271E+03  1.525878906E-05  0.00000E+00  9.000E+00
#rwgt            1           1   2.9660033809654485E-002           8      192295           0
</event>
<event>
      5   9999  3.19816E-02  3.98842E+01 -1.00000E+00  1.44918E-01
      21    -1     0     0   511   501  0.000000000E+00  0.000000000E+00  5.802630339E+02  5.802630339E+02  0.000000000E+00  0.00000E+00  9.000E+00
      21    -1     0     0   501   502  0.000000000E+00  0.000000000E+00 -5.727647685E+02  5.727647685E+02  0.000000000E+00  0.00000E+00  9.000E+00
      25     1     1     2     0     0 -3.338669488E+02  3.758369868E+02  2.272274996E+02  5.656659056E+02  1.250000000E+02  0.00000E+00  9.000E+00
      25     1     1     2     0     0  2.945351964E+02 -3.824525202E+02 -2.251365833E+02  5.471127792E+02  1.250000000E+02  0.00000E+00  9.000E+00
      21     1     1     2   511   502  3.933175249E+01  6.615533378E+00  5.407349058E+00  4.024911750E+01  7.539457465E-07  0.00000E+00  9.000E+00
#rwgt            1           1   3.2944161193995382E-002           8      192374           0
</event>
<event>
      5   9999  3.19816E-02  8.39970E+01 -1.00000E+00  1.27333E-01
      21    -1     0     0   502   501  0.000000000E+00  0.000000000E+00  2.451831262E+03  2.451831262E+03  0.000000000E+00  0.00000E+00  9.000E+00
      21    -1     0     0   501   512  0.000000000E+00  0.000000000E+00 -3.312123447E+02  3.312123447E+02  0.000000000E+00  0.00000E+00  9.000E+00
      25     1     1     2     0     0 -1.688709087E+02  1.316943330E+02  1.134363445E+03  1.161148658E+03  1.250000000E+02  0.00000E+00  9.000E+00
      25     1     1     2     0     0  9.339628484E+01 -9.482873437E+01  1.291991430E+03  1.304830338E+03  1.250000000E+02  0.00000E+00  9.000E+00
      21     1     1     2   502   512  7.547462387E+01 -3.686559861E+01 -3.057359580E+02  3.170646105E+02  8.529922400E-06  0.00000E+00  9.000E+00
#rwgt            1           1   4.7885884662712007E-002           8      192502           0
</event>
<event>
      5   9999  3.19816E-02  9.19107E+01 -1.00000E+00  1.25498E-01
      21    -1     0     0   502   511  0.000000000E+00  0.000000000E+00  1.184892168E+03  1.184892168E+03  0.000000000E+00  0.00000E+00  9.000E+00
      21    -1     0     0   501   502  0.000000000E+00  0.000000000E+00 -1.322919031E+02  1.322919031E+02  0.000000000E+00  0.00000E+00  9.000E+00
      25     1     1     2     0     0 -1.215391556E+02  2.240088736E+02  1.468600355E+02  3.196007069E+02  1.250000000E+02  0.00000E+00  9.000E+00
      25     1     1     2     0     0  2.123668044E+02 -2.099405961E+02  6.575159509E+02  7.328894454E+02  1.250000000E+02  0.00000E+00  9.000E+00
      21     1     1     2   501   511 -9.082764873E+01 -1.406827755E+01  2.482242781E+02  2.646939184E+02  2.697398305E-06  0.00000E+00  9.000E+00
#rwgt            1           1   2.7024963563769735E-002           8      192561           0
</event>
<event>
      5   9999  3.19816E-02  8.41092E+01 -1.00000E+00  1.27305E-01
      21    -1     0     0   502   501  0.000000000E+00  0.000000000E+00  5.645726771E+02  5.645726771E+02  0.000000000E+00  0.00000E+00  9.000E+00
      21    -1     0     0   501   512  0.000000000E+00  0.000000000E+00 -2.166643156E+02  2.166643156E+02  0.000000000E+00  0.00000E+00  9.000E+00
      25     1     1     2     0     0  2.459358142E+02 -1.336200074E+01  2.108805926E+02  3.475033699E+02  1.250000000E+02  0.00000E+00  9.000E+00
      25     1     1     2     0     0 -1.879030161E+02 -4.751947342E+01  2.177293762E+02  3.171698679E+02  1.250000000E+02  0.00000E+00  9.000E+00
      21     1     1     2   502   512 -5.803279811E+01  6.088147416E+01 -8.070160733E+01  1.165637550E+02  1.348699152E-06  0.00000E+00  9.000E+00
#rwgt            1           1   2.6642806323129153E-002           8      192647           0
</event>
<event>
      5   9999  3.19816E-02  2.03663E+02 -1.00000E+00  1.11362E-01
      21    -1     0     0   502   511  0.000000000E+00  0.000000000E+00  2.646289057E+02  2.646289057E+02  0.000000000E+00  0.00000E+00  9.000E+00
      21    -1     0     0   501   502  0.000000000E+00  0.000000000E+00 -5.538117050E+02  5.538117050E+02  0.000000000E+00  0.00000E+00  9.000E+00
      25     1     1     2     0     0 -6.327202630E+01  3.192226981E+02 -4.778216123E+01  3.518730101E+02  1.250000000E+02  0.00000E+00  9.000E+00
      25     1     1     2     0     0  4.543121418E+01 -1.163427837E+02 -1.836911037E+02  2.548863671E+02  1.250000000E+02  0.00000E+00  9.000E+00
      21     1     1     2   501   511  1.784081212E+01 -2.028799144E+02 -5.770953435E+01  2.116812334E+02  3.090257978E-06  0.00000E+00  9.000E+00
#rwgt            2          11   3.4973083947381356E-003           8      192770           0
</event>
<event>
      5   9999  3.19816E-02  2.78758E+01 -1.00000E+00  1.55289E-01
      21    -1     0     0   502   501  0.000000000E+00  0.000000000E+00  3.601382131E+01  3.601382131E+01  0.000000000E+00  0.00000E+00  9.000E+00
      21    -1     0     0   501   512  0.000000000E+00  0.000000000E+00 -1.437080017E+03  1.437080017E+03  0.000000000E+00  0.00000E+00  9.000E+00
      25     1     1     2     0     0 -4.770916776E+01  1.725391807E+02 -5.675678602E+02  6.081152930E+02  1.250000000E+02  0.00000E+00  9.000E+00
      25     1     1     2     0     0  5.868983160E+01 -1.469172309E+02 -6.927437697E+02  7.214901937E+02  1.250000000E+02  0.00000E+00  9.000E+00
      21     1     1     2   502   512 -1.098066384E+01 -2.562194981E+01 -1.407545654E+02  1.434883513E+02  3.303624740E-06  0.00000E+00  9.000E+00
#rwgt            1           1   2.9146308030391494E-002           8      192790           0
</event>
<event>
      5   9999  3.19816E-02  1.06148E+02 -1.00000E+00  1.22674E-01
      21    -1     0     0   511   501  0.000000000E+00  0.000000000E+00  4.321244614E+02  4.321244614E+02  0.000000000E+00  0.00000E+00  9.000E+00
      21    -1     0     0   501   502  0.000000000E+00  0.000000000E+00 -3.467723672E+02  3.467723672E+02  0.000000000E+00  0.00000E+00  9.000E+00
      25     1     1     2     0     0  5.400251280E+01  1.332103721E+02  1.670534335E+02  2.533636207E+02  1.250000000E+02  0.00000E+00  9.000E+00
      25     1     1     2     0     0 -1.227059225E+02 -2.141257560E+02 -2.183986200E+02  3.524621115E+02  1.250000000E+02  0.00000E+00  9.000E+00
      21     1     1     2   511   502  6.870340970E+01  8.091538390E+01  1.366972807E+02  1.730710964E+02  2.697398305E-06  0.00000E+00  9.000E+00
#rwgt            1           1   2.3690579068486033E-002           8      192951           0
</event>
<event>
      5   9999  3.19816E-02  7.88422E+01 -1.00000E+00  1.28657E-01
       3    -1     0     0   502     0  0.000000000E+00  0.000000000E+00  3.751977326E+03  3.751977326E+03  0.000000000E+00  0.00000E+00  9.000E+00
      21    -1     0     0   501   502  0.000000000E+00  0.000000000E+00 -2.601054999E+01  2.601054999E+01  0.000000000E+00  0.00000E+00  9.000E+00
      25     1     1     2     0     0 -7.940801941E+01  2.208161242E+02  1.107138405E+03  1.138615757E+03  1.250000000E+02  0.00000E+00  9.000E+00
      25     1     1     2     0     0  9.579217047E+01 -1.436950996E+02  1.232375588E+03  1.250679420E+03  1.250000000E+02  0.00000E+00  9.000E+00
       3     1     1     2   501     0 -1.638415105E+01 -7.712102461E+01  1.386452783E+03  1.388692699E+03  1.525878906E-05  0.00000E+00  9.000E+00
#rwgt            1           1   6.0902148437142811E-002           8      193019           0
</event>
<event>
      5   9999  3.19816E-02  1.42268E+01 -1.00000E+00  1.79577E-01
      21    -1     0     0   502   501  0.000000000E+00  0.000000000E+00  1.006071599E+03  1.006071599E+03  0.000000000E+00  0.00000E+00  9.000E+00
      21    -1     0     0   501   511  0.000000000E+00  0.000000000E+00 -1.501653043E+02  1.501653043E+02  0.000000000E+00  0.00000E+00  9.000E+00
      25     1     1     2     0     0 -2.221539917E+02 -2.396575212E+02  6.293561526E+02  7.200710314E+02  1.250000000E+02  0.00000E+00  9.000E+00
      25     1     1     2     0     0  2.363466563E+02  2.386729690E+02  2.160255241E+02  4.184693001E+02  1.250000000E+02  0.00000E+00  9.000E+00
      21     1     1     2   502   511 -1.419266454E+01  9.845521448E-01  1.052461822E+01  1.769657194E+01  1.192092896E-07  0.00000E+00  9.000E+00
#rwgt            1           1   2.8084913380023672E-002           8      193089           0
</event>
<event>
      5   9999  3.19816E-02  1.53858E+01 -1.00000E+00  1.76351E-01
      21    -1     0     0   502   501  0.000000000E+00  0.000000000E+00  1.371995280E+03  1.371995280E+03  0.000000000E+00  0.00000E+00  9.000E+00
      21    -1     0     0   512   502  0.000000000E+00  0.000000000E+00 -2.523807071E+02  2.523807071E+02  0.000000000E+00  0.00000E+00  9.000E+00
      25     1     1     2     0     0  2.916444023E+02  2.527944275E+02  7.843512687E+02  8.830591105E+02  1.250000000E+02  0.00000E+00  9.000E+00
      25     1     1     2     0     0 -3.065904168E+02 -2.564468927E+02  4.562732804E+02  6.193327045E+02  1.250000000E+02  0.00000E+00  9.000E+00
      21     1     1     2   512   501  1.494601447E+01  3.652465164E+00 -1.210099763E+02  1.219841720E+02  2.336015456E-06  0.00000E+00  9.000E+00
#rwgt            1           1   2.8296772999345122E-002           8      193278           0
</event>
<event>
      5   9999  3.19816E-02  8.16047E+01 -1.00000E+00  1.27933E-01
      21    -1     0     0   502   511  0.000000000E+00  0.000000000E+00  8.091825955E+02  8.091825955E+02  0.000000000E+00  0.00000E+00  9.000E+00
      21    -1     0     0   501   502  0.000000000E+00  0.000000000E+00 -5.278526935E+02  5.278526935E+02  0.000000000E+00  0.00000E+00  9.000E+00
      25     1     1     2     0     0  5.028842514E+02  2.176987446E+02  9.457631313E+01  5.699605185E+02  1.250000000E+02  0.00000E+00  9.000E+00
      25     1     1     2     0     0 -5.524166908E+02 -1.528461036E+02  2.650256633E+01  5.872422989E+02  1.250000000E+02  0.00000E+00  9.000E+00
      21     1     1     2   501   511  4.953243941E+01 -6.485264102E+01  1.602510225E+02  1.798324715E+02  0.000000000E+00  0.00000E+00  9.000E+00
#rwgt            1           1   2.1909497859087992E-002           8      193487           0
</event>
<event>
      5   9999  3.19816E-02  4.25893E+00 -1.00000E+00  2.57213E-01
      21    -1     0     0   502   501  0.000000000E+00  0.000000000E+00  5.211420224E+02  5.211420224E+02  0.000000000E+00  0.00000E+00  9.000E+00
      21    -1     0     0   501   512  0.000000000E+00  0.000000000E+00 -1.221954385E+03  1.221954385E+03  0.000000000E+00  0.00000E+00  9.000E+00
      25     1     1     2     0     0 -4.138224430E+01 -3.094914083E+02  4.215326499E+02  5.392700593E+02  1.250000000E+02  0.00000E+00  9.000E+00
      25     1     1     2     0     0  3.917729574E+01  3.131351217E+02 -6.664349021E+02  7.478963455E+02  1.250000000E+02  0.00000E+00  9.000E+00
      21     1     1     2   502   512  2.204948562E+00 -3.643713396E+00 -4.559101100E+02  4.559300021E+02  0.000000000E+00  0.00000E+00  9.000E+00
#rwgt            1           1   3.4360976875332641E-002           8      193535           0
</event>
<event>
      5   9999  3.19816E-02  3.64815E+01 -1.00000E+00  1.47365E-01
      21    -1     0     0   502   501  0.000000000E+00  0.000000000E+00  5.954986637E+02  5.954986637E+02  0.000000000E+00  0.00000E+00  9.000E+00
      21    -1     0     0   501   511  0.000000000E+00  0.000000000E+00 -6.147499522E+02  6.147499522E+02  0.000000000E+00  0.00000E+00  9.000E+00
      25     1     1     2     0     0  1.597434465E+02  4.270185894E+02  2.643964960E+02  5.416579654E+02  1.250000000E+02  0.00000E+00  9.000E+00
      25     1     1     2     0     0 -1.234529823E+02 -4.232903559E+02 -8.437220840E+01  4.660032551E+02  1.250000000E+02  0.00000E+00  9.000E+00
      21     1     1     2   502   511 -3.629046420E+01 -3.728233496E+00 -1.992755761E+02  2.025873953E+02  0.000000000E+00  0.00000E+00  9.000E+00
#rwgt            1           1   3.0371192990812337E-002           8      193977           0
</event>
<event>
      5   9999  3.19816E-02  7.00312E+01 -1.00000E+00  1.31211E-01
      21    -1     0     0   502   501  0.000000000E+00  0.000000000E+00  2.007706310E+02  2.007706310E+02  0.000000000E+00  0.00000E+00  9.000E+00
      21    -1     0     0   512   502  0.000000000E+00  0.000000000E+00 -1.410012910E+03  1.410012910E+03  0.000000000E+00  0.00000E+00  9.000E+00
      25     1     1     2     0     0  3.256905792E+02 -3.584430557E+01 -1.122576969E+03  1.176079597E+03  1.250000000E+02  0.00000E+00  9.000E+00
      25     1     1     2     0     0 -2.703499075E+02  7.876021785E+01  1.817849943E+01  3.086222647E+02  1.250000000E+02  0.00000E+00  9.000E+00
      21     1     1     2   512   501 -5.534067166E+01 -4.291591228E+01 -1.048438099E+02  1.260816796E+02  1.348699152E-06  0.00000E+00  9.000E+00
#rwgt            1           1   1.8438100792935855E-002           8      194268           0
</event>
<event>
      5   9999  3.19816E-02  1.89237E+02 -1.00000E+00  1.12530E-01
      21    -1     0     0   502   501  0.000000000E+00  0.000000000E+00  1.990442330E+03  1.990442330E+03  0.000000000E+00  0.00000E+00  9.000E+00
       4    -1     0     0   501     0  0.000000000E+00  0.000000000E+00 -5.366980851E+02  5.366980851E+02  0.000000000E+00  0.00000E+00  9.000E+00
      25     1     1     2     0     0 -4.474277160E+02  5.422996908E+02 -5.268009695E+00  7.140961193E+02  1.250000000E+02  0.00000E+00  9.000E+00
      25     1     1     2     0     0  4.060223218E+02 -7.269511540E+02  1.359811490E+03  1.599382504E+03  1.250000000E+02  0.00000E+00  9.000E+00
       4     1     1     2   502     0  4.140539430E+01  1.846514632E+02  9.920076476E+01  2.136617918E+02  3.303624740E-06  0.00000E+00  9.000E+00
#rwgt            2          15   1.5905528597252799E-005           8      194456           0
</event>
<event>
      5   9999  3.19816E-02  1.13007E+01 -1.00000E+00  1.89812E-01
      21    -1     0     0   502   501  0.000000000E+00  0.000000000E+00  6.829034662E+02  6.829034662E+02  0.000000000E+00  0.00000E+00  9.000E+00
      21    -1     0     0   511   502  0.000000000E+00  0.000000000E+00 -2.201490298E+02  2.201490298E+02  0.000000000E+00  0.00000E+00  9.000E+00
      25     1     1     2     0     0 -1.723696228E+02  2.159617767E+02 -3.629903447E+01  3.054396762E+02  1.250000000E+02  0.00000E+00  9.000E+00
      25     1     1     2     0     0  1.823931224E+02 -2.107429608E+02  5.003675905E+02  5.862359356E+02  1.250000000E+02  0.00000E+00  9.000E+00
      21     1     1     2   511   501 -1.002349961E+01 -5.218815886E+00 -1.314119544E+00  1.137688419E+01  2.070135473E-07  0.00000E+00  9.000E+00
#rwgt            1           1   2.8757500490352163E-002           8      194475           0
</event>
<event>
      5   9999  3.19816E-02  1.09564E+02 -1.00000E+00  1.22070E-01
      21    -1     0     0   502   501  0.000000000E+00  0.000000000E+00  2.261122039E+02  2.261122039E+02  0.000000000E+00  0.00000E+00  9.000E+00
       2    -1     0     0   501     0  0.000000000E+00  0.000000000E+00 -6.871500907E+02  6.871500907E+02  0.000000000E+00  0.00000E+00  9.000E+00
      25     1     1     2     0     0  2.149893176E+02  2.008495124E+02 -4.125593317E+01  3.223165917E+02  1.250000000E+02  0.00000E+00  9.000E+00
      25     1     1     2     0     0 -2.375982772E+02 -9.364382662E+01 -2.073068457E+02  3.518852595E+02  1.250000000E+02  0.00000E+00  9.000E+00
       2     1     1     2   502     0  2.260895959E+01 -1.072056857E+02 -2.124751079E+02  2.390604434E+02  0.000000000E+00  0.00000E+00  9.000E+00
#rwgt            1           1   2.7835172230944318E-002           8      194731           0
</event>
<event>
      5   9999  3.19816E-02  8.76272E+00 -1.00000E+00  2.02630E-01
      21    -1     0     0   502   501  0.000000000E+00  0.000000000E+00  2.413871391E+02  2.413871391E+02  0.000000000E+00  0.00000E+00  9.000E+00
      21    -1     0     0   501   511  0.000000000E+00  0.000000000E+00 -3.636700858E+02  3.636700858E+02  0.000000000E+00  0.00000E+00  9.000E+00
      25     1     1     2     0     0  3.014434433E+01  8.141579617E+01  1.948610582E+02  2.472509764E+02  1.250000000E+02  0.00000E+00  9.000E+00
      25     1     1     2     0     0 -3.629434294E+01 -7.517377402E+01 -3.146284447E+02  3.486895953E+02  1.250000000E+02  0.00000E+00  9.000E+00
      21     1     1     2   502   511  6.149998604E+00 -6.242022155E+00 -2.515560068E+00  9.116653216E+00  1.264405455E-07  0.00000E+00  9.000E+00
#rwgt            1           1   2.7809153962239250E-002           8      194792           0
</event>
<event>
      5   9999  3.19816E-02  2.87778E+01 -1.00000E+00  1.54305E-01
      21    -1     0     0   502   512  0.000000000E+00  0.000000000E+00  6.288628448E+01  6.288628448E+01  0.000000000E+00  0.00000E+00  9.000E+00
      21    -1     0     0   501   502  0.000000000E+00  0.000000000E+00 -7.958106635E+02  7.958106635E+02  0.000000000E+00  0.00000E+00  9.000E+00
      25     1     1     2     0     0  1.315179950E+02 -5.336842835E+01 -4.336671658E+02  4.731145557E+02  1.250000000E+02  0.00000E+00  9.000E+00
      25     1     1     2     0     0 -1.263592212E+02  2.505678192E+01 -3.071395827E+02  3.557445971E+02  1.250000000E+02  0.00000E+00  9.000E+00
      21     1     1     2   501   512 -5.158773773E+00  2.831164642E+01  7.882369476E+00  2.983779514E+01  2.384185791E-07  0.00000E+00  9.000E+00
#rwgt            1           1   2.4422996068236873E-002           8      195028           0
</event>
<event>
      5   9999  3.19816E-02  2.05148E+02 -1.00000E+00  1.11248E-01
      21    -1     0     0   502   501  0.000000000E+00  0.000000000E+00  4.962486989E+02  4.962486989E+02  0.000000000E+00  0.00000E+00  9.000E+00
      21    -1     0     0   501   511  0.000000000E+00  0.000000000E+00 -3.009928621E+02  3.009928621E+02  0.000000000E+00  0.00000E+00  9.000E+00
      25     1     1     2     0     0  1.571615414E+02 -1.238678384E+02  3.581339526E+02  4.288681843E+02  1.250000000E+02  0.00000E+00  9.000E+00
      25     1     1     2     0     0  7.112137891E+00  9.860299702E-01 -5.850456356E+01  1.382003572E+02  1.250000000E+02  0.00000E+00  9.000E+00
      21     1     1     2   502   511 -1.642736793E+02  1.228818084E+02 -1.043735522E+02  2.301730196E+02  3.568322551E-06  0.00000E+00  9.000E+00
#rwgt            1           1   2.6090816620695848E-002           8      195104           0
</event>
<event>
      5   9999  3.19816E-02  1.11693E+01 -1.00000E+00  1.90364E-01
      21    -1     0     0   502   512  0.000000000E+00  0.000000000E+00  9.985487059E+01  9.985487059E+01  0.000000000E+00  0.00000E+00  9.000E+00
      21    -1     0     0   501   502  0.000000000E+00  0.000000000E+00 -1.048444996E+03  1.048444996E+03  0.000000000E+00  0.00000E+00  9.000E+00
      25     1     1     2     0     0  5.287724919E+01  2.534157940E+02 -6.333693411E+02  6.955553827E+02  1.250000000E+02  0.00000E+00  9.000E+00
      25     1     1     2     0     0 -4.588772065E+01 -2.621278392E+02 -3.247455238E+02  4.380654543E+02  1.250000000E+02  0.00000E+00  9.000E+00
      21     1     1     2   501   512 -6.989528541E+00  8.712045209E+00  9.524739649E+00  1.467902947E+01  3.153981341E-07  0.00000E+00  9.000E+00
#rwgt            1           1   2.6885322934854197E-002           8      195175           0
</event>
<event>
      5   9999  3.19816E-02  2.71795E+01 -1.00000E+00  1.56079E-01
      21    -1     0     0   502   501  0.000000000E+00  0.000000000E+00  1.633219160E+02  1.633219160E+02  0.000000000E+00  0.00000E+00  9.000E+00
      21    -1     0     0   501   511  0.000000000E+00  0.000000000E+00 -5.970394249E+02  5.970394249E+02  0.000000000E+00  0.00000E+00  9.000E+00
      25     1     1     2     0     0  1.326127357E+02 -1.572872387E+02 -2.527183550E+02  3.490228933E+02  1.250000000E+02  0.00000E+00  9.000E+00
      25     1     1     2     0     0 -1.054645427E+02  1.585917306E+02  5.012165012E-01  2.278143059E+02  1.250000000E+02  0.00000E+00  9.000E+00
      21     1     1     2   502   511 -2.714819297E+01 -1.304491906E+00 -1.815003704E+02  1.835241416E+02  2.697398305E-06  0.00000E+00  9.000E+00
#rwgt            1           1   2.8473247130199251E-002           8      195390           0
</event>
<event>
      5   9999  3.19816E-02  2.38398E+01 -1.00000E+00  1.60312E-01
      21    -1     0     0   502   512  0.000000000E+00  0.000000000E+00  1.035273277E+03  1.035273277E+03  0.000000000E+00  0.00000E+00  9.000E+00
      21    -1     0     0   501   502  0.000000000E+00  0.000000000E+00 -5.592219134E+02  5.592219134E+02  0.000000000E+00  0.00000E+00  9.000E+00
      25     1     1     2     0     0 -1.497674884E+02  2.182165850E+02  9.297705285E+02  9.747548483E+02  1.250000000E+02  0.00000E+00  9.000E+00
      25     1     1     2     0     0  1.270733984E+02 -2.255183270E+02 -4.948020975E+02  5.722414526E+02  1.250000000E+02  0.00000E+00  9.000E+00
      21     1     1     2   501   512  2.269409003E+01  7.301741981E+00  4.108293233E+01  4.749888933E+01  4.768371582E-07  0.00000E+00  9.000E+00
#rwgt            1           1   3.3449864064217037E-002           8      195518           0
</event>
<event>
      5   9999  3.19816E-02  4.14685E+01 -1.00000E+00  1.43876E-01
      21    -1     0     0   502   501  0.000000000E+00  0.000000000E+00  9.303201767E+02  9.303201767E+02  0.000000000E+00  0.00000E+00  9.000E+00
      21    -1     0     0   501   511  0.000000000E+00  0.000000000E+00 -8.058956440E+01  8.058956440E+01  0.000000000E+00  0.00000E+00  9.000E+00
      25     1     1     2     0     0 -8.224147233E+01  1.102942486E+02  4.873485767E+02  5.215957403E+02  1.250000000E+02  0.00000E+00  9.000E+00
      25     1     1     2     0     0  1.219907637E+02 -1.221107266E+02  3.864858197E+02  4.413491416E+02  1.250000000E+02  0.00000E+00  9.000E+00
      21     1     1     2   502   511 -3.974929133E+01  1.181647806E+01 -2.410378410E+01  4.796485925E+01  8.920806376E-07  0.00000E+00  9.000E+00
#rwgt            1           1   2.8071515261533564E-002           8      195671           0
</event>
<event>
      5   9999  3.19816E-02  1.05252E+02 -1.00000E+00  1.22836E-01
      21    -1     0     0   502   501  0.000000000E+00  0.000000000E+00  5.438833092E+01  5.438833092E+01  0.000000000E+00  0.00000E+00  9.000E+00
       2    -1     0     0   501     0  0.000000000E+00  0.000000000E+00 -3.807571095E+03  3.807571095E+03  0.000000000E+00  0.00000E+00  9.000E+00
      25     1     1     2     0     0 -3.539985964E+01 -3.631042885E+02 -1.669977829E+03  1.713927894E+03  1.250000000E+02  0.00000E+00  9.000E+00
      25     1     1     2     0     0  1.400893028E+02  3.739739858E+02 -1.656268029E+03  1.708312132E+03  1.250000000E+02  0.00000E+00  9.000E+00
       2     1     1     2   502     0 -1.046894432E+02 -1.086969729E+01 -4.269369054E+02  4.397194004E+02  5.394796609E-06  0.00000E+00  9.000E+00
#rwgt            1           1   3.1164605836494028E-002           8      195781           0
</event>
<event>
      5   9999  3.19816E-02  7.79846E+00 -1.00000E+00  2.09130E-01
      21    -1     0     0   511   501  0.000000000E+00  0.000000000E+00  4.108284271E+01  4.108284271E+01  0.000000000E+00  0.00000E+00  9.000E+00
      21    -1     0     0   501   502  0.000000000E+00  0.000000000E+00 -1.105684159E+03  1.105684159E+03  0.000000000E+00  0.00000E+00  9.000E+00
      25     1     1     2     0     0  5.999214024E+01  8.882053430E+01 -1.965072539E+02  2.563752037E+02  1.250000000E+02  0.00000E+00  9.000E+00
      25     1     1     2     0     0 -5.874434735E+01 -8.112254613E+01 -8.679351199E+02  8.825917166E+02  1.250000000E+02  0.00000E+00  9.000E+00
      21     1     1     2   511   502 -1.247792888E+00 -7.697988172E+00 -1.589425067E-01  7.800081519E+00  1.247833239E-07  0.00000E+00  9.000E+00
#rwgt            1           1   3.8936483113944965E-002           8      195848           0
</event>
<event>
      5   9999  3.19816E-02  1.37866E+02 -1.00000E+00  1.17864E-01
      21    -1     0     0   502   512  0.000000000E+00  0.000000000E+00  5.856506370E+02  5.856506370E+02  0.000000000E+00  0.00000E+00  9.000E+00
      21    -1     0     0   501   502  0.000000000E+00  0.000000000E+00 -5.280596026E+02  5.280596026E+02  0.000000000E+00  0.00000E+00  9.000E+00
      25     1     1     2     0     0 -1.497448297E+02 -2.479825739E+02  4.233447972E+02  5.279817121E+02  1.250000000E+02  0.00000E+00  9.000E+00
      25     1     1     2     0     0  1.630419023E+02  1.107598005E+02 -3.812238270E+02  4.469977647E+02  1.250000000E+02  0.00000E+00  9.000E+00
      21     1     1     2   501   512 -1.329707266E+01  1.372227734E+02  1.547006420E+01  1.387307629E+02  2.001864388E-06  0.00000E+00  9.000E+00
#rwgt            2          11   5.4611096117244094E-003           8      196040           0
</event>
<event>
      5   9999  3.19816E-02  6.89927E+01 -1.00000E+00  1.31540E-01
      21    -1     0     0   511   501  0.000000000E+00  0.000000000E+00  1.075500180E+03  1.075500180E+03  0.000000000E+00  0.00000E+00  9.000E+00
      21    -1     0     0   501   502  0.000000000E+00  0.000000000E+00 -4.813302198E+02  4.813302198E+02  0.000000000E+00  0.00000E+00  9.000E+00
      25     1     1     2     0     0  5.655077141E+02  1.679746832E+02  5.818221598E+02  8.379477875E+02  1.250000000E+02  0.00000E+00  9.000E+00
      25     1     1     2     0     0 -5.365142863E+02 -2.305796076E+02 -8.115407742E+01  6.026819386E+02  1.250000000E+02  0.00000E+00  9.000E+00
      21     1     1     2   511   502 -2.899342778E+01  6.260492442E+01  9.350187759E+01  1.162006735E+02  1.348699152E-06  0.00000E+00  9.000E+00
#rwgt            1           1   2.8575456027934265E-002           8      196090           0
</event>
<event>
      5   9999  3.19816E-02  4.58942E+01 -1.00000E+00  1.41232E-01
      21    -1     0     0   502   512  0.000000000E+00  0.000000000E+00  2.392459262E+02  2.392459262E+02  0.000000000E+00  0.00000E+00  9.000E+00
      21    -1     0     0   501   502  0.000000000E+00  0.000000000E+00 -3.728732340E+02  3.728732340E+02  0.000000000E+00  0.00000E+00  9.000E+00
      25     1     1     2     0     0  9.210583078E+01  2.297110487E+02 -8.634171108E+01  2.903972125E+02  1.250000000E+02  0.00000E+00  9.000E+00
      25     1     1     2     0     0 -4.660595706E+01 -2.357143430E+02 -5.126174335E+01  2.756558235E+02  1.250000000E+02  0.00000E+00  9.000E+00
      21     1     1     2   501   512 -4.549987372E+01  6.003294233E+00  3.976146585E+00  4.606612412E+01  4.256623047E-07  0.00000E+00  9.000E+00
#rwgt            1           1   2.7394321210052978E-002           8      196212           0
</event>
<event>
      5   9999  3.19816E-02  8.06228E+01 -1.00000E+00  1.28187E-01
      21    -1     0     0   511   501  0.000000000E+00  0.000000000E+00  2.787881181E+02  2.787881181E+02  0.000000000E+00  0.00000E+00  9.000E+00
      21    -1     0     0   501   502  0.000000000E+00  0.000000000E+00 -1.734822220E+03  1.734822220E+03  0.000000000E+00  0.00000E+00  9.000E+00
      25     1     1     2     0     0 -9.476790477E+01  4.811557393E+02 -1.384512930E+03  1.474107477E+03  1.250000000E+02  0.00000E+00  9.000E+00
      25     1     1     2     0     0  1.266705431E+02 -4.071134284E+02 -2.193458410E+01  4.448515439E+02  1.250000000E+02  0.00000E+00  9.000E+00
      21     1     1     2   511   502 -3.190263833E+01 -7.404231081E+01 -4.958658811E+01  9.465131718E+01  6.743495762E-07  0.00000E+00  9.000E+00
#rwgt            1           1   3.4033838928885563E-002           8      196291           0
</event>
<event>
      5   9999  3.19816E-02  3.89393E+01 -1.00000E+00  1.45568E-01
      21    -1     0     0   502   501  0.000000000E+00  0.000000000E+00  4.921724439E+02  4.921724439E+02  0.000000000E+00  0.00000E+00  9.000E+00
      21    -1     0     0   512   502  0.000000000E+00  0.000000000E+00 -7.078916781E+02  7.078916781E+02  0.000000000E+00  0.00000E+00  9.000E+00
      25     1     1     2     0     0  3.903598429E+02  1.916301103E+02 -1.140402114E+01  4.526123704E+02  1.250000000E+02  0.00000E+00  9.000E+00
      25     1     1     2     0     0 -3.773642325E+02 -2.283368056E+02  7.578227686E+01  4.646605366E+02  1.250000000E+02  0.00000E+00  9.000E+00
      21     1     1     2   512   501 -1.299561038E+01  3.670669535E+01 -2.800974900E+02  2.827912150E+02  3.814697266E-06  0.00000E+00  9.000E+00
#rwgt            1           1   2.5165651693077305E-002           8      196373           0
</event>
<event>
      5   9999  3.19816E-02  5.61247E+01 -1.00000E+00  1.36271E-01
      21    -1     0     0   502   501  0.000000000E+00  0.000000000E+00  5.696663015E+02  5.696663015E+02  0.000000000E+00  0.00000E+00  9.000E+00
      21    -1     0     0   511   502  0.000000000E+00  0.000000000E+00 -8.852671328E+02  8.852671328E+02  0.000000000E+00  0.00000E+00  9.000E+00
      25     1     1     2     0     0 -1.787545229E+02 -5.660988254E+02 -3.048199066E+02  6.789412604E+02  1.250000000E+02  0.00000E+00  9.000E+00
      25     1     1     2     0     0  2.136711773E+02  5.221578897E+02  1.572138426E+02  5.988701246E+02  1.250000000E+02  0.00000E+00  9.000E+00
      21     1     1     2   511   501 -3.491665438E+01  4.394093563E+01 -1.679947672E+02  1.771220494E+02  1.907348633E-06  0.00000E+00  9.000E+00
#rwgt            1           1   2.7889614160609082E-002           8      196465           0
</event>
<event>
      5   9999  3.19816E-02  2.77998E+01 -1.00000E+00  1.55374E-01
      21    -1     0     0   502   501  0.000000000E+00  0.000000000E+00  5.805527427E+02  5.805527427E+02  0.000000000E+00  0.00000E+00  9.000E+00
      21    -1     0     0   512   502  0.000000000E+00  0.000000000E+00 -1.601530043E+02  1.601530043E+02  0.000000000E+00  0.00000E+00  9.000E+00
      25     1     1     2     0     0 -1.831792651E+02 -1.422633418E+02  3.159490816E+02  4.113907191E+02  1.250000000E+02  0.00000E+00  9.000E+00
      25     1     1     2     0     0  2.109191070E+02  1.440879268E+02  9.241023218E+01  2.990198177E+02  1.250000000E+02  0.00000E+00  9.000E+00
      21     1     1     2   512   501 -2.773984186E+01 -1.824585020E+00  1.204042466E+01  3.029521023E+01  0.000000000E+00  0.00000E+00  9.000E+00
#rwgt            1           1   3.2217102911843890E-002           8      196565           0
</event>
<event>
      5   9999  3.19816E-02  2.65049E+02 -1.00000E+00  1.07370E-01
       2    -1     0     0   502     0  0.000000000E+00  0.000000000E+00  1.003409800E+03  1.003409800E+03  0.000000000E+00  0.00000E+00  9.000E+00
      21    -1     0     0   501   502  0.000000000E+00  0.000000000E+00 -2.975408578E+02  2.975408578E+02  0.000000000E+00  0.00000E+00  9.000E+00
      25     1     1     2     0     0 -5.088097057E+01 -1.893723219E+02 -3.084787541E+01  2.345790717E+02  1.250000000E+02  0.00000E+00  9.000E+00
      25     1     1     2     0     0  2.596129384E+02  3.527182585E+02  2.695025922E+02  5.292123344E+02  1.250000000E+02  0.00000E+00  9.000E+00
       2     1     1     2   501     0 -2.087319678E+02 -1.633459366E+02  4.672142252E+02  5.371592516E+02  9.344061824E-06  0.00000E+00  9.000E+00
#rwgt            2          18   8.4328277818251137E-004           8      196751           0
</event>
<event>
      5   9999  3.19816E-02  1.54362E+02 -1.00000E+00  1.15902E-01
      21    -1     0     0   502   511  0.000000000E+00  0.000000000E+00  2.448227391E+03  2.448227391E+03  0.000000000E+00  0.00000E+00  9.000E+00
      21    -1     0     0   501   502  0.000000000E+00  0.000000000E+00 -1.719121341E+02  1.719121341E+02  0.000000000E+00  0.00000E+00  9.000E+00
      25     1     1     2     0     0  5.939357035E+01 -2.165726038E+02  3.156543321E+02  4.070552129E+02  1.250000000E+02  0.00000E+00  9.000E+00
      25     1     1     2     0     0 -1.462820943E+02  8.898713227E+01 -3.204908505E+01  2.144045351E+02  1.250000000E+02  0.00000E+00  9.000E+00
      21     1     1     2   501   511  8.688852398E+01  1.275854715E+02  1.992710009E+03  1.998679777E+03  0.000000000E+00  0.00000E+00  9.000E+00
#rwgt            1           1   2.7239857320528776E-002           8      196770           0
</event>
<event>
      5   9999  3.19816E-02  3.48567E+01 -1.00000E+00  1.48647E-01
       1    -1     0     0   502     0  0.000000000E+00  0.000000000E+00  4.125004599E+03  4.125004599E+03  0.000000000E+00  0.00000E+00  9.000E+00
      21    -1     0     0   501   502  0.000000000E+00  0.000000000E+00 -8.651808869E+01  8.651808869E+01  0.000000000E+00  0.00000E+00  9.000E+00
      25     1     1     2     0     0  4.560626036E+01 -3.676818093E+02  2.452336209E+03  2.483313860E+03  1.250000000E+02  0.00000E+00  9.000E+00
      25     1     1     2     0     0 -1.109733750E+01  3.725933997E+02  4.753966696E+02  6.169084097E+02  1.250000000E+02  0.00000E+00  9.000E+00
       1     1     1     2   501     0 -3.450892285E+01 -4.911590425E+00  1.110753632E+03  1.111300418E+03  2.642899792E-05  0.00000E+00  9.000E+00
#rwgt            1           1   4.2772364494736564E-002           8      196804           0
</event>
<event>
      5   9999  3.19816E-02  1.78977E+01 -1.00000E+00  1.70450E-01
      21    -1     0     0   511   501  0.000000000E+00  0.000000000E+00  1.447816116E+02  1.447816116E+02  0.000000000E+00  0.00000E+00  9.000E+00
      21    -1     0     0   501   502  0.000000000E+00  0.000000000E+00 -7.562437407E+02  7.562437407E+02  0.000000000E+00  0.00000E+00  9.000E+00
      25     1     1     2     0     0  6.059285054E+01 -1.277380420E+02 -6.358254511E+02  6.632401565E+02  1.250000000E+02  0.00000E+00  9.000E+00
      25     1     1     2     0     0 -6.135037169E+01  1.456196917E+02 -7.081287129E+00  2.016038376E+02  1.250000000E+02  0.00000E+00  9.000E+00
      21     1     1     2   511   502  7.575211519E-01 -1.788164963E+01  3.144460920E+01  3.618135817E+01  0.000000000E+00  0.00000E+00  9.000E+00
#rwgt            1           1   2.9459320185529676E-002           8      196963           0
</event>
<event>
      5   9999  3.19816E-02  1.62312E+02 -1.00000E+00  1.15052E-01
      21    -1     0     0   502   512  0.000000000E+00  0.000000000E+00  3.449594675E+02  3.449594675E+02  0.000000000E+00  0.00000E+00  9.000E+00
      21    -1     0     0   501   502  0.000000000E+00  0.000000000E+00 -4.474048857E+02  4.474048857E+02  0.000000000E+00  0.00000E+00  9.000E+00
      25     1     1     2     0     0  1.036380833E+02 -1.053325294E+02  1.004616288E+02  2.180672670E+02  1.250000000E+02  0.00000E+00  9.000E+00
      25     1     1     2     0     0 -2.654241741E+02  9.228186643E+01 -2.594954297E+02  4.024037936E+02  1.250000000E+02  0.00000E+00  9.000E+00
      21     1     1     2   501   512  1.617860908E+02  1.305066295E+01  5.658838261E+01  1.718932926E+02  1.348699152E-06  0.00000E+00  9.000E+00
#rwgt            1           1   2.7592015096085519E-002           8      197145           0
</event>
<event>
      5   9999  3.19816E-02  1.86534E+01 -1.00000E+00  1.68906E-01
      21    -1     0     0   502   511  0.000000000E+00  0.000000000E+00  3.635777103E+02  3.635777103E+02  0.000000000E+00  0.00000E+00  9.000E+00
      21    -1     0     0   501   502  0.000000000E+00  0.000000000E+00 -1.138364915E+02  1.138364915E+02  0.000000000E+00  0.00000E+00  9.000E+00
      25     1     1     2     0     0  1.971321080E+01  4.536256649E+01 -3.732623104E+01  1.395156645E+02  1.250000000E+02  0.00000E+00  9.000E+00
      25     1     1     2     0     0 -3.791692124E+01 -4.943359862E+01  1.731183926E+02  2.224328021E+02  1.250000000E+02  0.00000E+00  9.000E+00
      21     1     1     2   501   511  1.820371045E+01  4.071032128E+00  1.139490573E+02  1.154657353E+02  1.907348633E-06  0.00000E+00  9.000E+00
#rwgt            1           1   2.6257143531129221E-002           8      197231           0
</event>
<event>
      5   9999  3.19816E-02  3.31907E+01 -1.00000E+00  1.50052E-01
       2    -1     0     0   502     0  0.000000000E+00  0.000000000E+00  7.423368707E+02  7.423368707E+02  0.000000000E+00  0.00000E+00  9.000E+00
      21    -1     0     0   501   502  0.000000000E+00  0.000000000E+00 -1.765056512E+03  1.765056512E+03  0.000000000E+00  0.00000E+00  9.000E+00
      25     1     1     2     0     0 -4.691747271E+02 -5.615238121E+01 -1.196708518E+03  1.292677180E+03  1.250000000E+02  0.00000E+00  9.000E+00
      25     1     1     2     0     0  5.005989054E+02  6.683633547E+01 -3.897042700E+02  6.500467505E+02  1.250000000E+02  0.00000E+00  9.000E+00
       2     1     1     2   501     0 -3.142417833E+01 -1.068395426E+01  5.636931471E+02  5.646694519E+02  7.629394531E-06  0.00000E+00  9.000E+00
#rwgt            1           1   2.8859455456612778E-002           8      197397           0
</event>
<event>
      5   9999  3.19816E-02  7.22490E+01 -1.00000E+00  1.30529E-01
       1    -1     0     0   502     0  0.000000000E+00  0.000000000E+00  1.546433276E+03  1.546433276E+03  0.000000000E+00  0.00000E+00  9.000E+00
      21    -1     0     0   501   502  0.000000000E+00  0.000000000E+00 -8.478988656E+02  8.478988656E+02  0.000000000E+00  0.00000E+00  9.000E+00
      25     1     1     2     0     0 -7.849540324E+02  2.960154358E+02 -2.128186874E+02  8.744682756E+02  1.250000000E+02  0.00000E+00  9.000E+00
      25     1     1     2     0     0  7.162098675E+02 -3.182451286E+02  2.183806228E+02  8.231352456E+02  1.250000000E+02  0.00000E+00  9.000E+00
       1     1     1     2   501     0  6.874416496E+01  2.222969281E+01  6.929724747E+02  6.967286202E+02  1.078959322E-05  0.00000E+00  9.000E+00
#rwgt            1           1   2.1869806113227700E-002           8      197553           0
</event>
<event>
      5   9999  3.19816E-02  1.95719E+02 -1.00000E+00  1.11991E-01
      21    -1     0     0   502   511  0.000000000E+00  0.000000000E+00  9.793952094E+02  9.793952094E+02  0.000000000E+00  0.00000E+00  9.000E+00
      21    -1     0     0   501   502  0.000000000E+00  0.000000000E+00 -5.688225338E+02  5.688225338E+02  0.000000000E+00  0.00000E+00  9.000E+00
      25     1     1     2     0     0 -1.325225600E+01  4.104359044E+01  5.868072146E+02  6.015213261E+02  1.250000000E+02  0.00000E+00  9.000E+00
      25     1     1     2     0     0  6.750280019E+01 -2.290939331E+02 -5.001925695E+02  5.682061815E+02  1.250000000E+02  0.00000E+00  9.000E+00
      21     1     1     2   501   511 -5.425054420E+01  1.880503426E+02  3.239580304E+02  3.784902355E+02  3.814697266E-06  0.00000E+00  9.000E+00
#rwgt            1           1   3.2994062094275321E-002           8      197698           0
</event>
<event>
      5   9999  3.19816E-02  1.29266E+02 -1.00000E+00  1.19013E-01
      21    -1     0     0   502   501  0.000000000E+00  0.000000000E+00  6.740601523E+02  6.740601523E+02  0.000000000E+00  0.00000E+00  9.000E+00
       2    -1     0     0   501     0  0.000000000E+00  0.000000000E+00 -2.613960370E+03  2.613960370E+03  0.000000000E+00  0.00000E+00  9.000E+00
      25     1     1     2     0     0 -1.266985181E+02  6.495399700E+01 -8.000428395E+02  8.221709562E+02  1.250000000E+02  0.00000E+00  9.000E+00
      25     1     1     2     0     0  2.540988207E+02 -8.683421750E+01  6.274359023E+02  6.938351415E+02  1.250000000E+02  0.00000E+00  9.000E+00
       2     1     1     2   502     0 -1.274003026E+02  2.188022050E+01 -1.767293281E+03  1.772014425E+03  2.157918644E-05  0.00000E+00  9.000E+00
#rwgt            2          13   5.1478055376623904E-003           8      197882           0
</event>
<event>
      5   9999  3.19816E-02  4.63545E+01 -1.00000E+00  1.40978E-01
      21    -1     0     0   511   501  0.000000000E+00  0.000000000E+00  2.982622094E+02  2.982622094E+02  0.000000000E+00  0.00000E+00  9.000E+00
      21    -1     0     0   501   502  0.000000000E+00  0.000000000E+00 -2.356133113E+02  2.356133113E+02  0.000000000E+00  0.00000E+00  9.000E+00
      25     1     1     2     0     0  1.636459887E+02 -5.814927737E+01 -5.541754441E+01  2.210372193E+02  1.250000000E+02  0.00000E+00  9.000E+00
      25     1     1     2     0     0 -1.829132255E+02  1.003098953E+02  9.539454336E+01  2.612363720E+02  1.250000000E+02  0.00000E+00  9.000E+00
      21     1     1     2   511   502  1.926723676E+01 -4.216061795E+01  2.267189912E+01  5.160192950E+01  3.371747881E-07  0.00000E+00  9.000E+00
#rwgt            1           1   2.7169490354607702E-002           8      197901           0
</event>
<event>
      5   9999  3.19816E-02  2.21404E+02 -1.00000E+00  1.10064E-01
      21    -1     0     0   502   501  0.000000000E+00  0.000000000E+00  2.776279107E+02  2.776279107E+02  0.000000000E+00  0.00000E+00  9.000E+00
      21    -1     0     0   512   502  0.000000000E+00  0.000000000E+00 -3.448487806E+02  3.448487806E+02  0.000000000E+00  0.00000E+00  9.000E+00
      25     1     1     2     0     0 -1.154371667E+02  1.534805147E+01 -1.519887815E+01  1.715147458E+02  1.250000000E+02  0.00000E+00  9.000E+00
      25     1     1     2     0     0 -9.504806195E+01 -8.401830687E+01  7.775152180E+01  1.943283539E+02  1.250000000E+02  0.00000E+00  9.000E+00
      21     1     1     2   512   501  2.104852287E+02  6.867025540E+01 -1.297735135E+02  2.566335915E+02  3.814697266E-06  0.00000E+00  9.000E+00
#rwgt            2          11   2.1556961376220495E-003           8      198056           0
</event>
<event>
      5   9999  3.19816E-02  2.98926E+02 -1.00000E+00  1.05643E-01
      21    -1     0     0   511   501  0.000000000E+00  0.000000000E+00  4.965091373E+02  4.965091373E+02  0.000000000E+00  0.00000E+00  9.000E+00
      21    -1     0     0   501   502  0.000000000E+00  0.000000000E+00 -1.515716498E+03  1.515716498E+03  0.000000000E+00  0.00000E+00  9.000E+00
      25     1     1     2     0     0  3.339416476E+02 -7.282563338E+02 -4.245026138E+02  9.152604989E+02  1.250000000E+02  0.00000E+00  9.000E+00
      25     1     1     2     0     0 -1.216665048E+02  5.177901147E+02 -5.812477707E+02  7.977363676E+02  1.250000000E+02  0.00000E+00  9.000E+00
      21     1     1     2   511   502 -2.122751428E+02  2.104662191E+02 -1.345697571E+01  2.992287684E+02  3.840685771E-06  0.00000E+00  9.000E+00
#rwgt            1           1   1.9482799246573698E-002           8      198076           0
</event>
<event>
      5   9999  3.19816E-02  4.32177E+01 -1.00000E+00  1.42787E-01
      21    -1     0     0   502   501  0.000000000E+00  0.000000000E+00  2.737513040E+02  2.737513040E+02  0.000000000E+00  0.00000E+00  9.000E+00
      21    -1     0     0   512   502  0.000000000E+00  0.000000000E+00 -4.537731475E+02  4.537731475E+02  0.000000000E+00  0.00000E+00  9.000E+00
      25     1     1     2     0     0 -3.727040612E+01 -1.143535060E+02 -3.340041846E+02  3.763636577E+02  1.250000000E+02  0.00000E+00  9.000E+00
      25     1     1     2     0     0  5.176345407E+01  7.363838292E+01  2.222213296E+02  2.703874737E+02  1.250000000E+02  0.00000E+00  9.000E+00
      21     1     1     2   512   501 -1.449304794E+01  4.071512305E+01 -6.823898846E+01  8.077332004E+01  0.000000000E+00  0.00000E+00  9.000E+00
#rwgt            1           1   2.8862757977093499E-002           8      198140           0
</event>
<event>
      5   9999  3.19816E-02  3.15572E+02 -1.00000E+00  1.04883E-01
      21    -1     0     0   502   501  0.000000000E+00  0.000000000E+00  5.509208639E+02  5.509208639E+02  0.000000000E+00  0.00000E+00  9.000E+00
      21    -1     0     0   501   511  0.000000000E+00  0.000000000E+00 -1.598343775E+03  1.598343775E+03  0.000000000E+00  0.00000E+00  9.000E+00
      25     1     1     2     0     0 -2.044457741E+02  4.015727417E+02  3.152361145E+02  5.639659115E+02  1.250000000E+02  0.00000E+00  9.000E+00
      25     1     1     2     0     0 -1.048790714E+02 -4.640518473E+02 -7.663934459E+02  9.106742834E+02  1.250000000E+02  0.00000E+00  9.000E+00
      21     1     1     2   502   511  3.093248456E+02  6.247910554E+01 -5.962655794E+02  6.746244436E+02  7.629394531E-06  0.00000E+00  9.000E+00
#rwgt            1           1   3.4283440054131364E-002           8      198217           0
</event>
<event>
      5   9999  3.19816E-02  4.05636E+01 -1.00000E+00  1.44464E-01
      21    -1     0     0   502   501  0.000000000E+00  0.000000000E+00  2.910954210E+02  2.910954210E+02  0.000000000E+00  0.00000E+00  9.000E+00
      21    -1     0     0   501   512  0.000000000E+00  0.000000000E+00 -2.267220102E+02  2.267220102E+02  0.000000000E+00  0.00000E+00  9.000E+00
      25     1     1     2     0     0 -9.384924130E+01  6.514107747E+00  9.195900583E+01  1.814705829E+02  1.250000000E+02  0.00000E+00  9.000E+00
      25     1     1     2     0     0  9.814200932E+01  3.382175105E+01  1.078157439E+02  1.949999986E+02  1.250000000E+02  0.00000E+00  9.000E+00
      21     1     1     2   502   512 -4.292768021E+00 -4.033585880E+01 -1.354013389E+02  1.413468498E+02  0.000000000E+00  0.00000E+00  9.000E+00
#rwgt            1           1   8.1610478346268320E-002           8      198287           0
</event>
<event>
      5   9999  3.19816E-02  1.77227E+02 -1.00000E+00  1.13593E-01
      21    -1     0     0   502   501  0.000000000E+00  0.000000000E+00  3.123865276E+02  3.123865276E+02  0.000000000E+00  0.00000E+00  9.000E+00
      21    -1     0     0   511   502  0.000000000E+00  0.000000000E+00 -2.138396940E+03  2.138396940E+03  0.000000000E+00  0.00000E+00  9.000E+00
      25     1     1     2     0     0 -2.451930082E+02  7.024766380E+02 -4.703495362E+02  8.890707084E+02  1.250000000E+02  0.00000E+00  9.000E+00
      25     1     1     2     0     0  1.284566314E+02 -5.691274212E+02 -1.083526638E+03  1.236956791E+03  1.250000000E+02  0.00000E+00  9.000E+00
      21     1     1     2   511   501  1.167363768E+02 -1.333492168E+02 -2.721342387E+02  3.247559687E+02  0.000000000E+00  0.00000E+00  9.000E+00
#rwgt            1           1   2.7484104765298879E-002           8      198389           0
</event>
<event>
      5   9999  3.19816E-02  4.27448E+01 -1.00000E+00  1.43075E-01
      21    -1     0     0   502   512  0.000000000E+00  0.000000000E+00  1.807649008E+01  1.807649008E+01  0.000000000E+00  0.00000E+00  9.000E+00
      21    -1     0     0   501   502  0.000000000E+00  0.000000000E+00 -3.660225492E+03  3.660225492E+03  0.000000000E+00  0.00000E+00  9.000E+00
      25     1     1     2     0     0  5.160063754E-01 -9.112430573E+01 -2.925663237E+03  2.929749867E+03  1.250000000E+02  0.00000E+00  9.000E+00
      25     1     1     2     0     0  4.217674218E+01  9.323310793E+01 -4.387139858E+02  4.675106965E+02  1.250000000E+02  0.00000E+00  9.000E+00
      21     1     1     2   501   512 -4.269274855E+01 -2.108802204E+00 -2.777717788E+02  2.810414185E+02  3.814697266E-06  0.00000E+00  9.000E+00
#rwgt            1           1   1.4495911095716825E-002           8      198479           0
</event>
<event>
      5   9999  3.19816E-02  1.32576E+01 -1.00000E+00  1.82589E-01
      21    -1     0     0   502   501  0.000000000E+00  0.000000000E+00  6.552584713E+02  6.552584713E+02  0.000000000E+00  0.00000E+00  9.000E+00
      21    -1     0     0   511   502  0.000000000E+00  0.000000000E+00 -5.726257860E+01  5.726257860E+01  0.000000000E+00  0.00000E+00  9.000E+00
      25     1     1     2     0     0  7.384116493E+01 -7.944284167E+01  4.181171467E+02  4.496783640E+02  1.250000000E+02  0.00000E+00  9.000E+00
      25     1     1     2     0     0 -6.652058689E+01  6.838970155E+01  1.896582595E+02  2.463684135E+02  1.250000000E+02  0.00000E+00  9.000E+00
      21     1     1     2   511   501 -7.320578037E+00  1.105314011E+01 -9.779513441E+00  1.647427244E+01  3.769728732E-07  0.00000E+00  9.000E+00
#rwgt            1           1   3.1678511683670196E-002           8      198547           0
</event>
<event>
      5   9999  3.19816E-02  1.04488E+02 -1.00000E+00  1.22976E-01
      21    -1     0     0   502   501  0.000000000E+00  0.000000000E+00  4.156898546E+02  4.156898546E+02  0.000000000E+00  0.00000E+00  9.000E+00
       1    -1     0     0   501     0  0.000000000E+00  0.000000000E+00 -4.817863817E+02  4.817863817E+02  0.000000000E+00  0.00000E+00  9.000E+00
      25     1     1     2     0     0  1.288468904E+01 -2.938841649E+02  1.130084673E+02  3.390130253E+02  1.250000000E+02  0.00000E+00  9.000E+00
      25     1     1     2     0     0 -1.105220209E+02  3.310952020E+02 -2.411916016E+01  3.715452647E+02  1.250000000E+02  0.00000E+00  9.000E+00
       1     1     1     2   502     0  9.763733187E+01 -3.721103704E+01 -1.549858343E+02  1.869179464E+02  1.907348633E-06  0.00000E+00  9.000E+00
#rwgt            1           1   2.6011364773765432E-002           8      198682           0
</event>
<event>
      5   9999  3.19816E-02  4.77170E+02 -1.00000E+00  9.94321E-02
       2    -1     0     0   502     0  0.000000000E+00  0.000000000E+00  1.450886809E+03  1.450886809E+03  0.000000000E+00  0.00000E+00  9.000E+00
      21    -1     0     0   501   502  0.000000000E+00  0.000000000E+00 -6.107722541E+02  6.107722541E+02  0.000000000E+00  0.00000E+00  9.000E+00
      25     1     1     2     0     0 -3.265658676E+02  2.820284738E+02  8.374341325E+02  9.503190265E+02  1.250000000E+02  0.00000E+00  9.000E+00
      25     1     1     2     0     0 -1.123260198E+02 -4.692848265E+02 -2.646719716E+02  5.643772104E+02  1.250000000E+02  0.00000E+00  9.000E+00
       2     1     1     2   501     0  4.388918874E+02  1.872563526E+02  2.673523935E+02  5.469628258E+02  5.394796609E-06  0.00000E+00  9.000E+00
#rwgt            2          18   7.4062808164532083E-004           8      198880           0
</event>
<event>
      5   9999  3.19816E-02  3.99012E+01 -1.00000E+00  1.44907E-01
       1    -1     0     0   502     0  0.000000000E+00  0.000000000E+00  1.971795729E+03  1.971795729E+03  0.000000000E+00  0.00000E+00  9.000E+00
      21    -1     0     0   501   502  0.000000000E+00  0.000000000E+00 -1.099295831E+03  1.099295831E+03  0.000000000E+00  0.00000E+00  9.000E+00
      25     1     1     2     0     0  5.513921430E+02 -7.404155364E+02  3.811421928E+02  1.006549965E+03  1.250000000E+02  0.00000E+00  9.000E+00
      25     1     1     2     0     0 -5.897385474E+02  7.514455922E+02 -4.910640861E+02  1.081309840E+03  1.250000000E+02  0.00000E+00  9.000E+00
       1     1     1     2   501     0  3.834640439E+01 -1.103005588E+01  9.824217907E+02  9.832317548E+02  0.000000000E+00  0.00000E+00  9.000E+00
#rwgt            1           1   3.0209491121376573E-002           8      198899           0
</event>
<event>
      5   9999  3.19816E-02  6.08857E+02 -1.00000E+00  9.64810E-02
      21    -1     0     0   511   501  0.000000000E+00  0.000000000E+00  4.761357259E+02  4.761357259E+02  0.000000000E+00  0.00000E+00  9.000E+00
      21    -1     0     0   501   502  0.000000000E+00  0.000000000E+00 -1.481790513E+03  1.481790513E+03  0.000000000E+00  0.00000E+00  9.000E+00
      25     1     1     2     0     0 -7.306572218E+02  1.737762859E+01 -6.841927950E+02  1.008913643E+03  1.250000000E+02  0.00000E+00  9.000E+00
      25     1     1     2     0     0  1.497722342E+02 -1.998036958E+02 -1.474139368E+02  3.157674900E+02  1.250000000E+02  0.00000E+00  9.000E+00
      21     1     1     2   511   502  5.808849876E+02  1.824260672E+02 -1.740480552E+02  6.332451060E+02  5.394796609E-06  0.00000E+00  9.000E+00
#rwgt            2          11   1.9597738265394399E-003           8      199235           0
</event>
<event>
      5   9999  3.19816E-02  8.82486E+01 -1.00000E+00  1.26320E-01
      21    -1     0     0   502   501  0.000000000E+00  0.000000000E+00  1.178251788E+03  1.178251788E+03  0.000000000E+00  0.00000E+00  9.000E+00
       2    -1     0     0   501     0  0.000000000E+00  0.000000000E+00 -1.362821313E+03  1.362821313E+03  0.000000000E+00  0.00000E+00  9.000E+00
      25     1     1     2     0     0 -2.351844099E+02 -2.536982542E+02  9.550027227E+02  1.023391280E+03  1.250000000E+02  0.00000E+00  9.000E+00
      25     1     1     2     0     0  3.117803662E+02  2.975261157E+02 -8.165906977E+01  4.560942775E+02  1.250000000E+02  0.00000E+00  9.000E+00
       2     1     1     2   502     0 -7.659595628E+01 -4.382786150E+01 -1.057913178E+03  1.061587544E+03  2.157918644E-05  0.00000E+00  9.000E+00
#rwgt            1           1   2.9557331975911996E-002           8      199270           0
</event>
<event>
      5   9999  3.19816E-02  6.91378E+01 -1.00000E+00  1.31494E-01
      21    -1     0     0   502   501  0.000000000E+00  0.000000000E+00  1.255182523E+02  1.255182523E+02  0.000000000E+00  0.00000E+00  9.000E+00
      21    -1     0     0   511   502  0.000000000E+00  0.000000000E+00 -1.301718206E+03  1.301718206E+03  0.000000000E+00  0.00000E+00  9.000E+00
      25     1     1     2     0     0 -3.886139803E+01  9.617529355E+01 -5.420364863E+02  5.658519663E+02  1.250000000E+02  0.00000E+00  9.000E+00
      25     1     1     2     0     0 -2.798920971E+01 -7.853936417E+01  6.145566000E+01  1.623379984E+02  1.250000000E+02  0.00000E+00  9.000E+00
      21     1     1     2   511   501  6.685060774E+01 -1.763592939E+01 -6.956191270E+02  6.990464932E+02  7.629394531E-06  0.00000E+00  9.000E+00
#rwgt            1           1   2.5534337032353083E-002           8      199387           0
</event>
<event>
      5   9999  3.19816E-02  4.81511E+01 -1.00000E+00  1.40016E-01
      21    -1     0     0   502   501  0.000000000E+00  0.000000000E+00  1.643662929E+02  1.643662929E+02  0.000000000E+00  0.00000E+00  9.000E+00
      21    -1     0     0   501   512  0.000000000E+00  0.000000000E+00 -4.194696890E+02  4.194696890E+02  0.000000000E+00  0.00000E+00  9.000E+00
      25     1     1     2     0     0  1.100291739E+02  3.345255707E+01  6.521953384E+01  1.819452673E+02  1.250000000E+02  0.00000E+00  9.000E+00
      25     1     1     2     0     0 -1.326307269E+02  9.064485533E+00 -1.922369680E+02  2.650530635E+02  1.250000000E+02  0.00000E+00  9.000E+00
      21     1     1     2   502   512  2.260155297E+01 -4.251704260E+01 -1.280859620E+02  1.368376511E+02  0.000000000E+00  0.00000E+00  9.000E+00
#rwgt            1           1   2.7223881058673252E-002           8      199450           0
</event>
<event>
      5   9999  3.19816E-02  2.42377E+01 -1.00000E+00  1.59765E-01
      21    -1     0     0   502   501  0.000000000E+00  0.000000000E+00  4.561431352E+02  4.561431352E+02  0.000000000E+00  0.00000E+00  9.000E+00
      21    -1     0     0   501   511  0.000000000E+00  0.000000000E+00 -7.022664356E+02  7.022664356E+02  0.000000000E+00  0.00000E+00  9.000E+00
      25     1     1     2     0     0  1.544849155E+02  5.101155320E+01 -6.038974292E+02  6.377968898E+02  1.250000000E+02  0.00000E+00  9.000E+00
      25     1     1     2     0     0 -1.737071206E+02 -6.577548121E+01  4.076918509E+02  4.651217292E+02  1.250000000E+02  0.00000E+00  9.000E+00
      21     1     1     2   502   511  1.922220505E+01  1.476392801E+01 -4.991772220E+01  5.549095176E+01  9.536743164E-07  0.00000E+00  9.000E+00
#rwgt            1           1   3.3006225503483075E-002           8      199560           0
</event>
<event>
      5   9999  3.19816E-02  1.42293E+02 -1.00000E+00  1.17309E-01
      21    -1     0     0   502   512  0.000000000E+00  0.000000000E+00  2.027931049E+03  2.027931049E+03  0.000000000E+00  0.00000E+00  9.000E+00
      21    -1     0     0   501   502  0.000000000E+00  0.000000000E+00 -4.980669030E+01  4.980669030E+01  0.000000000E+00  0.00000E+00  9.000E+00
      25     1     1     2     0     0 -5.384837086E+01  2.577456116E+02  7.592006030E+02  8.132299816E+02  1.250000000E+02  0.00000E+00  9.000E+00
      25     1     1     2     0     0  8.802834500E+01 -1.196183404E+02  6.930179490E+02  7.196918886E+02  1.250000000E+02  0.00000E+00  9.000E+00
      21     1     1     2   501   512 -3.417997414E+01 -1.381272713E+02  5.259058063E+02  5.448158687E+02  0.000000000E+00  0.00000E+00  9.000E+00
#rwgt            1           1   4.0670918596548936E-002           8      199724           0
</event>
<event>
      5   9999  3.19816E-02  9.16519E+00 -1.00000E+00  2.00238E-01
      21    -1     0     0   511   501  0.000000000E+00  0.000000000E+00  8.559575970E+02  8.559575970E+02  0.000000000E+00  0.00000E+00  9.000E+00
      21    -1     0     0   501   502  0.000000000E+00  0.000000000E+00 -8.667837946E+02  8.667837946E+02  0.000000000E+00  0.00000E+00  9.000E+00
      25     1     1     2     0     0  6.029491373E+02  2.849351500E+02 -3.309394672E+02  7.549050489E+02  1.250000000E+02  0.00000E+00  9.000E+00
      25     1     1     2     0     0 -6.111144551E+02 -2.890978872E+02  4.116392970E+01  6.887364769E+02  1.250000000E+02  0.00000E+00  9.000E+00
      21     1     1     2   511   502  8.165317735E+00  4.162737182E+00  2.789493400E+02  2.790998657E+02  5.394796609E-06  0.00000E+00  9.000E+00
#rwgt            1           1   2.9939140238595514E-002           8      199770           0
</event>
<event>
      5   9999  3.19816E-02  5.72431E+01 -1.00000E+00  1.35804E-01
      21    -1     0     0   502   512  0.000000000E+00  0.000000000E+00  2.780941137E+02  2.780941137E+02  0.000000000E+00  0.00000E+00  9.000E+00
      21    -1     0     0   501   502  0.000000000E+00  0.000000000E+00 -4.575942669E+02  4.575942669E+02  0.000000000E+00  0.00000E+00  9.000E+00
      25     1     1     2     0     0  2.033813554E+02 -1.544103482E+02 -7.084407171E+01  2.930024127E+02  1.250000000E+02  0.00000E+00  9.000E+00
      25     1     1     2     0     0 -2.433832742E+02  1.953568533E+02 -1.538794052E+02  3.697344854E+02  1.250000000E+02  0.00000E+00  9.000E+00
      21     1     1     2   501   512  4.000191885E+01 -4.094650514E+01  4.522332376E+01  7.295148255E+01  8.259061849E-07  0.00000E+00  9.000E+00
#rwgt            1           1   2.8040547551888121E-002           8      200090           0
</event>
<event>
      5   9999  3.19816E-02  4.83576E+01 -1.00000E+00  1.39908E-01
      21    -1     0     0   502   501  0.000000000E+00  0.000000000E+00  6.474654579E+02  6.474654579E+02  0.000000000E+00  0.00000E+00  9.000E+00
      21    -1     0     0   501   511  0.000000000E+00  0.000000000E+00 -2.338792772E+03  2.338792772E+03  0.000000000E+00  0.00000E+00  9.000E+00
      25     1     1     2     0     0  7.179329904E+02  6.334932835E+02  7.240038849E+01  9.683017790E+02  1.250000000E+02  0.00000E+00  9.000E+00
      25     1     1     2     0     0 -7.132949289E+02 -5.853586487E+02 -1.694849912E+03  1.933798239E+03  1.250000000E+02  0.00000E+00  9.000E+00
      21     1     1     2   502   511 -4.638061500E+00 -4.813463477E+01 -6.887779088E+01  8.415821264E+01  0.000000000E+00  0.00000E+00  9.000E+00
#rwgt            1           1   5.9927365161991805E-002           8      200200           0
</event>
<event>
      5   9999  3.19816E-02  2.15464E+01 -1.00000E+00  1.63744E-01
      21    -1     0     0   502   501  0.000000000E+00  0.000000000E+00  5.618740987E+02  5.618740987E+02  0.000000000E+00  0.00000E+00  9.000E+00
      21    -1     0     0   501   512  0.000000000E+00  0.000000000E+00 -4.152229684E+02  4.152229684E+02  0.000000000E+00  0.00000E+00  9.000E+00
      25     1     1     2     0     0  1.609814208E+02 -3.452481207E+02 -2.491952509E+00  4.009270414E+02  1.250000000E+02  0.00000E+00  9.000E+00
      25     1     1     2     0     0 -1.700332136E+02  3.648009262E+02  2.385012922E+02  4.842508398E+02  1.250000000E+02  0.00000E+00  9.000E+00
      21     1     1     2   502   512  9.051792799E+00 -1.955280555E+01 -8.935820935E+01  9.191918590E+01  1.348699152E-06  0.00000E+00  9.000E+00
#rwgt            1           1   3.0261708494877023E-002           8      200380           0
</event>
<event>
      5   9999  3.19816E-02  2.16223E+01 -1.00000E+00  1.63622E-01
      21    -1     0     0   511   501  0.000000000E+00  0.000000000E+00  1.819637106E+02  1.819637106E+02  0.000000000E+00  0.00000E+00  9.000E+00
      21    -1     0     0   501   502  0.000000000E+00  0.000000000E+00 -1.353836685E+03  1.353836685E+03  0.000000000E+00  0.00000E+00  9.000E+00
      25     1     1     2     0     0 -2.240068359E+02 -1.500304649E+02  1.149815009E+01  2.973977310E+02  1.250000000E+02  0.00000E+00  9.000E+00
      25     1     1     2     0     0  2.385399565E+02  1.660402113E+02 -1.172041061E+03  1.213991726E+03  1.250000000E+02  0.00000E+00  9.000E+00
      21     1     1     2   511   502 -1.453312058E+01 -1.600974636E+01 -1.133006340E+01  2.441093831E+01  2.920019320E-07  0.00000E+00  9.000E+00
#rwgt            1           1   3.0205294876572832E-002           8      200537           0
</event>
<event>
      5   9999  3.19816E-02  9.95790E+01 -1.00000E+00  1.23910E-01
      21    -1     0     0   502   501  0.000000000E+00  0.000000000E+00  9.658980238E+01  9.658980238E+01  0.000000000E+00  0.00000E+00  9.000E+00
      21    -1     0     0   512   502  0.000000000E+00  0.000000000E+00 -2.427609477E+03  2.427609477E+03  0.000000000E+00  0.00000E+00  9.000E+00
      25     1     1     2     0     0 -1.869181477E+02 -3.159888688E+01 -1.928572319E+02  2.979191090E+02  1.250000000E+02  0.00000E+00  9.000E+00
      25     1     1     2     0     0  2.552882560E+02 -4.079936065E+01 -4.413404832E+02  5.265387960E+02  1.250000000E+02  0.00000E+00  9.000E+00
      21     1     1     2   512   501 -6.837010835E+01  7.239824753E+01 -1.696821960E+03  1.699741375E+03  2.157918644E-05  0.00000E+00  9.000E+00
#rwgt            1           1   2.9072136278845917E-002           8      200699           0
</event>
<event>
      5   9999  3.19816E-02  4.55157E+01 -1.00000E+00  1.41445E-01
      21    -1     0     0   511   501  0.000000000E+00  0.000000000E+00  1.346905609E+02  1.346905609E+02  0.000000000E+00  0.00000E+00  9.000E+00
      21    -1     0     0   501   502  0.000000000E+00  0.000000000E+00 -6.118587705E+02  6.118587705E+02  0.000000000E+00  0.00000E+00  9.000E+00
      25     1     1     2     0     0 -1.534952118E+02 -9.790536714E+01 -1.759671884E+02  2.823750916E+02  1.250000000E+02  0.00000E+00  9.000E+00
      25     1     1     2     0     0  1.129503799E+02  7.722204368E+01 -3.508684222E+02  3.968055973E+02  1.250000000E+02  0.00000E+00  9.000E+00
      21     1     1     2   511   502  4.054483187E+01  2.068332346E+01  4.966740099E+01  6.736864243E+01  9.536743164E-07  0.00000E+00  9.000E+00
#rwgt            1           1   2.7739868841289487E-002           8      200753           0
</event>
<event>
      5   9999  3.19816E-02  2.10429E+02 -1.00000E+00  1.10850E-01
       1    -1     0     0   502     0  0.000000000E+00  0.000000000E+00  3.692010751E+02  3.692010751E+02  0.000000000E+00  0.00000E+00  9.000E+00
      21    -1     0     0   501   502  0.000000000E+00  0.000000000E+00 -2.859534861E+02  2.859534861E+02  0.000000000E+00  0.00000E+00  9.000E+00
      25     1     1     2     0     0 -9.596429999E+01 -5.810285904E+01  3.351829531E+01  1.712704447E+02  1.250000000E+02  0.00000E+00  9.000E+00
      25     1     1     2     0     0  2.077683339E+02 -1.201670423E+02  3.612240356E+01  2.730157993E+02  1.250000000E+02  0.00000E+00  9.000E+00
       1     1     1     2   501     0 -1.118040339E+02  1.782699013E+02  1.360689015E+01  2.108683172E+02  2.372234910E-06  0.00000E+00  9.000E+00
#rwgt            2          17   1.1281485140313050E-004           8      201112           0
</event>
<event>
      5   9999  3.19816E-02  2.07608E+01 -1.00000E+00  1.65042E-01
      21    -1     0     0   502   501  0.000000000E+00  0.000000000E+00  1.009143491E+03  1.009143491E+03  0.000000000E+00  0.00000E+00  9.000E+00
      21    -1     0     0   511   502  0.000000000E+00  0.000000000E+00 -6.452759377E+02  6.452759377E+02  0.000000000E+00  0.00000E+00  9.000E+00
      25     1     1     2     0     0 -2.571686211E+02 -8.919766664E+01  7.160163212E+02  7.761419301E+02  1.250000000E+02  0.00000E+00  9.000E+00
      25     1     1     2     0     0  2.779286670E+02  8.937373477E+01  1.669329789E+02  3.587807518E+02  1.250000000E+02  0.00000E+00  9.000E+00
      21     1     1     2   511   501 -2.076004582E+01 -1.760681310E-01 -5.190817466E+02  5.194967471E+02  1.078959322E-05  0.00000E+00  9.000E+00
#rwgt            1           1   2.9537964826408979E-002           8      201131           0
</event>
<event>
      5   9999  3.19816E-02  8.62804E+01 -1.00000E+00  1.26781E-01
      21    -1     0     0   512   501  0.000000000E+00  0.000000000E+00  1.271902573E+02  1.271902573E+02  0.000000000E+00  0.00000E+00  9.000E+00
      21    -1     0     0   501   502  0.000000000E+00  0.000000000E+00 -7.433225129E+02  7.433225129E+02  0.000000000E+00  0.00000E+00  9.000E+00
      25     1     1     2     0     0 -2.484753847E+02  8.787796229E+01 -4.093672192E+02  5.026619870E+02  1.250000000E+02  0.00000E+00  9.000E+00
      25     1     1     2     0     0  1.704016627E+02 -5.115201126E+01 -1.576156180E+02  2.685534173E+02  1.250000000E+02  0.00000E+00  9.000E+00
      21     1     1     2   512   502  7.807372199E+01 -3.672595103E+01 -4.914941830E+01  9.929736584E+01  1.168007728E-06  0.00000E+00  9.000E+00
#rwgt            1           1   3.1003212769526372E-002           8      201355           0
</event>
<event>
      5   9999  3.19816E-02  2.14341E+01 -1.00000E+00  1.63925E-01
      21    -1     0     0   511   501  0.000000000E+00  0.000000000E+00  9.090005715E+02  9.090005715E+02  0.000000000E+00  0.00000E+00  9.000E+00
      21    -1     0     0   501   502  0.000000000E+00  0.000000000E+00 -4.035496034E+02  4.035496034E+02  0.000000000E+00  0.00000E+00  9.000E+00
      25     1     1     2     0     0  4.398284100E+01 -1.018479390E+02  1.034764661E+02  1.965702725E+02  1.250000000E+02  0.00000E+00  9.000E+00
      25     1     1     2     0     0 -4.695161419E+01  1.230754789E+02 -3.337435373E+02  3.799497023E+02  1.250000000E+02  0.00000E+00  9.000E+00
      21     1     1     2   511   502  2.968773186E+00 -2.122753985E+01  7.357180393E+02  7.360302001E+02  0.000000000E+00  0.00000E+00  9.000E+00
#rwgt            1           1   2.7086814791366900E-002           8      201395           0
</event>
<event>
      5   9999  3.19816E-02  1.17229E+01 -1.00000E+00  1.88101E-01
      21    -1     0     0   512   501  0.000000000E+00  0.000000000E+00  3.435639704E+02  3.435639704E+02  0.000000000E+00  0.00000E+00  9.000E+00
      21    -1     0     0   501   502  0.000000000E+00  0.000000000E+00 -2.648426218E+02  2.648426218E+02  0.000000000E+00  0.00000E+00  9.000E+00
      25     1     1     2     0     0 -1.128371251E+02 -1.265672829E+02 -1.414726862E+02  2.537538470E+02  1.250000000E+02  0.00000E+00  9.000E+00
      25     1     1     2     0     0  1.028356002E+02  1.326825293E+02  9.661611494E+01  2.305200380E+02  1.250000000E+02  0.00000E+00  9.000E+00
      21     1     1     2   512   502  1.000152486E+01 -6.115246402E+00  1.235779199E+02  1.241327073E+02  1.348699152E-06  0.00000E+00  9.000E+00
#rwgt            1           1   3.0084090790090265E-002           8      201503           0
</event>
<event>
      5   9999  3.19816E-02  1.26850E+02 -1.00000E+00  1.19354E-01
      21    -1     0     0   502   501  0.000000000E+00  0.000000000E+00  2.538681639E+02  2.538681639E+02  0.000000000E+00  0.00000E+00  9.000E+00
       1    -1     0     0   501     0  0.000000000E+00  0.000000000E+00 -1.150543247E+03  1.150543247E+03  0.000000000E+00  0.00000E+00  9.000E+00
      25     1     1     2     0     0 -1.156466382E+02 -2.714641403E+02 -4.760082213E+02  5.738255407E+02  1.250000000E+02  0.00000E+00  9.000E+00
      25     1     1     2     0     0  5.851882757E+01  1.582066061E+02  1.422186583E+02  2.535841678E+02  1.250000000E+02  0.00000E+00  9.000E+00
       1     1     1     2   502     0  5.712781066E+01  1.132575342E+02 -5.628855197E+02  5.770017020E+02  1.078959322E-05  0.00000E+00  9.000E+00
#rwgt            1           1   2.9395232815971381E-002           8      201681           0
</event>
<event>
      5   9999  3.19816E-02  8.02089E+01 -1.00000E+00  1.28295E-01
      21    -1     0     0   502   501  0.000000000E+00  0.000000000E+00  3.059546344E+02  3.059546344E+02  0.000000000E+00  0.00000E+00  9.000E+00
       2    -1     0     0   501     0  0.000000000E+00  0.000000000E+00 -1.078166138E+03  1.078166138E+03  0.000000000E+00  0.00000E+00  9.000E+00
      25     1     1     2     0     0  3.719899656E+02 -4.029341687E+00 -3.652912385E+01  3.941473671E+02  1.250000000E+02  0.00000E+00  9.000E+00
      25     1     1     2     0     0 -3.823743055E+02 -7.550446678E+01 -2.134630910E+02  4.616302906E+02  1.250000000E+02  0.00000E+00  9.000E+00
       2     1     1     2   502     0  1.038433980E+01  7.953380847E+01 -5.222192886E+02  5.283431144E+02  0.000000000E+00  0.00000E+00  9.000E+00
#rwgt            1           1   2.9409344689128859E-002           8      201755           0
</event>
<event>
      5   9999  3.19816E-02  4.14251E+01 -1.00000E+00  1.43904E-01
      21    -1     0     0   511   501  0.000000000E+00  0.000000000E+00  5.964765915E+01  5.964765915E+01  0.000000000E+00  0.00000E+00  9.000E+00
      21    -1     0     0   501   502  0.000000000E+00  0.000000000E+00 -1.984024471E+03  1.984024471E+03  0.000000000E+00  0.00000E+00  9.000E+00
      25     1     1     2     0     0  2.654506852E+02 -4.723619875E+01 -7.212448350E+02  7.800733534E+02  1.250000000E+02  0.00000E+00  9.000E+00
      25     1     1     2     0     0 -2.985447954E+02  7.215239184E+01 -1.146116692E+03  1.193123394E+03  1.250000000E+02  0.00000E+00  9.000E+00
      21     1     1     2   511   502  3.309411016E+01 -2.491619309E+01 -5.701528475E+01  7.047538223E+01  6.743495762E-07  0.00000E+00  9.000E+00
#rwgt            1           1   2.9796622946251756E-002           8      201886           0
</event>
<event>
      5   9999  3.19816E-02  6.72621E+00 -1.00000E+00  2.18032E-01
      21    -1     0     0   502   501  0.000000000E+00  0.000000000E+00  6.420905446E+01  6.420905446E+01  0.000000000E+00  0.00000E+00  9.000E+00
      21    -1     0     0   501   512  0.000000000E+00  0.000000000E+00 -9.817284862E+02  9.817284862E+02  0.000000000E+00  0.00000E+00  9.000E+00
      25     1     1     2     0     0 -7.065581945E+00  1.148026874E+02 -7.839393520E+02  8.021318390E+02  1.250000000E+02  0.00000E+00  9.000E+00
      25     1     1     2     0     0  9.829230635E+00 -1.086704688E+02 -7.035535125E+01  1.802241937E+02  1.250000000E+02  0.00000E+00  9.000E+00
      21     1     1     2   502   512 -2.763648690E+00 -6.132218662E+00 -6.322472844E+01  6.358150789E+01  6.743495762E-07  0.00000E+00  9.000E+00
#rwgt            1           1   2.8368808341224072E-002           8      201999           0
</event>
<event>
      5   9999  3.19816E-02  3.10512E+02 -1.00000E+00  1.05108E-01
      21    -1     0     0   502   501  0.000000000E+00  0.000000000E+00  1.062974045E+03  1.062974045E+03  0.000000000E+00  0.00000E+00  9.000E+00
      21    -1     0     0   501   511  0.000000000E+00  0.000000000E+00 -4.433809714E+02  4.433809714E+02  0.000000000E+00  0.00000E+00  9.000E+00
      25     1     1     2     0     0 -3.356189498E+02 -4.704330678E+02  1.560039045E+02  6.114814543E+02  1.250000000E+02  0.00000E+00  9.000E+00
      25     1     1     2     0     0  7.440329437E+01  3.025516826E+02  4.779063444E+02  5.840315444E+02  1.250000000E+02  0.00000E+00  9.000E+00
      21     1     1     2   502   511  2.612156555E+02  1.678813852E+02 -1.431717580E+01  3.108420172E+02  4.613876934E-06  0.00000E+00  9.000E+00
#rwgt            1           1   2.8568992174188880E-002           8      202312           0
</event>
<event>
      5   9999  3.19816E-02  1.47784E+03 -1.00000E+00  8.70963E-02
       2    -1     0     0   502     0  0.000000000E+00  0.000000000E+00  3.655456735E+03  3.655456735E+03  0.000000000E+00  0.00000E+00  9.000E+00
      21    -1     0     0   501   502  0.000000000E+00  0.000000000E+00 -2.043679767E+03  2.043679767E+03  0.000000000E+00  0.00000E+00  9.000E+00
      25     1     1     2     0     0  5.511919005E+02  9.324114210E+02  4.815356818E+02  1.191933380E+03  1.250000000E+02  0.00000E+00  9.000E+00
      25     1     1     2     0     0 -1.399328422E+03 -2.142643153E+03 -1.293288934E+02  2.565422125E+03  1.250000000E+02  0.00000E+00  9.000E+00
       2     1     1     2   501     0  8.481365217E+02  1.210231732E+03  1.259570179E+03  1.941780997E+03  2.642899792E-05  0.00000E+00  9.000E+00
#rwgt            2          18   6.4714924235928625E-004           8      202467           0
</event>
<event>
      5   9999  3.19816E-02  1.03585E+02 -1.00000E+00  1.23144E-01
      21    -1     0     0   511   501  0.000000000E+00  0.000000000E+00  3.441064109E+02  3.441064109E+02  0.000000000E+00  0.00000E+00  9.000E+00
      21    -1     0     0   501   502  0.000000000E+00  0.000000000E+00 -7.169059604E+02  7.169059604E+02  0.000000000E+00  0.00000E+00  9.000E+00
      25     1     1     2     0     0 -1.210684893E+02 -1.158511016E+02 -6.365462186E+02  6.699963770E+02  1.250000000E+02  0.00000E+00  9.000E+00
      25     1     1     2     0     0  1.947988083E+01  9.561007349E+01  7.434065282E+01  1.751350467E+02  1.250000000E+02  0.00000E+00  9.000E+00
      21     1     1     2   511   502  1.015886085E+02  2.024102812E+01  1.894060162E+02  2.158809477E+02  3.814697266E-06  0.00000E+00  9.000E+00
#rwgt            1           1   2.8116508149805850E-002           8      202501           0
</event>
<event>
      5   9999  3.19816E-02  1.45018E+01 -1.00000E+00  1.78777E-01
      21    -1     0     0   512   501  0.000000000E+00  0.000000000E+00  1.932832407E+02  1.932832407E+02  0.000000000E+00  0.00000E+00  9.000E+00
      21    -1     0     0   501   502  0.000000000E+00  0.000000000E+00 -7.650005407E+02  7.650005407E+02  0.000000000E+00  0.00000E+00  9.000E+00
      25     1     1     2     0     0  9.600851176E+01  2.139101024E+02 -4.024053842E+01  2.687367991E+02  1.250000000E+02  0.00000E+00  9.000E+00
      25     1     1     2     0     0 -1.088586379E+02 -2.071887397E+02 -5.805848103E+02  6.383424620E+02  1.250000000E+02  0.00000E+00  9.000E+00
      21     1     1     2   512   502  1.285012612E+01 -6.721362703E+00  4.910804862E+01  5.120452028E+01  9.536743164E-07  0.00000E+00  9.000E+00
#rwgt            1           1   2.7892319094302682E-002           8      202561           0
</event>
<event>
      5   9999  3.19816E-02  9.32030E+01 -1.00000E+00  1.25219E-01
      21    -1     0     0   502   501  0.000000000E+00  0.000000000E+00  1.513111360E+02  1.513111360E+02  0.000000000E+00  0.00000E+00  9.000E+00
      -1    -1     0     0     0   502  0.000000000E+00  0.000000000E+00 -1.237450911E+03  1.237450911E+03  0.000000000E+00  0.00000E+00  9.000E+00
      25     1     1     2     0     0 -2.765112169E+02 -3.798109903E+01 -9.294201983E+02  9.784415782E+02  1.250000000E+02  0.00000E+00  9.000E+00
      25     1     1     2     0     0  2.280297408E+02 -4.162001101E+01 -4.899346799E+01  2.678715138E+02  1.250000000E+02  0.00000E+00  9.000E+00
      -1     1     1     2     0   501  4.848147609E+01  7.960111003E+01 -1.077261085E+02  1.424489547E+02  2.697398305E-06  0.00000E+00  9.000E+00
#rwgt            1           1   2.9242122406179988E-002           8      202782           0
</event>
<event>
      5   9999  3.19816E-02  5.36036E+01 -1.00000E+00  1.37373E-01
       4    -1     0     0   502     0  0.000000000E+00  0.000000000E+00  7.154531036E+02  7.154531036E+02  0.000000000E+00  0.00000E+00  9.000E+00
      21    -1     0     0   501   502  0.000000000E+00  0.000000000E+00 -1.004624921E+02  1.004624921E+02  0.000000000E+00  0.00000E+00  9.000E+00
      25     1     1     2     0     0 -9.049271860E+01  8.620557853E+01  1.426062361E+02  2.271164293E+02  1.250000000E+02  0.00000E+00  9.000E+00
      25     1     1     2     0     0  1.370609305E+02 -1.127527271E+02  1.545498519E+02  2.664761394E+02  1.250000000E+02  0.00000E+00  9.000E+00
       4     1     1     2   501     0 -4.656821186E+01  2.654714857E+01  3.178345235E+02  3.223230271E+02  0.000000000E+00  0.00000E+00  9.000E+00
#rwgt            2          20   1.1182907736445679E-005           8      202829           0
</event>
<event>
      5   9999  3.19816E-02  4.51825E+01 -1.00000E+00  1.41633E-01
      -2    -1     0     0     0   501  0.000000000E+00  0.000000000E+00  1.319610535E+03  1.319610535E+03  0.000000000E+00  0.00000E+00  9.000E+00
      21    -1     0     0   501   502  0.000000000E+00  0.000000000E+00 -3.507424229E+02  3.507424229E+02  0.000000000E+00  0.00000E+00  9.000E+00
      25     1     1     2     0     0 -3.481925988E+01  6.333569413E+01  2.634075261E+02  3.003869435E+02  1.250000000E+02  0.00000E+00  9.000E+00
      25     1     1     2     0     0 -1.011775231E+01 -6.803948926E+01 -3.164132574E+02  3.470937776E+02  1.250000000E+02  0.00000E+00  9.000E+00
      -2     1     1     2     0   502  4.493701219E+01  4.703795133E+00  1.021873843E+03  1.022872236E+03  1.078959322E-05  0.00000E+00  9.000E+00
#rwgt            1           1   2.8499456150002923E-002           8      202863           0
</event>
<event>
      5   9999  3.19816E-02  5.20539E+01 -1.00000E+00  1.38085E-01
      21    -1     0     0   511   501  0.000000000E+00  0.000000000E+00  6.963431732E+02  6.963431732E+02  0.000000000E+00  0.00000E+00  9.000E+00
      21    -1     0     0   501   502  0.000000000E+00  0.000000000E+00 -7.227579330E+02  7.227579330E+02  0.000000000E+00  0.00000E+00  9.000E+00
      25     1     1     2     0     0  1.996887835E+02 -4.176148271E+02 -4.571693158E+02  6.625002169E+02  1.250000000E+02  0.00000E+00  9.000E+00
      25     1     1     2     0     0 -2.122193624E+02  3.670916426E+02  1.436501246E+02  4.648157594E+02  1.250000000E+02  0.00000E+00  9.000E+00
      21     1     1     2   511   502  1.253057891E+01  5.052318447E+01  2.871044314E+02  2.917851300E+02  3.814697266E-06  0.00000E+00  9.000E+00
#rwgt            1           1   2.8281369910014904E-002           8      203017           0
</event>
<event>
      5   9999  3.19816E-02  3.03174E+02 -1.00000E+00  1.05444E-01
       2    -1     0     0   502     0  0.000000000E+00  0.000000000E+00  1.150163066E+03  1.150163066E+03  0.000000000E+00  0.00000E+00  9.000E+00
      21    -1     0     0   501   502  0.000000000E+00  0.000000000E+00 -2.782041543E+02  2.782041543E+02  0.000000000E+00  0.00000E+00  9.000E+00
      25     1     1     2     0     0 -1.664316232E+02 -4.683954508E+01  4.824342255E+02  5.275047015E+02  1.250000000E+02  0.00000E+00  9.000E+00
      25     1     1     2     0     0  4.295690355E+00 -2.093370308E+02 -1.469057707E+02  2.846871105E+02  1.250000000E+02  0.00000E+00  9.000E+00
       2     1     1     2   501     0  1.621359328E+02  2.561765759E+02  5.364304572E+02  6.161754086E+02  7.629394531E-06  0.00000E+00  9.000E+00
#rwgt            2          18   9.1398354595158336E-004           8      203307           0
</event>
<event>
      5   9999  4.55909E-02  6.35505E+01 -1.00000E+00  1.33383E-01
      21    -1     0     0   502   501  0.000000000E+00  0.000000000E+00  3.047495086E+01  3.047495086E+01  0.000000000E+00  0.00000E+00  9.000E+00
       1    -1     0     0   501     0  0.000000000E+00  0.000000000E+00 -2.710645374E+03  2.710645374E+03  0.000000000E+00  0.00000E+00  9.000E+00
      25     1     1     2     0     0 -4.150378743E+01 -2.642370781E+01 -2.156765224E+02  2.540908086E+02  1.250000000E+02  0.00000E+00  9.000E+00
      25     1     1     2     0     0  7.192930295E+01  8.221752503E+01 -6.321560822E+02  6.535899772E+02  1.250000000E+02  0.00000E+00  9.000E+00
       1     1     1     2   502     0 -3.042551551E+01 -5.579381722E+01 -1.832337819E+03  1.833439539E+03  0.000000000E+00  0.00000E+00  9.000E+00
#rwgt            1           1  0.12331571524086503                8      203356           0
</event>
<event>
      5   9999  3.50203E-02  1.34452E+02 -1.00000E+00  1.18309E-01
      21    -1     0     0   511   501  0.000000000E+00  0.000000000E+00  1.682211880E+02  1.682211880E+02  0.000000000E+00  0.00000E+00  9.000E+00
      21    -1     0     0   501   502  0.000000000E+00  0.000000000E+00 -2.908650009E+03  2.908650009E+03  0.000000000E+00  0.00000E+00  9.000E+00
      25     1     1     2     0     0 -1.793710669E+02  7.118384737E+01 -2.568566256E+03  2.578836701E+03  1.250000000E+02  0.00000E+00  9.000E+00
      25     1     1     2     0     0  3.041110851E+02 -2.101162416E+01 -9.378986927E+01  3.425588708E+02  1.250000000E+02  0.00000E+00  9.000E+00
      21     1     1     2   511   502 -1.247400182E+02 -5.017222321E+01 -7.807269559E+01  1.554756248E+02  1.907348633E-06  0.00000E+00  9.000E+00
#rwgt            1           1  0.10461898827850002                8      203416           0
</event>
<event>
      5   9999  3.19816E-02  4.35262E+01 -1.00000E+00  1.42601E-01
      21    -1     0     0   502   501  0.000000000E+00  0.000000000E+00  2.427318933E+02  2.427318933E+02  0.000000000E+00  0.00000E+00  9.000E+00
      21    -1     0     0   501   512  0.000000000E+00  0.000000000E+00 -4.690662626E+02  4.690662626E+02  0.000000000E+00  0.00000E+00  9.000E+00
      25     1     1     2     0     0  1.276532254E+02  2.668341069E+02 -6.139760710E+01  3.269410539E+02  1.250000000E+02  0.00000E+00  9.000E+00
      25     1     1     2     0     0 -1.244716708E+02 -2.234243212E+02 -9.064312528E+01  2.987520717E+02  1.250000000E+02  0.00000E+00  9.000E+00
      21     1     1     2   502   512 -3.181554511E+00 -4.340978566E+01 -7.429363691E+01  8.610503043E+01  1.651812370E-06  0.00000E+00  9.000E+00
#rwgt            1           1   2.5971163262609582E-002           8      203502           0
</event>
<event>
      5   9999  3.19816E-02  3.05430E+01 -1.00000E+00  1.52501E-01
      21    -1     0     0   502   501  0.000000000E+00  0.000000000E+00  1.913204875E+03  1.913204875E+03  0.000000000E+00  0.00000E+00  9.000E+00
      21    -1     0     0   511   502  0.000000000E+00  0.000000000E+00 -1.209317621E+02  1.209317621E+02  0.000000000E+00  0.00000E+00  9.000E+00
      25     1     1     2     0     0  2.127636820E+01  1.011645674E+02  4.068444424E+02  4.379889883E+02  1.250000000E+02  0.00000E+00  9.000E+00
      25     1     1     2     0     0  5.668590447E+00 -1.155465955E+02  1.483595136E+03  1.493339437E+03  1.250000000E+02  0.00000E+00  9.000E+00
      21     1     1     2   511   501 -2.694495865E+01  1.438202816E+01 -9.816646500E+01  1.028082116E+02  1.348699152E-06  0.00000E+00  9.000E+00
#rwgt            1           1   7.7529404920145900E-002           8      203577           0
</event>
<event>
      5   9999  3.19816E-02  4.54193E+01 -1.00000E+00  1.41499E-01
      21    -1     0     0   502   512  0.000000000E+00  0.000000000E+00  1.522569164E+02  1.522569164E+02  0.000000000E+00  0.00000E+00  9.000E+00
      21    -1     0     0   501   502  0.000000000E+00  0.000000000E+00 -1.109622272E+03  1.109622272E+03  0.000000000E+00  0.00000E+00  9.000E+00
      25     1     1     2     0     0  1.671436623E+02 -2.908430425E+02 -6.845906426E+02  7.725386897E+02  1.250000000E+02  0.00000E+00  9.000E+00
      25     1     1     2     0     0 -1.219328707E+02  2.951898087E+02 -2.807491349E+02  4.432264938E+02  1.250000000E+02  0.00000E+00  9.000E+00
      21     1     1     2   501   512 -4.521079160E+01 -4.346766137E+00  7.974421746E+00  4.611400498E+01  1.028935701E-06  0.00000E+00  9.000E+00
#rwgt            1           1   2.8197938782159364E-002           8      203698           0
</event>
<event>
      5   9999  3.19816E-02  3.29296E+01 -1.00000E+00  1.50281E-01
      21    -1     0     0   502   501  0.000000000E+00  0.000000000E+00  9.650282123E+02  9.650282123E+02  0.000000000E+00  0.00000E+00  9.000E+00
      21    -1     0     0   511   502  0.000000000E+00  0.000000000E+00 -2.657684871E+02  2.657684871E+02  0.000000000E+00  0.00000E+00  9.000E+00
      25     1     1     2     0     0  4.252708422E+02 -2.087510810E+02  4.929524006E+02  6.950247278E+02  1.250000000E+02  0.00000E+00  9.000E+00
      25     1     1     2     0     0 -4.005587505E+02  1.869870798E+02  2.043402263E+02  5.027836600E+02  1.250000000E+02  0.00000E+00  9.000E+00
      21     1     1     2   511   501 -2.471209163E+01  2.176400119E+01  1.967098193E+00  3.298831150E+01  5.979061916E-07  0.00000E+00  9.000E+00
#rwgt            1           1   2.7551816956669067E-002           8      203769           0
</event>
<event>
      5   9999  3.19816E-02  2.29546E+02 -1.00000E+00  1.09512E-01
      21    -1     0     0   502   501  0.000000000E+00  0.000000000E+00  4.387051308E+02  4.387051308E+02  0.000000000E+00  0.00000E+00  9.000E+00
      21    -1     0     0   501   512  0.000000000E+00  0.000000000E+00 -1.288221580E+03  1.288221580E+03  0.000000000E+00  0.00000E+00  9.000E+00
      25     1     1     2     0     0 -2.036782469E+02  3.091085832E+02  5.108683963E+01  3.940403655E+02  1.250000000E+02  0.00000E+00  9.000E+00
      25     1     1     2     0     0  8.303381166E+00 -4.296082560E+02 -4.816858076E+01  4.500860050E+02  1.250000000E+02  0.00000E+00  9.000E+00
      21     1     1     2   502   512  1.953748658E+02  1.204996728E+02 -8.524347081E+02  8.828003403E+02  1.078959322E-05  0.00000E+00  9.000E+00
#rwgt            1           1   2.8409925287323043E-002           8      203880           0
</event>
<event>
      5   9999  3.19816E-02  2.53881E+01 -1.00000E+00  1.58251E-01
      21    -1     0     0   502   511  0.000000000E+00  0.000000000E+00  2.619153025E+02  2.619153025E+02  0.000000000E+00  0.00000E+00  9.000E+00
      21    -1     0     0   501   502  0.000000000E+00  0.000000000E+00 -2.871897178E+03  2.871897178E+03  0.000000000E+00  0.00000E+00  9.000E+00
      25     1     1     2     0     0  2.888112900E+02  1.926188426E+02 -1.766659002E+02  4.090841234E+02  1.250000000E+02  0.00000E+00  9.000E+00
      25     1     1     2     0     0 -2.652133279E+02 -1.832545213E+02 -2.566227006E+03  2.589414291E+03  1.250000000E+02  0.00000E+00  9.000E+00
      21     1     1     2   501   511 -2.359796213E+01 -9.364321300E+00  1.329110303E+02  1.353140655E+02  4.264961200E-06  0.00000E+00  9.000E+00
#rwgt            1           1   8.6620283852183996E-002           8      203965           0
</event>
<event>
      5   9999  3.27499E-02  2.01059E+01 -1.00000E+00  1.66180E-01
      21    -1     0     0   512   501  0.000000000E+00  0.000000000E+00  1.049930573E+02  1.049930573E+02  0.000000000E+00  0.00000E+00  9.000E+00
      21    -1     0     0   501   502  0.000000000E+00  0.000000000E+00 -5.332688347E+02  5.332688347E+02  0.000000000E+00  0.00000E+00  9.000E+00
      25     1     1     2     0     0  5.272921432E+01 -1.108740107E+02 -4.029277309E+02  4.393736140E+02  1.250000000E+02  0.00000E+00  9.000E+00
      25     1     1     2     0     0 -6.392868485E+01  9.417616718E+01 -4.034341737E+01  1.738062673E+02  1.250000000E+02  0.00000E+00  9.000E+00
      21     1     1     2   512   502  1.119947053E+01  1.669784355E+01  1.499537092E+01  2.508201085E+01  4.129530925E-07  0.00000E+00  9.000E+00
#rwgt            1           1   3.1021524599981965E-002           8      204118           0
</event>
<event>
      5   9999  3.19816E-02  2.35120E+02 -1.00000E+00  1.09149E-01
      21    -1     0     0   511   501  0.000000000E+00  0.000000000E+00  1.667404931E+03  1.667404931E+03  0.000000000E+00  0.00000E+00  9.000E+00
      21    -1     0     0   501   502  0.000000000E+00  0.000000000E+00 -3.534249030E+02  3.534249030E+02  0.000000000E+00  0.00000E+00  9.000E+00
      25     1     1     2     0     0 -3.613684669E+02  6.176358525E+02  4.666081676E+02  8.633709499E+02  1.250000000E+02  0.00000E+00  9.000E+00
      25     1     1     2     0     0  1.554506571E+02 -5.041487866E+02  4.969637634E+02  7.354786794E+02  1.250000000E+02  0.00000E+00  9.000E+00
      21     1     1     2   511   502  2.059178099E+02 -1.134870659E+02  3.504080966E+02  4.219802042E+02  3.814697266E-06  0.00000E+00  9.000E+00
#rwgt            1           1   2.8470326608787139E-002           8      204299           0
</event>
<event>
      5   9999  3.19816E-02  1.13737E+02 -1.00000E+00  1.21365E-01
      21    -1     0     0   502   501  0.000000000E+00  0.000000000E+00  3.374402989E+02  3.374402989E+02  0.000000000E+00  0.00000E+00  9.000E+00
       1    -1     0     0   501     0  0.000000000E+00  0.000000000E+00 -8.972920593E+02  8.972920593E+02  0.000000000E+00  0.00000E+00  9.000E+00
      25     1     1     2     0     0  3.550690466E+02  7.463346618E+01 -2.277507848E+02  4.462506046E+02  1.250000000E+02  0.00000E+00  9.000E+00
      25     1     1     2     0     0 -2.928000205E+02  2.054304769E+01  1.057512883E+02  3.360985031E+02  1.250000000E+02  0.00000E+00  9.000E+00
       1     1     1     2   502     0 -6.226902611E+01 -9.517651387E+01 -4.378522639E+02  4.523832506E+02  0.000000000E+00  0.00000E+00  9.000E+00
#rwgt            1           1   2.7669737969307780E-002           8      204382           0
</event>
<event>
      5   9999  3.19816E-02  1.96420E+02 -1.00000E+00  1.11934E-01
       1    -1     0     0   502     0  0.000000000E+00  0.000000000E+00  1.608942734E+03  1.608942734E+03  0.000000000E+00  0.00000E+00  9.000E+00
      21    -1     0     0   501   502  0.000000000E+00  0.000000000E+00 -4.732542858E+02  4.732542858E+02  0.000000000E+00  0.00000E+00  9.000E+00
      25     1     1     2     0     0 -1.531407884E+01 -5.889218393E+02  7.069137761E+02  9.286633086E+02  1.250000000E+02  0.00000E+00  9.000E+00
      25     1     1     2     0     0  2.036345671E+02  5.330975667E+02 -9.706637247E+01  5.922051445E+02  1.250000000E+02  0.00000E+00  9.000E+00
       1     1     1     2   501     0 -1.883204883E+02  5.582427256E+01  5.258410447E+02  5.613285669E+02  1.078959322E-05  0.00000E+00  9.000E+00
#rwgt            1           1   2.9135296339779800E-002           8      204451           0
</event>
<event>
      5   9999  3.19816E-02  5.36989E+02 -1.00000E+00  9.79794E-02
       2    -1     0     0   502     0  0.000000000E+00  0.000000000E+00  8.859093471E+02  8.859093471E+02  0.000000000E+00  0.00000E+00  9.000E+00
      21    -1     0     0   501   502  0.000000000E+00  0.000000000E+00 -1.252379830E+03  1.252379830E+03  0.000000000E+00  0.00000E+00  9.000E+00
      25     1     1     2     0     0  1.570682435E+02 -4.820786962E+01 -7.864462834E+02  8.130911317E+02  1.250000000E+02  0.00000E+00  9.000E+00
      25     1     1     2     0     0 -6.779869395E+02  1.785955267E+02  1.664231842E+02  7.313578663E+02  1.250000000E+02  0.00000E+00  9.000E+00
       2     1     1     2   501     0  5.209186960E+02 -1.303876571E+02  2.535526164E+02  5.938401791E+02  1.009274029E-05  0.00000E+00  9.000E+00
#rwgt            2          18   5.9229530523571112E-004           8      204537           0
</event>
<event>
      5   9999  3.19816E-02  3.52811E+01 -1.00000E+00  1.48304E-01
      21    -1     0     0   502   501  0.000000000E+00  0.000000000E+00  1.286029686E+03  1.286029686E+03  0.000000000E+00  0.00000E+00  9.000E+00
      21    -1     0     0   511   502  0.000000000E+00  0.000000000E+00 -3.109808080E+02  3.109808080E+02  0.000000000E+00  0.00000E+00  9.000E+00
      25     1     1     2     0     0  2.966281624E+02  3.630724538E+02  7.487746937E+02  8.922434731E+02  1.250000000E+02  0.00000E+00  9.000E+00
      25     1     1     2     0     0 -3.234252062E+02 -3.860219074E+02  3.165647723E+02  6.078281271E+02  1.250000000E+02  0.00000E+00  9.000E+00
      21     1     1     2   511   501  2.679704388E+01  2.294945361E+01 -9.029058767E+01  9.693889417E+01  2.861022949E-06  0.00000E+00  9.000E+00
#rwgt            1           1   2.3290230142129421E-002           8      204556           0
</event>
<event>
      5   9999  3.19816E-02  1.67758E+02 -1.00000E+00  1.14500E-01
      21    -1     0     0   502   501  0.000000000E+00  0.000000000E+00  1.449711510E+03  1.449711510E+03  0.000000000E+00  0.00000E+00  9.000E+00
      21    -1     0     0   512   502  0.000000000E+00  0.000000000E+00 -1.357135708E+02  1.357135708E+02  0.000000000E+00  0.00000E+00  9.000E+00
      25     1     1     2     0     0  1.399277041E+02 -1.465870193E+01  1.798219836E+01  1.890581904E+02  1.250000000E+02  0.00000E+00  9.000E+00
      25     1     1     2     0     0 -2.046583873E+02 -1.401077991E+02  1.117080569E+03  1.151090461E+03  1.250000000E+02  0.00000E+00  9.000E+00
      21     1     1     2   512   501  6.473068327E+01  1.547665010E+02  1.789351711E+02  2.452764290E+02  1.907348633E-06  0.00000E+00  9.000E+00
#rwgt            1           1   2.8884596557490413E-002           8      204702           0
</event>
<event>
      5   9999  3.19816E-02  1.63328E+01 -1.00000E+00  1.73970E-01
      21    -1     0     0   502   511  0.000000000E+00  0.000000000E+00  1.425792250E+03  1.425792250E+03  0.000000000E+00  0.00000E+00  9.000E+00
      21    -1     0     0   501   502  0.000000000E+00  0.000000000E+00 -1.038203476E+03  1.038203476E+03  0.000000000E+00  0.00000E+00  9.000E+00
      25     1     1     2     0     0 -7.046400322E+02  8.463395078E+02 -8.301393356E+00  1.108378117E+03  1.250000000E+02  0.00000E+00  9.000E+00
      25     1     1     2     0     0  6.953338779E+02 -8.597616650E+02  1.659489367E+02  1.125097050E+03  1.250000000E+02  0.00000E+00  9.000E+00
      21     1     1     2   501   511  9.306154302E+00  1.342215715E+01  2.299412307E+02  2.305205596E+02  3.814697266E-06  0.00000E+00  9.000E+00
#rwgt            1           1   1.4560189404651017E-002           8      204795           0
</event>
<event>
      5   9999  3.19816E-02  2.66731E+01 -1.00000E+00  1.56672E-01
      21    -1     0     0   512   501  0.000000000E+00  0.000000000E+00  4.864621046E+01  4.864621046E+01  0.000000000E+00  0.00000E+00  9.000E+00
      21    -1     0     0   501   502  0.000000000E+00  0.000000000E+00 -5.586809437E+02  5.586809437E+02  0.000000000E+00  0.00000E+00  9.000E+00
      25     1     1     2     0     0  6.693444361E+01 -1.787676201E+01 -1.727687601E+02  2.242182928E+02  1.250000000E+02  0.00000E+00  9.000E+00
      25     1     1     2     0     0 -9.084931964E+01  6.064296520E+00 -2.962083851E+02  3.341478444E+02  1.250000000E+02  0.00000E+00  9.000E+00
      21     1     1     2   512   502  2.391487603E+01  1.181246549E+01 -4.105758805E+01  4.896101687E+01  9.536743164E-07  0.00000E+00  9.000E+00
#rwgt            1           1   5.7501696742464560E-002           8      205042           0
</event>
<event>
      5   9999  3.19816E-02  3.29333E+01 -1.00000E+00  1.50278E-01
      21    -1     0     0   502   511  0.000000000E+00  0.000000000E+00  8.748615600E+02  8.748615600E+02  0.000000000E+00  0.00000E+00  9.000E+00
      21    -1     0     0   501   502  0.000000000E+00  0.000000000E+00 -2.910252911E+02  2.910252911E+02  0.000000000E+00  0.00000E+00  9.000E+00
      25     1     1     2     0     0  4.402263175E+01 -1.952295346E+01  4.674961326E+02  4.863093375E+02  1.250000000E+02  0.00000E+00  9.000E+00
      25     1     1     2     0     0 -1.169032411E+01  2.578569982E+01 -2.662923582E+02  2.955303471E+02  1.250000000E+02  0.00000E+00  9.000E+00
      21     1     1     2   501   511 -3.233230764E+01 -6.262746360E+00  3.826324946E+02  3.840471664E+02  5.394796609E-06  0.00000E+00  9.000E+00
#rwgt            1           1   3.1945293290767535E-002           8      205147           0
</event>
<event>
      5   9999  3.19816E-02  2.62941E+02 -1.00000E+00  1.07487E-01
      21    -1     0     0   502   512  0.000000000E+00  0.000000000E+00  7.269165271E+02  7.269165271E+02  0.000000000E+00  0.00000E+00  9.000E+00
      21    -1     0     0   501   502  0.000000000E+00  0.000000000E+00 -3.226209284E+03  3.226209284E+03  0.000000000E+00  0.00000E+00  9.000E+00
      25     1     1     2     0     0 -6.915894044E+02 -2.748153005E+01 -1.463518570E+03  1.623749594E+03  1.250000000E+02  0.00000E+00  9.000E+00
      25     1     1     2     0     0  6.946710582E+02  2.904041208E+02 -1.563459837E+03  1.739808637E+03  1.250000000E+02  0.00000E+00  9.000E+00
      21     1     1     2   501   512 -3.081653761E+00 -2.629225907E+02  5.276856505E+02  5.895675797E+02  1.078959322E-05  0.00000E+00  9.000E+00
#rwgt            2          11   1.6157681058539770E-002           8      205379           0
</event>
<event>
      5   9999  3.19816E-02  2.58907E+01 -1.00000E+00  1.57620E-01
      -2    -1     0     0     0   501  0.000000000E+00  0.000000000E+00  6.212245534E+02  6.212245534E+02  0.000000000E+00  0.00000E+00  9.000E+00
      21    -1     0     0   501   502  0.000000000E+00  0.000000000E+00 -1.865107862E+02  1.865107862E+02  0.000000000E+00  0.00000E+00  9.000E+00
      25     1     1     2     0     0  1.666154094E+02  1.775825284E+02  3.435464428E+01  2.758649862E+02  1.250000000E+02  0.00000E+00  9.000E+00
      25     1     1     2     0     0 -1.915558779E+02 -1.706324996E+02  2.502698858E+02  3.795643819E+02  1.250000000E+02  0.00000E+00  9.000E+00
      -2     1     1     2     0   502  2.494046854E+01 -6.950028810E+00  1.500892371E+02  1.523059715E+02  0.000000000E+00  0.00000E+00  9.000E+00
#rwgt            1           1   2.8514473590376576E-002           8      205414           0
</event>
<event>
      5   9999  3.19816E-02  2.25349E+01 -1.00000E+00  1.62204E-01
      21    -1     0     0   502   501  0.000000000E+00  0.000000000E+00  2.995838514E+01  2.995838514E+01  0.000000000E+00  0.00000E+00  9.000E+00
      21    -1     0     0   511   502  0.000000000E+00  0.000000000E+00 -1.282380031E+03  1.282380031E+03  0.000000000E+00  0.00000E+00  9.000E+00
      25     1     1     2     0     0  7.316207145E+00  1.184916836E+02 -4.845526351E+02  5.143054172E+02  1.250000000E+02  0.00000E+00  9.000E+00
      25     1     1     2     0     0 -2.869067136E+01 -1.113535450E+02 -4.778068207E+02  5.070967605E+02  1.250000000E+02  0.00000E+00  9.000E+00
      21     1     1     2   511   501  2.137446421E+01 -7.138138565E+00 -2.900621902E+02  2.909362385E+02  3.814697266E-06  0.00000E+00  9.000E+00
#rwgt            1           1   3.1009929839399084E-002           8      205588           0
</event>
<event>
      5   9999  3.19816E-02  6.92512E+01 -1.00000E+00  1.31458E-01
      21    -1     0     0   502   501  0.000000000E+00  0.000000000E+00  5.428766923E+02  5.428766923E+02  0.000000000E+00  0.00000E+00  9.000E+00
      21    -1     0     0   512   502  0.000000000E+00  0.000000000E+00 -1.156689788E+03  1.156689788E+03  0.000000000E+00  0.00000E+00  9.000E+00
      25     1     1     2     0     0 -4.657660945E+01  5.039030697E+02 -6.283904748E+02  8.164479610E+02  1.250000000E+02  0.00000E+00  9.000E+00
      25     1     1     2     0     0  3.392270433E+01 -4.358178013E+02  3.289695575E+02  5.611896966E+02  1.250000000E+02  0.00000E+00  9.000E+00
      21     1     1     2   512   501  1.265390512E+01 -6.808526837E+01 -3.143921788E+02  3.219288231E+02  6.607249480E-06  0.00000E+00  9.000E+00
#rwgt            1           1   3.0180518142893624E-002           8      205684           0
</event>
<event>
      5   9999  3.19816E-02  4.59292E+01 -1.00000E+00  1.41213E-01
      21    -1     0     0   502   501  0.000000000E+00  0.000000000E+00  1.839971710E+02  1.839971710E+02  0.000000000E+00  0.00000E+00  9.000E+00
      21    -1     0     0   501   511  0.000000000E+00  0.000000000E+00 -1.187910668E+03  1.187910668E+03  0.000000000E+00  0.00000E+00  9.000E+00
      25     1     1     2     0     0 -1.999944732E+02 -2.393737977E+02 -7.984825703E+02  8.663123105E+02  1.250000000E+02  0.00000E+00  9.000E+00
      25     1     1     2     0     0  1.928734110E+02  1.940000451E+02 -5.877784445E+00  3.008250630E+02  1.250000000E+02  0.00000E+00  9.000E+00
      21     1     1     2   502   511  7.121062173E+00  4.537375258E+01 -1.995531421E+02  2.047704654E+02  0.000000000E+00  0.00000E+00  9.000E+00
#rwgt            1           1   2.8892916185206646E-002           8      205805           0
</event>
<event>
      5   9999  3.19816E-02  1.11431E+02 -1.00000E+00  1.21750E-01
      21    -1     0     0   502   501  0.000000000E+00  0.000000000E+00  3.105903046E+02  3.105903046E+02  0.000000000E+00  0.00000E+00  9.000E+00
       1    -1     0     0   501     0  0.000000000E+00  0.000000000E+00 -4.928090798E+03  4.928090798E+03  0.000000000E+00  0.00000E+00  9.000E+00
      25     1     1     2     0     0  3.309981870E+02  2.202114644E+02 -3.846837975E+03  3.869346236E+03  1.250000000E+02  0.00000E+00  9.000E+00
      25     1     1     2     0     0 -2.979620054E+02 -3.266327708E+02  1.174770520E+02  4.742322019E+02  1.250000000E+02  0.00000E+00  9.000E+00
       1     1     1     2   502     0 -3.303618159E+01  1.064213064E+02 -8.881395703E+02  8.951026645E+02  1.078959322E-05  0.00000E+00  9.000E+00
#rwgt            1           1   2.3523909215721190E-002           8      205967           0
</event>
<event>
      5   9999  3.19816E-02  7.26097E+00 -1.00000E+00  2.13331E-01
      21    -1     0     0   511   501  0.000000000E+00  0.000000000E+00  3.357106239E+02  3.357106239E+02  0.000000000E+00  0.00000E+00  9.000E+00
      21    -1     0     0   501   502  0.000000000E+00  0.000000000E+00 -1.862307973E+03  1.862307973E+03  0.000000000E+00  0.00000E+00  9.000E+00
      25     1     1     2     0     0  4.273814673E+01 -2.620164608E+02 -1.446904052E+03  1.476358869E+03  1.250000000E+02  0.00000E+00  9.000E+00
      25     1     1     2     0     0 -4.969451885E+01  2.599354510E+02 -3.471729531E+02  4.540815381E+02  1.250000000E+02  0.00000E+00  9.000E+00
      21     1     1     2   511   502  6.956372125E+00  2.081009810E+00  2.674796555E+02  2.675781901E+02  1.009274029E-05  0.00000E+00  9.000E+00
#rwgt            1           1   2.7526578395006968E-002           8      206051           0
</event>
<event>
      5   9999  3.19816E-02  7.41116E+01 -1.00000E+00  1.29977E-01
      21    -1     0     0   502   501  0.000000000E+00  0.000000000E+00  1.163642967E+02  1.163642967E+02  0.000000000E+00  0.00000E+00  9.000E+00
      21    -1     0     0   501   512  0.000000000E+00  0.000000000E+00 -2.482193107E+03  2.482193107E+03  0.000000000E+00  0.00000E+00  9.000E+00
      25     1     1     2     0     0  3.026428857E+01  3.700496209E+02 -1.265344413E+03  1.324603386E+03  1.250000000E+02  0.00000E+00  9.000E+00
      25     1     1     2     0     0  4.146656572E+01 -3.886834282E+02 -4.120904221E+02  5.815821519E+02  1.250000000E+02  0.00000E+00  9.000E+00
      21     1     1     2   502   512 -7.173085428E+01  1.863380726E+01 -6.883939759E+02  6.923718656E+02  7.629394531E-06  0.00000E+00  9.000E+00
#rwgt            1           1   2.8762036100308194E-002           8      206262           0
</event>
<event>
      5   9999  3.19816E-02  1.81783E+01 -1.00000E+00  1.69866E-01
       3    -1     0     0   502     0  0.000000000E+00  0.000000000E+00  8.841096211E+02  8.841096211E+02  0.000000000E+00  0.00000E+00  9.000E+00
      21    -1     0     0   501   502  0.000000000E+00  0.000000000E+00 -1.054828428E+02  1.054828428E+02  0.000000000E+00  0.00000E+00  9.000E+00
      25     1     1     2     0     0 -7.189089678E+01  1.091498956E+02  2.343747925E+01  1.823631437E+02  1.250000000E+02  0.00000E+00  9.000E+00
      25     1     1     2     0     0  6.256334182E+01 -9.354712685E+01  2.476655734E+02  2.993801478E+02  1.250000000E+02  0.00000E+00  9.000E+00
       3     1     1     2   501     0  9.327554957E+00 -1.560276874E+01  5.075237257E+02  5.078491723E+02  1.078959322E-05  0.00000E+00  9.000E+00
#rwgt            1           1   2.8462277617893151E-002           8      206366           0
</event>
<event>
      5   9999  3.19816E-02  4.08050E+02 -1.00000E+00  1.01426E-01
      21    -1     0     0   502   511  0.000000000E+00  0.000000000E+00  1.858963415E+03  1.858963415E+03  0.000000000E+00  0.00000E+00  9.000E+00
      21    -1     0     0   501   502  0.000000000E+00  0.000000000E+00 -2.573470635E+02  2.573470635E+02  0.000000000E+00  0.00000E+00  9.000E+00
      25     1     1     2     0     0  1.074100885E+02 -1.100068842E+01 -1.433646645E+02  2.187152699E+02  1.250000000E+02  0.00000E+00  9.000E+00
      25     1     1     2     0     0  2.835600005E+02  1.278213020E+02  8.620772439E+02  9.249576928E+02  1.250000000E+02  0.00000E+00  9.000E+00
      21     1     1     2   501   511 -3.909700890E+02 -1.168206136E+02  8.829037726E+02  9.726375162E+02  1.525878906E-05  0.00000E+00  9.000E+00
#rwgt            2          11   1.4612823045521107E-003           8      206529           0
</event>
<event>
      5   9999  3.19816E-02  3.82589E+01 -1.00000E+00  1.46049E-01
      21    -1     0     0   512   501  0.000000000E+00  0.000000000E+00  3.064647092E+02  3.064647092E+02  0.000000000E+00  0.00000E+00  9.000E+00
      21    -1     0     0   501   502  0.000000000E+00  0.000000000E+00 -4.169022281E+03  4.169022281E+03  0.000000000E+00  0.00000E+00  9.000E+00
      25     1     1     2     0     0  9.225621982E+02 -8.050257892E+01 -2.206195763E+03  2.395939570E+03  1.250000000E+02  0.00000E+00  9.000E+00
      25     1     1     2     0     0 -9.120218282E+02  4.372426765E+01 -1.750310636E+03  1.978107163E+03  1.250000000E+02  0.00000E+00  9.000E+00
      21     1     1     2   512   502 -1.054036994E+01  3.677831128E+01  9.394882768E+01  1.014402573E+02  1.907348633E-06  0.00000E+00  9.000E+00
#rwgt            1           1   1.4289254650044983E-002           8      206549           0
</event>
<event>
      5   9999  3.19816E-02  6.40556E+01 -1.00000E+00  1.33203E-01
      21    -1     0     0   502   501  0.000000000E+00  0.000000000E+00  2.645517244E+02  2.645517244E+02  0.000000000E+00  0.00000E+00  9.000E+00
       2    -1     0     0   501     0  0.000000000E+00  0.000000000E+00 -1.123644739E+03  1.123644739E+03  0.000000000E+00  0.00000E+00  9.000E+00
      25     1     1     2     0     0  1.196276789E+02 -3.128068479E+02 -6.905398418E+01  3.640774071E+02  1.250000000E+02  0.00000E+00  9.000E+00
      25     1     1     2     0     0 -1.807597173E+02  2.936758011E+02 -1.761676599E+02  4.069147281E+02  1.250000000E+02  0.00000E+00  9.000E+00
       2     1     1     2   502     0  6.113203835E+01  1.913104673E+01 -6.138713706E+02  6.172043282E+02  0.000000000E+00  0.00000E+00  9.000E+00
#rwgt            1           1   2.9113772009043064E-002           8      206751           0
</event>
<event>
      5   9999  3.19816E-02  1.50442E+02 -1.00000E+00  1.16343E-01
      21    -1     0     0   502   511  0.000000000E+00  0.000000000E+00  5.826893549E+01  5.826893549E+01  0.000000000E+00  0.00000E+00  9.000E+00
      21    -1     0     0   501   502  0.000000000E+00  0.000000000E+00 -2.336488721E+03  2.336488721E+03  0.000000000E+00  0.00000E+00  9.000E+00
      25     1     1     2     0     0  1.171219271E+01  1.960610670E+02 -9.183837539E+02  9.474338166E+02  1.250000000E+02  0.00000E+00  9.000E+00
      25     1     1     2     0     0  8.733869102E+01 -3.092945609E+02 -9.237833389E+02  9.860485939E+02  1.250000000E+02  0.00000E+00  9.000E+00
      21     1     1     2   501   511 -9.905088373E+01  1.132334939E+02 -4.360526923E+02  4.612752456E+02  5.394796609E-06  0.00000E+00  9.000E+00
#rwgt            1           1   2.5785426323205195E-002           8      206881           0
</event>
<event>
      5   9999  3.19816E-02  5.69641E+01 -1.00000E+00  1.35920E-01
      21    -1     0     0   502   512  0.000000000E+00  0.000000000E+00  1.290399176E+03  1.290399176E+03  0.000000000E+00  0.00000E+00  9.000E+00
      21    -1     0     0   501   502  0.000000000E+00  0.000000000E+00 -1.514819314E+03  1.514819314E+03  0.000000000E+00  0.00000E+00  9.000E+00
      25     1     1     2     0     0  5.228905551E+02 -4.701670840E+02 -3.325753185E+02  7.878470422E+02  1.250000000E+02  0.00000E+00  9.000E+00
      25     1     1     2     0     0 -5.647962119E+02  5.087524204E+02 -7.981513461E+02  1.109276502E+03  1.250000000E+02  0.00000E+00  9.000E+00
      21     1     1     2   501   512  4.190565675E+01 -3.858533635E+01  9.063065261E+02  9.080949463E+02  0.000000000E+00  0.00000E+00  9.000E+00
#rwgt            1           1   2.4820519257914290E-002           8      206937           0
</event>
<event>
      5   9999  3.19816E-02  5.37880E+01 -1.00000E+00  1.37290E-01
      21    -1     0     0   511   501  0.000000000E+00  0.000000000E+00  1.602481839E+03  1.602481839E+03  0.000000000E+00  0.00000E+00  9.000E+00
      21    -1     0     0   501   502  0.000000000E+00  0.000000000E+00 -2.816258506E+02  2.816258506E+02  0.000000000E+00  0.00000E+00  9.000E+00
      25     1     1     2     0     0  1.940218295E+02  2.166445951E+01 -2.269934660E+01  2.329250511E+02  1.250000000E+02  0.00000E+00  9.000E+00
      25     1     1     2     0     0 -2.142489531E+02 -7.150432934E+01 -4.461112460E+01  2.619744939E+02  1.250000000E+02  0.00000E+00  9.000E+00
      21     1     1     2   511   502  2.022712369E+01  4.983986983E+01  1.388166459E+03  1.389208144E+03  0.000000000E+00  0.00000E+00  9.000E+00
#rwgt            1           1   2.5969454090505557E-002           8      207090           0
</event>
<event>
      5   9999  3.19816E-02  4.60657E+01 -1.00000E+00  1.41137E-01
      21    -1     0     0   502   501  0.000000000E+00  0.000000000E+00  9.088971526E+01  9.088971526E+01  0.000000000E+00  0.00000E+00  9.000E+00
      21    -1     0     0   512   502  0.000000000E+00  0.000000000E+00 -7.334957004E+02  7.334957004E+02  0.000000000E+00  0.00000E+00  9.000E+00
      25     1     1     2     0     0 -1.302883913E+02  6.733399393E+01 -8.685610382E+01  2.113715081E+02  1.250000000E+02  0.00000E+00  9.000E+00
      25     1     1     2     0     0  1.291564287E+02 -1.133857847E+02 -4.638304003E+02  5.101973731E+02  1.250000000E+02  0.00000E+00  9.000E+00
      21     1     1     2   512   501  1.131962555E+00  4.605179082E+01 -9.191948102E+01  1.028165345E+02  0.000000000E+00  0.00000E+00  9.000E+00
#rwgt            1           1   3.0959413461622468E-002           8      207154           0
</event>
<event>
      5   9999  3.19816E-02  3.62409E+01 -1.00000E+00  1.47549E-01
      21    -1     0     0   502   501  0.000000000E+00  0.000000000E+00  1.548962294E+02  1.548962294E+02  0.000000000E+00  0.00000E+00  9.000E+00
      21    -1     0     0   511   502  0.000000000E+00  0.000000000E+00 -2.272484882E+03  2.272484882E+03  0.000000000E+00  0.00000E+00  9.000E+00
      25     1     1     2     0     0  1.692966428E+02  1.875500847E+02 -2.054279724E+03  2.073529979E+03  1.250000000E+02  0.00000E+00  9.000E+00
      25     1     1     2     0     0 -1.354442212E+02 -2.004889618E+02  9.522980516E+00  2.725007303E+02  1.250000000E+02  0.00000E+00  9.000E+00
      21     1     1     2   511   501 -3.385242167E+01  1.293887714E+01 -7.283190856E+01  8.135040196E+01  0.000000000E+00  0.00000E+00  9.000E+00
#rwgt            1           1   1.9546200247611157E-002           8      207253           0
</event>
<event>
      5   9999  3.19816E-02  3.67516E+01 -1.00000E+00  1.47159E-01
      21    -1     0     0   502   512  0.000000000E+00  0.000000000E+00  2.100268223E+02  2.100268223E+02  0.000000000E+00  0.00000E+00  9.000E+00
      21    -1     0     0   501   502  0.000000000E+00  0.000000000E+00 -2.221061474E+02  2.221061474E+02  0.000000000E+00  0.00000E+00  9.000E+00
      25     1     1     2     0     0  4.618211510E+01 -4.304558901E+01 -1.444170215E+02  2.011640788E+02  1.250000000E+02  0.00000E+00  9.000E+00
      25     1     1     2     0     0 -8.011287904E+01  2.892531877E+01  1.166201524E+02  1.909974015E+02  1.250000000E+02  0.00000E+00  9.000E+00
      21     1     1     2   501   512  3.393076394E+01  1.412027025E+01  1.571754407E+01  3.997148940E+01  5.840038640E-07  0.00000E+00  9.000E+00
#rwgt            1           1   2.7748265576244727E-002           8      207389           0
</event>
<event>
      5   9999  3.19816E-02  1.37335E+01 -1.00000E+00  1.81070E-01
      21    -1     0     0   511   501  0.000000000E+00  0.000000000E+00  3.846349172E+02  3.846349172E+02  0.000000000E+00  0.00000E+00  9.000E+00
      21    -1     0     0   501   502  0.000000000E+00  0.000000000E+00 -4.094834397E+02  4.094834397E+02  0.000000000E+00  0.00000E+00  9.000E+00
      25     1     1     2     0     0  1.618049786E+02 -1.524141477E+01  1.068201445E+01  2.053101489E+02  1.250000000E+02  0.00000E+00  9.000E+00
      25     1     1     2     0     0 -1.574601314E+02  2.213317495E+00 -2.795831628E+02  3.443694770E+02  1.250000000E+02  0.00000E+00  9.000E+00
      21     1     1     2   511   502 -4.344847205E+00  1.302809727E+01  2.440526259E+02  2.444387310E+02  2.697398305E-06  0.00000E+00  9.000E+00
#rwgt            1           1   2.9975745698801959E-002           8      207524           0
</event>
<event>
      5   9999  3.19816E-02  4.75106E+01 -1.00000E+00  1.40353E-01
      21    -1     0     0   502   501  0.000000000E+00  0.000000000E+00  1.354511862E+02  1.354511862E+02  0.000000000E+00  0.00000E+00  9.000E+00
      21    -1     0     0   512   502  0.000000000E+00  0.000000000E+00 -1.508887637E+03  1.508887637E+03  0.000000000E+00  0.00000E+00  9.000E+00
      25     1     1     2     0     0 -4.034983441E+01  1.463371984E+02  3.624221662E+01  1.999529520E+02  1.250000000E+02  0.00000E+00  9.000E+00
      25     1     1     2     0     0 -6.981231525E+00 -1.422113561E+02 -5.200381970E+02  5.534776723E+02  1.250000000E+02  0.00000E+00  9.000E+00
      21     1     1     2   512   501  4.733106594E+01 -4.125842276E+00 -8.896404701E+02  8.909081986E+02  0.000000000E+00  0.00000E+00  9.000E+00
#rwgt            1           1   2.6601461553520382E-002           8      207709           0
</event>
<event>
      5   9999  3.19816E-02  7.53049E+01 -1.00000E+00  1.29634E-01
      21    -1     0     0   511   501  0.000000000E+00  0.000000000E+00  4.232285776E+02  4.232285776E+02  0.000000000E+00  0.00000E+00  9.000E+00
      21    -1     0     0   501   502  0.000000000E+00  0.000000000E+00 -1.708290071E+03  1.708290071E+03  0.000000000E+00  0.00000E+00  9.000E+00
      25     1     1     2     0     0  3.518771573E+02 -2.668762691E+02 -1.216673220E+01  4.591443196E+02  1.250000000E+02  0.00000E+00  9.000E+00
      25     1     1     2     0     0 -3.322747148E+02  3.395850974E+02 -1.422468220E+03  1.504913739E+03  1.250000000E+02  0.00000E+00  9.000E+00
      21     1     1     2   511   502 -1.960244253E+01 -7.270882837E+01  1.495734591E+02  1.674605898E+02  0.000000000E+00  0.00000E+00  9.000E+00
#rwgt            1           1   2.4332350305623255E-002           8      207809           0
</event>
<event>
      5   9999  3.19816E-02  2.02295E+02 -1.00000E+00  1.11468E-01
      -4    -1     0     0     0   501  0.000000000E+00  0.000000000E+00  2.849880997E+02  2.849880997E+02  0.000000000E+00  0.00000E+00  9.000E+00
      21    -1     0     0   501   502  0.000000000E+00  0.000000000E+00 -1.290445173E+03  1.290445173E+03  0.000000000E+00  0.00000E+00  9.000E+00
      25     1     1     2     0     0 -1.532230818E+02 -2.112393849E+02 -8.952355469E+02  9.408353071E+02  1.250000000E+02  0.00000E+00  9.000E+00
      25     1     1     2     0     0 -4.355149608E+01  2.581780052E+02 -2.546495328E+02  3.860362674E+02  1.250000000E+02  0.00000E+00  9.000E+00
      -4     1     1     2     0   502  1.967745779E+02 -4.693862026E+01  1.444280067E+02  2.485616980E+02  3.814697266E-06  0.00000E+00  9.000E+00
#rwgt            2           2   9.2795080872892186E-005           8      207957           0
</event>
<event>
      5   9999  3.19816E-02  5.80696E+01 -1.00000E+00  1.35467E-01
      21    -1     0     0   511   501  0.000000000E+00  0.000000000E+00  9.041995354E+01  9.041995354E+01  0.000000000E+00  0.00000E+00  9.000E+00
      21    -1     0     0   501   502  0.000000000E+00  0.000000000E+00 -1.254366932E+03  1.254366932E+03  0.000000000E+00  0.00000E+00  9.000E+00
      25     1     1     2     0     0  9.107768099E+01 -1.731755531E+02 -8.118832115E+02  8.444313266E+02  1.250000000E+02  0.00000E+00  9.000E+00
      25     1     1     2     0     0 -3.551894268E+01  1.562847082E+02 -3.837137728E+02  4.342208709E+02  1.250000000E+02  0.00000E+00  9.000E+00
      21     1     1     2   511   502 -5.555873831E+01  1.689084495E+01  3.165000611E+01  6.613468782E+01  1.118282261E-06  0.00000E+00  9.000E+00
#rwgt            1           1   2.8503527457539073E-002           8      207976           0
</event>
<event>
      5   9999  3.19816E-02  7.03211E+01 -1.00000E+00  1.31120E-01
      21    -1     0     0   502   501  0.000000000E+00  0.000000000E+00  1.323033184E+03  1.323033184E+03  0.000000000E+00  0.00000E+00  9.000E+00
      21    -1     0     0   501   512  0.000000000E+00  0.000000000E+00 -1.363373543E+02  1.363373543E+02  0.000000000E+00  0.00000E+00  9.000E+00
      25     1     1     2     0     0 -3.081420224E+02  2.222352013E+01  8.718507484E+02  9.333778004E+02  1.250000000E+02  0.00000E+00  9.000E+00
      25     1     1     2     0     0  2.438241275E+02  6.206392292E+00  3.522746773E+02  4.463307885E+02  1.250000000E+02  0.00000E+00  9.000E+00
      21     1     1     2   502   512  6.431789491E+01 -2.842991242E+01 -3.742959598E+01  7.966194940E+01  1.907348633E-06  0.00000E+00  9.000E+00
#rwgt            1           1   3.3965576340407644E-002           8      208085           0
</event>
<event>
      5   9999  3.19816E-02  1.58896E+02 -1.00000E+00  1.15410E-01
      21    -1     0     0   502   501  0.000000000E+00  0.000000000E+00  2.144993020E+03  2.144993020E+03  0.000000000E+00  0.00000E+00  9.000E+00
       1    -1     0     0   501     0  0.000000000E+00  0.000000000E+00 -1.707968491E+02  1.707968491E+02  0.000000000E+00  0.00000E+00  9.000E+00
      25     1     1     2     0     0  3.876784953E+02  7.337677643E+00  1.490737599E+03  1.545403522E+03  1.250000000E+02  0.00000E+00  9.000E+00
      25     1     1     2     0     0 -2.385951853E+02 -6.231257541E+01  5.359391612E+02  6.030475139E+02  1.250000000E+02  0.00000E+00  9.000E+00
       1     1     1     2   502     0 -1.490833101E+02  5.497489777E+01 -5.248058944E+01  1.673388329E+02  4.156969970E-06  0.00000E+00  9.000E+00
#rwgt            1           1   2.7194119751540239E-002           8      208173           0
</event>
<event>
      5   9999  3.19816E-02  2.24613E+01 -1.00000E+00  1.62315E-01
      21    -1     0     0   502   511  0.000000000E+00  0.000000000E+00  1.853258516E+02  1.853258516E+02  0.000000000E+00  0.00000E+00  9.000E+00
      21    -1     0     0   501   502  0.000000000E+00  0.000000000E+00 -8.280467244E+02  8.280467244E+02  0.000000000E+00  0.00000E+00  9.000E+00
      25     1     1     2     0     0  1.397941505E+02 -3.342030033E+02 -2.581609139E+02  4.620672131E+02  1.250000000E+02  0.00000E+00  9.000E+00
      25     1     1     2     0     0 -1.189595468E+02  3.258106930E+02 -3.777167481E+02  5.278247088E+02  1.250000000E+02  0.00000E+00  9.000E+00
      21     1     1     2   501   511 -2.083460371E+01  8.392310380E+00 -6.843210782E+00  2.348065414E+01  4.915124924E-07  0.00000E+00  9.000E+00
#rwgt            1           1   2.8358654203943602E-002           8      208231           0
</event>
<event>
      5   9999  3.19816E-02  1.61542E+02 -1.00000E+00  1.15132E-01
       1    -1     0     0   502     0  0.000000000E+00  0.000000000E+00  2.308893395E+03  2.308893395E+03  0.000000000E+00  0.00000E+00  9.000E+00
      21    -1     0     0   501   502  0.000000000E+00  0.000000000E+00 -9.338922759E+02  9.338922759E+02  0.000000000E+00  0.00000E+00  9.000E+00
      25     1     1     2     0     0  2.350013221E+02 -9.483127881E+02  3.179438888E+02  1.035005354E+03  1.250000000E+02  0.00000E+00  9.000E+00
      25     1     1     2     0     0 -1.141157260E+02  1.055469503E+03 -6.806617449E+01  1.071119169E+03  1.250000000E+02  0.00000E+00  9.000E+00
       1     1     1     2   501     0 -1.208855962E+02 -1.071567152E+02  1.125123405E+03  1.136661148E+03  1.525878906E-05  0.00000E+00  9.000E+00
#rwgt            1           1   3.3834667399185440E-002           8      208365           0
</event>
<event>
      5   9999  3.19816E-02  3.97698E+01 -1.00000E+00  1.44996E-01
      21    -1     0     0   502   511  0.000000000E+00  0.000000000E+00  1.882064565E+02  1.882064565E+02  0.000000000E+00  0.00000E+00  9.000E+00
      21    -1     0     0   501   502  0.000000000E+00  0.000000000E+00 -2.066275468E+02  2.066275468E+02  0.000000000E+00  0.00000E+00  9.000E+00
      25     1     1     2     0     0  9.573127803E+01  8.101033457E+01 -6.680617135E+01  1.892490857E+02  1.250000000E+02  0.00000E+00  9.000E+00
      25     1     1     2     0     0 -8.951526062E+01 -4.172935056E+01  3.157214665E+01  1.624072690E+02  1.250000000E+02  0.00000E+00  9.000E+00
      21     1     1     2   501   511 -6.216017409E+00 -3.928098401E+01  1.681293445E+01  4.317764864E+01  4.768371582E-07  0.00000E+00  9.000E+00
#rwgt            1           1   2.7359425668411808E-002           8      208435           0
</event>
<event>
      5   9999  3.19816E-02  1.51576E+01 -1.00000E+00  1.76957E-01
      21    -1     0     0   502   501  0.000000000E+00  0.000000000E+00  1.225017531E+02  1.225017531E+02  0.000000000E+00  0.00000E+00  9.000E+00
      21    -1     0     0   512   502  0.000000000E+00  0.000000000E+00 -8.056429004E+02  8.056429004E+02  0.000000000E+00  0.00000E+00  9.000E+00
      25     1     1     2     0     0 -1.351853258E+02 -6.370390097E+01 -5.971854337E+02  6.281629578E+02  1.250000000E+02  0.00000E+00  9.000E+00
      25     1     1     2     0     0  1.482342556E+02  5.599172061E+01  1.073450304E+01  2.021106055E+02  1.250000000E+02  0.00000E+00  9.000E+00
      21     1     1     2   512   501 -1.304892975E+01  7.712180355E+00 -9.669021660E+01  9.787109012E+01  0.000000000E+00  0.00000E+00  9.000E+00
#rwgt            1           1   2.7695293522490821E-002           8      208604           0
</event>
<event>
      5   9999  3.19816E-02  1.07634E+01 -1.00000E+00  1.92135E-01
      21    -1     0     0   511   501  0.000000000E+00  0.000000000E+00  1.881287354E+02  1.881287354E+02  0.000000000E+00  0.00000E+00  9.000E+00
      21    -1     0     0   501   502  0.000000000E+00  0.000000000E+00 -3.565954686E+02  3.565954686E+02  0.000000000E+00  0.00000E+00  9.000E+00
      25     1     1     2     0     0 -1.034168217E+02  6.249579577E+01  6.447478582E+01  1.854258922E+02  1.250000000E+02  0.00000E+00  9.000E+00
      25     1     1     2     0     0  1.113955773E+02 -5.527156508E+01 -2.690174788E+02  3.216509357E+02  1.250000000E+02  0.00000E+00  9.000E+00
      21     1     1     2   511   502 -7.978755623E+00 -7.224230687E+00  3.607595978E+01  3.764737606E+01  6.743495762E-07  0.00000E+00  9.000E+00
#rwgt            1           1   2.6332284842851456E-002           8      208747           0
</event>
<event>
      5   9999  3.19816E-02  7.59787E+01 -1.00000E+00  1.29443E-01
      21    -1     0     0   502   512  0.000000000E+00  0.000000000E+00  1.026064775E+02  1.026064775E+02  0.000000000E+00  0.00000E+00  9.000E+00
      21    -1     0     0   501   502  0.000000000E+00  0.000000000E+00 -1.387650217E+03  1.387650217E+03  0.000000000E+00  0.00000E+00  9.000E+00
      25     1     1     2     0     0  1.790666587E+01  1.236146782E+02 -1.115929911E+03  1.129834414E+03  1.250000000E+02  0.00000E+00  9.000E+00
      25     1     1     2     0     0  4.647043872E+01 -1.639675468E+02 -1.871826025E+02  2.823246088E+02  1.250000000E+02  0.00000E+00  9.000E+00
      21     1     1     2   501   512 -6.437710459E+01  4.035286864E+01  1.806877447E+01  7.809767099E+01  1.846782373E-06  0.00000E+00  9.000E+00
#rwgt            1           1   3.4100989234922711E-002           8      209089           0
</event>
<event>
      5   9999  3.19816E-02  1.41662E+02 -1.00000E+00  1.17387E-01
      21    -1     0     0   502   511  0.000000000E+00  0.000000000E+00  7.980600103E+01  7.980600103E+01  0.000000000E+00  0.00000E+00  9.000E+00
      21    -1     0     0   501   502  0.000000000E+00  0.000000000E+00 -9.860811189E+02  9.860811189E+02  0.000000000E+00  0.00000E+00  9.000E+00
      25     1     1     2     0     0 -1.324234218E+02 -1.712437838E+02 -4.172438869E+02  4.863926986E+02  1.250000000E+02  0.00000E+00  9.000E+00
      25     1     1     2     0     0  1.096737350E+02  3.142019002E+01 -2.682810064E+02  3.171990777E+02  1.250000000E+02  0.00000E+00  9.000E+00
      21     1     1     2   501   511  2.274968683E+01  1.398235938E+02 -2.207502246E+02  2.622953436E+02  0.000000000E+00  0.00000E+00  9.000E+00
#rwgt            2          11   2.7663498560289196E-003           8      209260           0
</event>
<event>
      5   9999  3.19816E-02  1.01747E+01 -1.00000E+00  1.94892E-01
      21    -1     0     0   502   501  0.000000000E+00  0.000000000E+00  1.747571318E+02  1.747571318E+02  0.000000000E+00  0.00000E+00  9.000E+00
      21    -1     0     0   501   512  0.000000000E+00  0.000000000E+00 -4.873692721E+02  4.873692721E+02  0.000000000E+00  0.00000E+00  9.000E+00
      25     1     1     2     0     0 -8.736089181E+01  2.100125358E+02 -2.320559349E+01  2.605776088E+02  1.250000000E+02  0.00000E+00  9.000E+00
      25     1     1     2     0     0  8.709281805E+01 -2.201836990E+02 -2.741368182E+02  3.831997069E+02  1.250000000E+02  0.00000E+00  9.000E+00
      21     1     1     2   502   512  2.680737613E-01  1.017116318E+01 -1.526972867E+01  1.834908820E+01  2.920019320E-07  0.00000E+00  9.000E+00
#rwgt            1           1   2.6718617994053256E-002           8      209325           0
</event>
<event>
      5   9999  3.19816E-02  6.92037E+01 -1.00000E+00  1.31473E-01
      21    -1     0     0   502   501  0.000000000E+00  0.000000000E+00  1.162976315E+03  1.162976315E+03  0.000000000E+00  0.00000E+00  9.000E+00
      21    -1     0     0   501   511  0.000000000E+00  0.000000000E+00 -9.394993785E+02  9.394993785E+02  0.000000000E+00  0.00000E+00  9.000E+00
      25     1     1     2     0     0  7.694560771E+02  5.700544358E+02 -1.322219678E+02  9.747473330E+02  1.250000000E+02  0.00000E+00  9.000E+00
      25     1     1     2     0     0 -7.036494283E+02 -5.486386351E+02  4.529069173E+02  1.008402968E+03  1.250000000E+02  0.00000E+00  9.000E+00
      21     1     1     2   502   511 -6.580664879E+01 -2.141580069E+01 -9.720801305E+01  1.193253927E+02  0.000000000E+00  0.00000E+00  9.000E+00
#rwgt            1           1   4.0248489622209817E-002           8      209524           0
</event>
<event>
      5   9999  3.19816E-02  4.59098E+02 -1.00000E+00  9.99165E-02
      21    -1     0     0   502   512  0.000000000E+00  0.000000000E+00  7.324041638E+02  7.324041638E+02  0.000000000E+00  0.00000E+00  9.000E+00
      21    -1     0     0   501   502  0.000000000E+00  0.000000000E+00 -1.566244201E+03  1.566244201E+03  0.000000000E+00  0.00000E+00  9.000E+00
      25     1     1     2     0     0  1.335535742E+02 -3.571159683E+02 -1.235454339E+03  1.298976827E+03  1.250000000E+02  0.00000E+00  9.000E+00
      25     1     1     2     0     0 -3.223099427E+02 -6.138354286E+01 -5.121865747E+01  3.548238850E+02  1.250000000E+02  0.00000E+00  9.000E+00
      21     1     1     2   501   512  1.887563684E+02  4.184995112E+02  4.528329591E+02  6.448476535E+02  5.394796609E-06  0.00000E+00  9.000E+00
#rwgt            2          11   3.6819083991688740E-003           8      209707           0
</event>
<event>
      5   9999  3.19816E-02  2.55083E+01 -1.00000E+00  1.58099E-01
      21    -1     0     0   502   501  0.000000000E+00  0.000000000E+00  2.646754649E+02  2.646754649E+02  0.000000000E+00  0.00000E+00  9.000E+00
      21    -1     0     0   501   511  0.000000000E+00  0.000000000E+00 -2.752390974E+02  2.752390974E+02  0.000000000E+00  0.00000E+00  9.000E+00
      25     1     1     2     0     0  4.446982443E+01  2.075411879E+02 -4.614509687E+01  2.506098161E+02  1.250000000E+02  0.00000E+00  9.000E+00
      25     1     1     2     0     0 -2.745254119E+01 -2.265434286E+02  4.050039368E+01  2.633265063E+02  1.250000000E+02  0.00000E+00  9.000E+00
      21     1     1     2   502   511 -1.701728324E+01  1.900224069E+01 -4.918929342E+00  2.597823985E+01  4.086288572E-07  0.00000E+00  9.000E+00
#rwgt            1           1   2.6465608666472348E-002           8      209727           0
</event>
<event>
      5   9999  3.19816E-02  6.94562E+01 -1.00000E+00  1.31392E-01
       2    -1     0     0   502     0  0.000000000E+00  0.000000000E+00  1.455637737E+02  1.455637737E+02  0.000000000E+00  0.00000E+00  9.000E+00
      21    -1     0     0   501   502  0.000000000E+00  0.000000000E+00 -1.216242823E+03  1.216242823E+03  0.000000000E+00  0.00000E+00  9.000E+00
      25     1     1     2     0     0  2.354617275E+02 -5.897163379E-01 -5.923145928E+02  6.495414919E+02  1.250000000E+02  0.00000E+00  9.000E+00
      25     1     1     2     0     0 -2.270710563E+02  6.953720176E+01 -5.503119249E+02  6.122621185E+02  1.250000000E+02  0.00000E+00  9.000E+00
       2     1     1     2   501     0 -8.390671204E+00 -6.894748542E+01  7.194746820E+01  1.000029864E+02  2.336015456E-06  0.00000E+00  9.000E+00
#rwgt            1           1   2.9476673469893147E-002           8      209811           0
</event>
<event>
      5   9999  3.19816E-02  5.51615E+01 -1.00000E+00  1.36684E-01
      21    -1     0     0   511   501  0.000000000E+00  0.000000000E+00  2.165478710E+03  2.165478710E+03  0.000000000E+00  0.00000E+00  9.000E+00
      21    -1     0     0   501   502  0.000000000E+00  0.000000000E+00 -5.702386344E+02  5.702386344E+02  0.000000000E+00  0.00000E+00  9.000E+00
      25     1     1     2     0     0  2.099116694E+02 -3.216344496E+02 -4.732229918E+02  6.221548265E+02  1.250000000E+02  0.00000E+00  9.000E+00
      25     1     1     2     0     0 -2.328932463E+02  2.714883117E+02  1.782341593E+03  1.822172253E+03  1.250000000E+02  0.00000E+00  9.000E+00
      21     1     1     2   511   502  2.298157686E+01  5.014613787E+01  2.861214748E+02  2.913902647E+02  5.394796609E-06  0.00000E+00  9.000E+00
#rwgt            1           1   2.7401479644397982E-002           8      209868           0
</event>
<event>
      5   9999  3.19816E-02  6.08069E+01 -1.00000E+00  1.34394E-01
      21    -1     0     0   512   501  0.000000000E+00  0.000000000E+00  1.223258005E+03  1.223258005E+03  0.000000000E+00  0.00000E+00  9.000E+00
      21    -1     0     0   501   502  0.000000000E+00  0.000000000E+00 -1.005109686E+02  1.005109686E+02  0.000000000E+00  0.00000E+00  9.000E+00
      25     1     1     2     0     0 -9.483237352E+01 -1.122375075E+01  9.563496848E+02  9.692001193E+02  1.250000000E+02  0.00000E+00  9.000E+00
      25     1     1     2     0     0  1.513183711E+02  3.373621327E+01  2.507700748E+01  2.007217921E+02  1.250000000E+02  0.00000E+00  9.000E+00
      21     1     1     2   512   502 -5.648599762E+01 -2.251246252E+01  1.413203439E+02  1.538470620E+02  2.697398305E-06  0.00000E+00  9.000E+00
#rwgt            1           1   3.3172193277127941E-002           8      210043           0
</event>
<event>
      5   9999  3.19816E-02  1.95229E+02 -1.00000E+00  1.12031E-01
      21    -1     0     0   502   511  0.000000000E+00  0.000000000E+00  2.600021092E+03  2.600021092E+03  0.000000000E+00  0.00000E+00  9.000E+00
      21    -1     0     0   501   502  0.000000000E+00  0.000000000E+00 -2.364687365E+02  2.364687365E+02  0.000000000E+00  0.00000E+00  9.000E+00
      25     1     1     2     0     0  1.683257185E+02 -3.132655108E+02  7.552591158E+01  3.844450430E+02  1.250000000E+02  0.00000E+00  9.000E+00
      25     1     1     2     0     0 -3.567048379E+02  2.620037449E+02  6.164349227E+02  7.690912285E+02  1.250000000E+02  0.00000E+00  9.000E+00
      21     1     1     2   501   511  1.883791194E+02  5.126176591E+01  1.671591521E+03  1.682953557E+03  2.157918644E-05  0.00000E+00  9.000E+00
#rwgt            1           1   2.8955074197953297E-002           8      210114           0
</event>
<event>
      5   9999  3.19816E-02  1.24416E+02 -1.00000E+00  1.19706E-01
      21    -1     0     0   512   501  0.000000000E+00  0.000000000E+00  2.758910835E+02  2.758910835E+02  0.000000000E+00  0.00000E+00  9.000E+00
      21    -1     0     0   501   502  0.000000000E+00  0.000000000E+00 -1.403217476E+03  1.403217476E+03  0.000000000E+00  0.00000E+00  9.000E+00
      25     1     1     2     0     0 -1.066830118E+02  5.264001914E+02 -3.353465985E+02  6.454151901E+02  1.250000000E+02  0.00000E+00  9.000E+00
      25     1     1     2     0     0  7.543748210E+01 -4.059718413E+02 -8.001090610E+02  9.090123536E+02  1.250000000E+02  0.00000E+00  9.000E+00
      21     1     1     2   512   502  3.124552965E+01 -1.204283501E+02  8.129267192E+00  1.246810155E+02  1.638856779E-06  0.00000E+00  9.000E+00
#rwgt            1           1   2.9155881622787806E-002           8      210178           0
</event>
<event>
      5   9999  3.19816E-02  4.60985E+01 -1.00000E+00  1.41119E-01
      21    -1     0     0   502   501  0.000000000E+00  0.000000000E+00  6.742072009E+02  6.742072009E+02  0.000000000E+00  0.00000E+00  9.000E+00
      21    -1     0     0   501   511  0.000000000E+00  0.000000000E+00 -9.456768504E+02  9.456768504E+02  0.000000000E+00  0.00000E+00  9.000E+00
      25     1     1     2     0     0 -3.326099908E+02 -3.664375421E+02  2.202583017E+01  5.108972650E+02  1.250000000E+02  0.00000E+00  9.000E+00
      25     1     1     2     0     0  3.593919833E+02  3.289169087E+02  2.512958076E+02  5.622486224E+02  1.250000000E+02  0.00000E+00  9.000E+00
      21     1     1     2   502   511 -2.678199253E+01  3.752063340E+01 -5.447912873E+02  5.467381638E+02  1.078959322E-05  0.00000E+00  9.000E+00
#rwgt            1           1   2.9701436744853201E-002           8      210253           0
</event>
<event>
      5   9999  3.19816E-02  4.35880E+01 -1.00000E+00  1.42564E-01
      21    -1     0     0   502   501  0.000000000E+00  0.000000000E+00  1.470606737E+03  1.470606737E+03  0.000000000E+00  0.00000E+00  9.000E+00
       2    -1     0     0   501     0  0.000000000E+00  0.000000000E+00 -3.649182290E+03  3.649182290E+03  0.000000000E+00  0.00000E+00  9.000E+00
      25     1     1     2     0     0 -4.912416334E+02 -4.683434745E+02  1.012406390E+03  1.225257382E+03  1.250000000E+02  0.00000E+00  9.000E+00
      25     1     1     2     0     0  4.510568684E+02  4.852282629E+02  2.847001037E+01  6.747846376E+02  1.250000000E+02  0.00000E+00  9.000E+00
       2     1     1     2   502     0  4.018476496E+01 -1.688478835E+01 -3.219451953E+03  3.219747007E+03  4.315837288E-05  0.00000E+00  9.000E+00
#rwgt            1           1   3.8198596845737280E-002           8      210388           0
</event>
<event>
      5   9999  3.19816E-02  1.08010E+02 -1.00000E+00  1.22341E-01
      21    -1     0     0   511   501  0.000000000E+00  0.000000000E+00  1.520868754E+03  1.520868754E+03  0.000000000E+00  0.00000E+00  9.000E+00
      21    -1     0     0   501   502  0.000000000E+00  0.000000000E+00 -5.734007226E+01  5.734007226E+01  0.000000000E+00  0.00000E+00  9.000E+00
      25     1     1     2     0     0  8.907522273E+00 -7.942162503E+01  9.994686263E+01  1.788896694E+02  1.250000000E+02  0.00000E+00  9.000E+00
      25     1     1     2     0     0  9.704450198E+01  1.004031832E+02  1.074435519E+03  1.090658113E+03  1.250000000E+02  0.00000E+00  9.000E+00
      21     1     1     2   511   502 -1.059520243E+02 -2.098155814E+01  2.891462998E+02  3.086610438E+02  6.607249480E-06  0.00000E+00  9.000E+00
#rwgt            1           1   3.1409413098140181E-002           8      210583           0
</event>
<event>
      5   9999  3.19816E-02  2.48886E+01 -1.00000E+00  1.58896E-01
      21    -1     0     0   502   501  0.000000000E+00  0.000000000E+00  9.737697776E+01  9.737697776E+01  0.000000000E+00  0.00000E+00  9.000E+00
       2    -1     0     0   501     0  0.000000000E+00  0.000000000E+00 -3.250051132E+03  3.250051132E+03  0.000000000E+00  0.00000E+00  9.000E+00
      25     1     1     2     0     0  5.792043653E+01 -2.029307738E+02 -2.325682594E+03  2.338580810E+03  1.250000000E+02  0.00000E+00  9.000E+00
      25     1     1     2     0     0 -3.420416511E+01  1.953820769E+02 -6.074451419E+01  2.421961538E+02  1.250000000E+02  0.00000E+00  9.000E+00
       2     1     1     2   502     0 -2.371627142E+01  7.548696813E+00 -7.662470460E+02  7.666511461E+02  0.000000000E+00  0.00000E+00  9.000E+00
#rwgt            1           1   9.2970480772830891E-002           8      210666           0
</event>
<event>
      5   9999  3.19816E-02  3.14821E+01 -1.00000E+00  1.51599E-01
      21    -1     0     0   502   501  0.000000000E+00  0.000000000E+00  4.973604764E+02  4.973604764E+02  0.000000000E+00  0.00000E+00  9.000E+00
      21    -1     0     0   511   502  0.000000000E+00  0.000000000E+00 -6.719959564E+02  6.719959564E+02  0.000000000E+00  0.00000E+00  9.000E+00
      25     1     1     2     0     0  4.175820503E+02 -2.274230332E+02 -1.157974722E+01  4.917876526E+02  1.250000000E+02  0.00000E+00  9.000E+00
      25     1     1     2     0     0 -3.903701905E+02  2.115915174E+02  4.836709651E+01  4.638148681E+02  1.250000000E+02  0.00000E+00  9.000E+00
      21     1     1     2   511   501 -2.721185973E+01  1.583151585E+01 -2.114228292E+02  2.137539121E+02  0.000000000E+00  0.00000E+00  9.000E+00
#rwgt            1           1   2.5903107055208100E-002           8      210854           0
</event>
<event>
      5   9999  3.19816E-02  1.60237E+02 -1.00000E+00  1.15268E-01
      21    -1     0     0   502   512  0.000000000E+00  0.000000000E+00  4.260405922E+02  4.260405922E+02  0.000000000E+00  0.00000E+00  9.000E+00
      21    -1     0     0   501   502  0.000000000E+00  0.000000000E+00 -1.429308464E+03  1.429308464E+03  0.000000000E+00  0.00000E+00  9.000E+00
      25     1     1     2     0     0  9.830290667E+01 -1.042654702E+02  1.748966483E+02  2.583574797E+02  1.250000000E+02  0.00000E+00  9.000E+00
      25     1     1     2     0     0 -2.533801679E+02  1.446017750E+02 -1.335337212E+03  1.372538397E+03  1.250000000E+02  0.00000E+00  9.000E+00
      21     1     1     2   501   512  1.550772612E+02 -4.033630482E+01  1.571726919E+02  2.244531789E+02  0.000000000E+00  0.00000E+00  9.000E+00
#rwgt            1           1   2.7064633891046606E-002           8      211021           0
</event>
<event>
      5   9999  3.19816E-02  3.62842E+02 -1.00000E+00  1.02976E-01
      21    -1     0     0   511   501  0.000000000E+00  0.000000000E+00  2.101650070E+03  2.101650070E+03  0.000000000E+00  0.00000E+00  9.000E+00
      21    -1     0     0   501   502  0.000000000E+00  0.000000000E+00 -6.165570577E+02  6.165570577E+02  0.000000000E+00  0.00000E+00  9.000E+00
      25     1     1     2     0     0  2.161072848E+01  5.800392970E+02 -3.763486332E+02  7.029764600E+02  1.250000000E+02  0.00000E+00  9.000E+00
      25     1     1     2     0     0  1.189290664E+02 -2.455208820E+02  1.380676352E+03  1.412910760E+03  1.250000000E+02  0.00000E+00  9.000E+00
      21     1     1     2   511   502 -1.405397948E+02 -3.345184150E+02  4.807652937E+02  6.023199080E+02  5.394796609E-06  0.00000E+00  9.000E+00
#rwgt            2          11   3.1568007585608309E-003           8      211111           0
</event>
<event>
      5   9999  3.19816E-02  2.11695E+01 -1.00000E+00  1.64358E-01
      -4    -1     0     0     0   501  0.000000000E+00  0.000000000E+00  2.359317884E+02  2.359317884E+02  0.000000000E+00  0.00000E+00  9.000E+00
      21    -1     0     0   501   502  0.000000000E+00  0.000000000E+00 -1.614464458E+02  1.614464458E+02  0.000000000E+00  0.00000E+00  9.000E+00
      25     1     1     2     0     0  3.860837841E+01 -1.360892468E+02  3.917015634E+01  1.927957238E+02  1.250000000E+02  0.00000E+00  9.000E+00
      25     1     1     2     0     0 -3.876216922E+01  1.149203420E+02  1.429990458E+01  1.747531918E+02  1.250000000E+02  0.00000E+00  9.000E+00
      -4     1     1     2     0   502  1.537908074E-01  2.116890476E+01  2.101528166E+01  2.982931853E+01  2.384185791E-07  0.00000E+00  9.000E+00
#rwgt            1           1   2.4287888273801114E-002           8      211161           0
</event>
<event>
      5   9999  3.19816E-02  1.83872E+02 -1.00000E+00  1.12994E-01
      21    -1     0     0   502   501  0.000000000E+00  0.000000000E+00  3.786251413E+02  3.786251413E+02  0.000000000E+00  0.00000E+00  9.000E+00
      21    -1     0     0   511   502  0.000000000E+00  0.000000000E+00 -3.287861662E+02  3.287861662E+02  0.000000000E+00  0.00000E+00  9.000E+00
      25     1     1     2     0     0 -1.684467773E+02  7.662222551E+01 -4.911122302E+01  2.286530001E+02  1.250000000E+02  0.00000E+00  9.000E+00
      25     1     1     2     0     0 -1.539860091E+01 -7.347819210E+01  2.161332066E+02  2.607196284E+02  1.250000000E+02  0.00000E+00  9.000E+00
      21     1     1     2   511   501  1.838453782E+02 -3.144033415E+00 -1.171830085E+02  2.180386790E+02  0.000000000E+00  0.00000E+00  9.000E+00
#rwgt            2          11   3.3086543502662039E-003           8      211303           0
</event>
<event>
      5   9999  3.19816E-02  1.10305E+02 -1.00000E+00  1.21942E-01
      21    -1     0     0   502   501  0.000000000E+00  0.000000000E+00  2.210688266E+03  2.210688266E+03  0.000000000E+00  0.00000E+00  9.000E+00
      21    -1     0     0   501   512  0.000000000E+00  0.000000000E+00 -1.078904196E+02  1.078904196E+02  0.000000000E+00  0.00000E+00  9.000E+00
      25     1     1     2     0     0 -3.380649952E+02 -2.052736364E+01  4.912012302E+02  6.096006579E+02  1.250000000E+02  0.00000E+00  9.000E+00
      25     1     1     2     0     0  4.301072948E+02 -4.026197724E+01  1.398472626E+03  1.469001020E+03  1.250000000E+02  0.00000E+00  9.000E+00
      21     1     1     2   502   512 -9.204229965E+01  6.078934088E+01  2.131239905E+02  2.399770076E+02  3.814697266E-06  0.00000E+00  9.000E+00
#rwgt            1           1   3.2083698412888974E-002           8      211323           0
</event>
<event>
      5   9999  3.19816E-02  1.76276E+02 -1.00000E+00  1.13681E-01
      21    -1     0     0   502   501  0.000000000E+00  0.000000000E+00  6.824316828E+02  6.824316828E+02  0.000000000E+00  0.00000E+00  9.000E+00
       1    -1     0     0   501     0  0.000000000E+00  0.000000000E+00 -9.985050963E+02  9.985050963E+02  0.000000000E+00  0.00000E+00  9.000E+00
      25     1     1     2     0     0  3.645143532E+02 -2.651255199E+01 -2.285415771E+02  4.488094044E+02  1.250000000E+02  0.00000E+00  9.000E+00
      25     1     1     2     0     0 -4.938960697E+02 -9.321006666E+01  4.376989116E+02  6.781052878E+02  1.250000000E+02  0.00000E+00  9.000E+00
       1     1     1     2   502     0  1.293817165E+02  1.197226186E+02 -5.252307480E+02  5.540220868E+02  7.629394531E-06  0.00000E+00  9.000E+00
#rwgt            1           1   2.9290647417629184E-002           8      211401           0
</event>
<event>
      5   9999  3.19816E-02  1.00756E+02 -1.00000E+00  1.23681E-01
      21    -1     0     0   502   511  0.000000000E+00  0.000000000E+00  9.617907899E+02  9.617907899E+02  0.000000000E+00  0.00000E+00  9.000E+00
      21    -1     0     0   501   502  0.000000000E+00  0.000000000E+00 -4.529948594E+02  4.529948594E+02  0.000000000E+00  0.00000E+00  9.000E+00
      25     1     1     2     0     0  2.543103392E+02 -1.277452556E+02 -7.356147087E+01  3.194196127E+02  1.250000000E+02  0.00000E+00  9.000E+00
      25     1     1     2     0     0 -1.865501346E+02  2.023131145E+02 -1.628816383E+02  3.433467302E+02  1.250000000E+02  0.00000E+00  9.000E+00
      21     1     1     2   501   511 -6.776020465E+01 -7.456785888E+01  7.452390397E+02  7.520193064E+02  0.000000000E+00  0.00000E+00  9.000E+00
#rwgt            1           1   3.4113268712724076E-002           8      211517           0
</event>
<event>
      5   9999  3.19816E-02  2.82280E+01 -1.00000E+00  1.54899E-01
      21    -1     0     0   502   501  0.000000000E+00  0.000000000E+00  1.447891184E+02  1.447891184E+02  0.000000000E+00  0.00000E+00  9.000E+00
      21    -1     0     0   501   512  0.000000000E+00  0.000000000E+00 -8.473644940E+02  8.473644940E+02  0.000000000E+00  0.00000E+00  9.000E+00
      25     1     1     2     0     0  8.317926604E+01  1.991007271E+02 -1.068980706E+01  2.495980004E+02  1.250000000E+02  0.00000E+00  9.000E+00
      25     1     1     2     0     0 -9.924962736E+01 -1.758938174E+02 -6.500889824E+02  6.921197935E+02  1.250000000E+02  0.00000E+00  9.000E+00
      21     1     1     2   502   512  1.607036132E+01 -2.320690972E+01 -4.179658619E+01  5.043581851E+01  0.000000000E+00  0.00000E+00  9.000E+00
#rwgt            1           1   2.8747594809103098E-002           8      211609           0
</event>
<event>
      5   9999  3.19816E-02  1.63050E+02 -1.00000E+00  1.14976E-01
      21    -1     0     0   502   501  0.000000000E+00  0.000000000E+00  2.262373435E+03  2.262373435E+03  0.000000000E+00  0.00000E+00  9.000E+00
      21    -1     0     0   511   502  0.000000000E+00  0.000000000E+00 -1.395123039E+02  1.395123039E+02  0.000000000E+00  0.00000E+00  9.000E+00
      25     1     1     2     0     0  4.690990118E+01  2.022778924E+02  2.056888945E+02  3.178833212E+02  1.250000000E+02  0.00000E+00  9.000E+00
      25     1     1     2     0     0 -2.061272766E+02 -1.671352676E+02  1.897189084E+03  1.919732813E+03  1.250000000E+02  0.00000E+00  9.000E+00
      21     1     1     2   511   501  1.592173754E+02 -3.514262477E+01  1.998315256E+01  1.642696049E+02  3.975232124E-06  0.00000E+00  9.000E+00
#rwgt            1           1   3.0135285784709667E-002           8      211748           0
</event>
<event>
      5   9999  3.19816E-02  2.55501E+01 -1.00000E+00  1.58046E-01
      21    -1     0     0   502   512  0.000000000E+00  0.000000000E+00  1.981105594E+02  1.981105594E+02  0.000000000E+00  0.00000E+00  9.000E+00
      21    -1     0     0   501   502  0.000000000E+00  0.000000000E+00 -4.670013794E+02  4.670013794E+02  0.000000000E+00  0.00000E+00  9.000E+00
      25     1     1     2     0     0 -4.709216836E+01  8.565585457E+01  1.290570862E+02  2.045368653E+02  1.250000000E+02  0.00000E+00  9.000E+00
      25     1     1     2     0     0  5.347083899E+01 -1.103968780E+02 -3.982134585E+02  4.350236313E+02  1.250000000E+02  0.00000E+00  9.000E+00
      21     1     1     2   501   512 -6.378670631E+00  2.474102339E+01  2.655522450E-01  2.555144214E+01  3.780756729E-08  0.00000E+00  9.000E+00
#rwgt            1           1   3.0008163077905804E-002           8      211804           0
</event>
<event>
      5   9999  3.19816E-02  1.52343E+01 -1.00000E+00  1.76752E-01
      21    -1     0     0   502   501  0.000000000E+00  0.000000000E+00  1.683573819E+02  1.683573819E+02  0.000000000E+00  0.00000E+00  9.000E+00
      21    -1     0     0   501   511  0.000000000E+00  0.000000000E+00 -1.069655305E+03  1.069655305E+03  0.000000000E+00  0.00000E+00  9.000E+00
      25     1     1     2     0     0  3.543633270E+02  1.405868966E+02 -3.143592542E+02  5.096908707E+02  1.250000000E+02  0.00000E+00  9.000E+00
      25     1     1     2     0     0 -3.452262887E+02 -1.527770410E+02 -4.941741046E+02  6.343146383E+02  1.250000000E+02  0.00000E+00  9.000E+00
      21     1     1     2   502   511 -9.137038283E+00  1.219014438E+01 -9.276456478E+01  9.400717828E+01  0.000000000E+00  0.00000E+00  9.000E+00
#rwgt            1           1   2.9729892256452766E-002           8      211997           0
</event>
<event>
      5   9999  3.19816E-02  2.43572E+01 -1.00000E+00  1.59603E-01
      21    -1     0     0   502   512  0.000000000E+00  0.000000000E+00  6.847580949E+02  6.847580949E+02  0.000000000E+00  0.00000E+00  9.000E+00
      21    -1     0     0   501   502  0.000000000E+00  0.000000000E+00 -3.090920095E+02  3.090920095E+02  0.000000000E+00  0.00000E+00  9.000E+00
      25     1     1     2     0     0  2.272455847E+02 -2.434624438E+02  4.574573925E+02  5.794883806E+02  1.250000000E+02  0.00000E+00  9.000E+00
      25     1     1     2     0     0 -2.397176555E+02  2.225406629E+02 -1.190507459E+02  3.698472402E+02  1.250000000E+02  0.00000E+00  9.000E+00
      21     1     1     2   501   512  1.247207078E+01  2.092178092E+01  3.725943875E+01  4.451448352E+01  4.768371582E-07  0.00000E+00  9.000E+00
#rwgt            1           1   3.2251192437891672E-002           8      212193           0
</event>
<event>
      5   9999  3.19816E-02  5.16958E+01 -1.00000E+00  1.38254E-01
      21    -1     0     0   502   501  0.000000000E+00  0.000000000E+00  7.126784370E+02  7.126784370E+02  0.000000000E+00  0.00000E+00  9.000E+00
       1    -1     0     0   501     0  0.000000000E+00  0.000000000E+00 -1.605461767E+03  1.605461767E+03  0.000000000E+00  0.00000E+00  9.000E+00
      25     1     1     2     0     0 -7.533935456E+02 -6.758361331E+02 -1.835202670E+02  1.036176144E+03  1.250000000E+02  0.00000E+00  9.000E+00
      25     1     1     2     0     0  7.021032628E+02  6.693736791E+02 -5.668677841E+02  1.130475209E+03  1.250000000E+02  0.00000E+00  9.000E+00
       1     1     1     2   502     0  5.129028277E+01  6.462454027E+00 -1.423952793E+02  1.514888511E+02  1.907348633E-06  0.00000E+00  9.000E+00
#rwgt            1           1   3.4515808449342558E-002           8      212381           0
</event>
<event>
      5   9999  3.19816E-02  2.06848E+03 -1.00000E+00  8.40045E-02
      21    -1     0     0   502   501  0.000000000E+00  0.000000000E+00  2.118198941E+03  2.118198941E+03  0.000000000E+00  0.00000E+00  9.000E+00
      21    -1     0     0   511   502  0.000000000E+00  0.000000000E+00 -2.418725542E+03  2.418725542E+03  0.000000000E+00  0.00000E+00  9.000E+00
      25     1     1     2     0     0  3.681681577E+02 -3.217816271E+02  5.627349260E+02  7.559013195E+02  1.250000000E+02  0.00000E+00  9.000E+00
      25     1     1     2     0     0  8.701116762E+02 -1.335109635E+03 -5.410520877E+02  1.687594272E+03  1.250000000E+02  0.00000E+00  9.000E+00
      21     1     1     2   511   501 -1.238279834E+03  1.656891262E+03 -3.222094387E+02  2.093428891E+03  5.448477500E-05  0.00000E+00  9.000E+00
#rwgt            2          11   1.4278826031364605E-004           8      212638           0
</event>
<event>
      5   9999  3.19816E-02  4.01332E+01 -1.00000E+00  1.44751E-01
      21    -1     0     0   502   501  0.000000000E+00  0.000000000E+00  2.914096767E+02  2.914096767E+02  0.000000000E+00  0.00000E+00  9.000E+00
      21    -1     0     0   512   502  0.000000000E+00  0.000000000E+00 -6.114407875E+02  6.114407875E+02  0.000000000E+00  0.00000E+00  9.000E+00
      25     1     1     2     0     0 -2.519872916E+01 -2.131580087E+02  1.944294783E+02  3.154348342E+02  1.250000000E+02  0.00000E+00  9.000E+00
      25     1     1     2     0     0  4.056877113E+00  1.790450778E+02 -4.984667831E+02  5.442129473E+02  1.250000000E+02  0.00000E+00  9.000E+00
      21     1     1     2   512   501  2.114185204E+01  3.411293090E+01 -1.599380589E+01  4.320268267E+01  4.129530925E-07  0.00000E+00  9.000E+00
#rwgt            1           1   2.8162120382520292E-002           8      212718           0
</event>
<event>
      5   9999  3.19816E-02  2.59981E+01 -1.00000E+00  1.57488E-01
       2    -1     0     0   502     0  0.000000000E+00  0.000000000E+00  1.595485406E+03  1.595485406E+03  0.000000000E+00  0.00000E+00  9.000E+00
      21    -1     0     0   501   502  0.000000000E+00  0.000000000E+00 -1.840981723E+01  1.840981723E+01  0.000000000E+00  0.00000E+00  9.000E+00
      25     1     1     2     0     0  5.088933440E+01 -2.358766991E+01  4.223606523E+02  4.440266018E+02  1.250000000E+02  0.00000E+00  9.000E+00
      25     1     1     2     0     0 -5.383385276E+01 -2.243165073E+00  6.312742643E+02  6.457827129E+02  1.250000000E+02  0.00000E+00  9.000E+00
       2     1     1     2   501     0  2.944518354E+00  2.583083499E+01  5.234406719E+02  5.240859083E+02  1.078959322E-05  0.00000E+00  9.000E+00
#rwgt            1           1   1.4592778141423157E-002           8      212842           0
</event>
<event>
      5   9999  3.19816E-02  1.10381E+01 -1.00000E+00  1.90926E-01
      -2    -1     0     0     0   501  0.000000000E+00  0.000000000E+00  2.208038916E+03  2.208038916E+03  0.000000000E+00  0.00000E+00  9.000E+00
      21    -1     0     0   501   502  0.000000000E+00  0.000000000E+00 -7.677466767E+01  7.677466767E+01  0.000000000E+00  0.00000E+00  9.000E+00
      25     1     1     2     0     0 -2.284546418E+02 -1.555239836E+02  4.107943018E+02  5.106429195E+02  1.250000000E+02  0.00000E+00  9.000E+00
      25     1     1     2     0     0  2.256320129E+02  1.661950498E+02  8.509997860E+02  9.046304415E+02  1.250000000E+02  0.00000E+00  9.000E+00
      -2     1     1     2     0   502  2.822628914E+00 -1.067106615E+01  8.694701609E+02  8.695402231E+02  1.078959322E-05  0.00000E+00  9.000E+00
#rwgt            1           1   2.6754835397811365E-002           8      212913           0
</event>
<event>
      5   9999  3.19816E-02  1.36689E+01 -1.00000E+00  1.81272E-01
      21    -1     0     0   502   501  0.000000000E+00  0.000000000E+00  3.049954646E+02  3.049954646E+02  0.000000000E+00  0.00000E+00  9.000E+00
      21    -1     0     0   511   502  0.000000000E+00  0.000000000E+00 -1.108918659E+02  1.108918659E+02  0.000000000E+00  0.00000E+00  9.000E+00
      25     1     1     2     0     0  1.978018829E+01  1.203451996E+02  1.122159141E+02  2.075852459E+02  1.250000000E+02  0.00000E+00  9.000E+00
      25     1     1     2     0     0 -6.203712216E+00 -1.219323675E+02  8.496094268E+01  1.942919197E+02  1.250000000E+02  0.00000E+00  9.000E+00
      21     1     1     2   511   501 -1.357647607E+01  1.587167962E+00 -3.073258169E+00  1.401016490E+01  3.264680848E-07  0.00000E+00  9.000E+00
#rwgt            1           1   2.2707143028085665E-002           8      213073           0
</event>
<event>
      5   9999  3.19816E-02  8.67938E+01 -1.00000E+00  1.26659E-01
      21    -1     0     0   502   501  0.000000000E+00  0.000000000E+00  1.591962353E+03  1.591962353E+03  0.000000000E+00  0.00000E+00  9.000E+00
      21    -1     0     0   501   512  0.000000000E+00  0.000000000E+00 -5.108320120E+01  5.108320120E+01  0.000000000E+00  0.00000E+00  9.000E+00
      25     1     1     2     0     0 -1.564718859E+02  7.363850235E+01  1.186903071E+03  1.205931167E+03  1.250000000E+02  0.00000E+00  9.000E+00
      25     1     1     2     0     0  8.513583200E+01 -2.419828175E+01  1.453418992E+02  2.111467130E+02  1.250000000E+02  0.00000E+00  9.000E+00
      21     1     1     2   502   512  7.133605385E+01 -4.944022059E+01  2.086341821E+02  2.259676745E+02  2.697398305E-06  0.00000E+00  9.000E+00
#rwgt            1           1   2.9656866073966885E-002           8      213235           0
</event>
<event>
      5   9999  3.19816E-02  1.66702E+02 -1.00000E+00  1.14605E-01
      21    -1     0     0   502   511  0.000000000E+00  0.000000000E+00  4.796351442E+02  4.796351442E+02  0.000000000E+00  0.00000E+00  9.000E+00
      21    -1     0     0   501   502  0.000000000E+00  0.000000000E+00 -7.203028729E+02  7.203028729E+02  0.000000000E+00  0.00000E+00  9.000E+00
      25     1     1     2     0     0  2.062365904E+02 -1.488294132E+02  2.984013999E+02  4.115241438E+02  1.250000000E+02  0.00000E+00  9.000E+00
      25     1     1     2     0     0 -6.126835959E+01  2.311329453E+02 -5.588166782E+02  6.205459936E+02  1.250000000E+02  0.00000E+00  9.000E+00
      21     1     1     2   501   511 -1.449682309E+02 -8.230353204E+01  1.974754964E+01  1.678678798E+02  1.469710828E-06  0.00000E+00  9.000E+00
#rwgt            1           1   2.8594060527824983E-002           8      213300           0
</event>
<event>
      5   9999  3.19816E-02  2.99251E+01 -1.00000E+00  1.53115E-01
      21    -1     0     0   502   501  0.000000000E+00  0.000000000E+00  2.043172133E+02  2.043172133E+02  0.000000000E+00  0.00000E+00  9.000E+00
      21    -1     0     0   512   502  0.000000000E+00  0.000000000E+00 -2.977549317E+02  2.977549317E+02  0.000000000E+00  0.00000E+00  9.000E+00
      25     1     1     2     0     0 -1.241961912E+02 -6.360618030E+01 -1.070104931E+02  2.157468093E+02  1.250000000E+02  0.00000E+00  9.000E+00
      25     1     1     2     0     0  9.434074129E+01  6.156549451E+01  9.939530569E+01  1.954351871E+02  1.250000000E+02  0.00000E+00  9.000E+00
      21     1     1     2   512   501  2.985544989E+01  2.040685787E+00 -8.582253103E+01  9.089014863E+01  0.000000000E+00  0.00000E+00  9.000E+00
#rwgt            1           1   2.6410425435558816E-002           8      213419           0
</event>
<event>
      5   9999  3.19816E-02  2.42128E+01 -1.00000E+00  1.59799E-01
      21    -1     0     0   511   501  0.000000000E+00  0.000000000E+00  2.079867499E+02  2.079867499E+02  0.000000000E+00  0.00000E+00  9.000E+00
      21    -1     0     0   501   502  0.000000000E+00  0.000000000E+00 -6.343197808E+02  6.343197808E+02  0.000000000E+00  0.00000E+00  9.000E+00
      25     1     1     2     0     0  6.079334773E+01  2.606082173E+02 -5.327154700E+01  3.001255267E+02  1.250000000E+02  0.00000E+00  9.000E+00
      25     1     1     2     0     0 -4.585839517E+01 -2.415502590E+02 -4.123137304E+02  4.960616215E+02  1.250000000E+02  0.00000E+00  9.000E+00
      21     1     1     2   511   502 -1.493495256E+01 -1.905795825E+01  3.925224657E+01  4.611938250E+01  4.768371582E-07  0.00000E+00  9.000E+00
#rwgt            1           1   2.7323898368958217E-002           8      213553           0
</event>
<event>
      5   9999  3.19816E-02  6.17171E+01 -1.00000E+00  1.34052E-01
      21    -1     0     0   512   501  0.000000000E+00  0.000000000E+00  1.412335703E+02  1.412335703E+02  0.000000000E+00  0.00000E+00  9.000E+00
      21    -1     0     0   501   502  0.000000000E+00  0.000000000E+00 -5.708122251E+02  5.708122251E+02  0.000000000E+00  0.00000E+00  9.000E+00
      25     1     1     2     0     0  7.569525653E+01 -1.156007176E+01 -4.655991180E+02  4.881300501E+02  1.250000000E+02  0.00000E+00  9.000E+00
      25     1     1     2     0     0 -3.085278951E+01 -3.084454860E+01  7.377955455E+01  1.515641893E+02  1.250000000E+02  0.00000E+00  9.000E+00
      21     1     1     2   512   502 -4.484246702E+01  4.240462036E+01 -3.775909132E+01  7.235155599E+01  1.168007728E-06  0.00000E+00  9.000E+00
#rwgt            1           1   2.7141873277926921E-002           8      213703           0
</event>
<event>
      5   9999  3.19816E-02  9.24266E+01 -1.00000E+00  1.25386E-01
      21    -1     0     0   502   511  0.000000000E+00  0.000000000E+00  2.004706316E+02  2.004706316E+02  0.000000000E+00  0.00000E+00  9.000E+00
      21    -1     0     0   501   502  0.000000000E+00  0.000000000E+00 -2.578882570E+02  2.578882570E+02  0.000000000E+00  0.00000E+00  9.000E+00
      25     1     1     2     0     0  1.522596030E+02  3.545704562E+01 -6.560093433E+01  2.106387224E+02  1.250000000E+02  0.00000E+00  9.000E+00
      25     1     1     2     0     0 -8.292859437E+01  2.566482331E+01 -1.349924705E+01  1.527843729E+02  1.250000000E+02  0.00000E+00  9.000E+00
      21     1     1     2   501   511 -6.933100859E+01 -6.112186893E+01  2.168255596E+01  9.493579329E+01  5.840038640E-07  0.00000E+00  9.000E+00
#rwgt            1           1   2.2253702684252308E-002           8      213773           0
</event>
<event>
      5   9999  3.19816E-02  8.51793E+02 -1.00000E+00  9.26953E-02
      21    -1     0     0   512   501  0.000000000E+00  0.000000000E+00  7.837437268E+02  7.837437268E+02  0.000000000E+00  0.00000E+00  9.000E+00
      21    -1     0     0   501   502  0.000000000E+00  0.000000000E+00 -1.549237137E+03  1.549237137E+03  0.000000000E+00  0.00000E+00  9.000E+00
      25     1     1     2     0     0 -3.001728155E+02 -5.241577966E+02 -2.869305469E+02  6.802935055E+02  1.250000000E+02  0.00000E+00  9.000E+00
      25     1     1     2     0     0 -3.846070475E+02  1.757389930E+01 -6.670736364E+02  7.802843452E+02  1.250000000E+02  0.00000E+00  9.000E+00
      21     1     1     2   512   502  6.847798630E+02  5.065838973E+02  1.885107731E+02  8.724030131E+02  6.031565972E-06  0.00000E+00  9.000E+00
#rwgt            2          11   1.9395856858222603E-003           8      213853           0
</event>
<event>
      5   9999  3.19816E-02  1.19966E+02 -1.00000E+00  1.20373E-01
      21    -1     0     0   502   501  0.000000000E+00  0.000000000E+00  4.233213874E+02  4.233213874E+02  0.000000000E+00  0.00000E+00  9.000E+00
      21    -1     0     0   501   511  0.000000000E+00  0.000000000E+00 -1.389021113E+03  1.389021113E+03  0.000000000E+00  0.00000E+00  9.000E+00
      25     1     1     2     0     0  2.229831116E+02  3.392353159E+02 -1.992359083E+02  4.691716261E+02  1.250000000E+02  0.00000E+00  9.000E+00
      25     1     1     2     0     0 -3.403309801E+02 -3.641638091E+02  5.150848634E+01  5.164480419E+02  1.250000000E+02  0.00000E+00  9.000E+00
      21     1     1     2   502   511  1.173478685E+02  2.492849316E+01 -8.179723036E+02  8.267228324E+02  0.000000000E+00  0.00000E+00  9.000E+00
#rwgt            1           1   2.8567742967693776E-002           8      213873           0
</event>
<event>
      5   9999  3.19816E-02  8.90001E+00 -1.00000E+00  2.01795E-01
      21    -1     0     0   502   501  0.000000000E+00  0.000000000E+00  8.176662792E+02  8.176662792E+02  0.000000000E+00  0.00000E+00  9.000E+00
      21    -1     0     0   512   502  0.000000000E+00  0.000000000E+00 -5.826890668E+01  5.826890668E+01  0.000000000E+00  0.00000E+00  9.000E+00
      25     1     1     2     0     0 -9.199539746E+01 -1.104089738E+02  2.221885822E+02  2.926534823E+02  1.250000000E+02  0.00000E+00  9.000E+00
      25     1     1     2     0     0  8.610445327E+01  1.037376171E+02  5.425832332E+02  5.728848358E+02  1.250000000E+02  0.00000E+00  9.000E+00
      21     1     1     2   512   501  5.890944193E+00  6.671356654E+00 -5.374442920E+00  1.039686779E+01  1.192092896E-07  0.00000E+00  9.000E+00
#rwgt            1           1   2.6062061171906199E-002           8      213981           0
</event>
<event>
      5   9999  3.19816E-02  1.22887E+02 -1.00000E+00  1.19932E-01
      21    -1     0     0   502   501  0.000000000E+00  0.000000000E+00  8.987800024E+02  8.987800024E+02  0.000000000E+00  0.00000E+00  9.000E+00
      21    -1     0     0   511   502  0.000000000E+00  0.000000000E+00 -7.256481468E+02  7.256481468E+02  0.000000000E+00  0.00000E+00  9.000E+00
      25     1     1     2     0     0  1.425565518E+02 -3.333259503E+02 -2.995083099E+02  4.865786548E+02  1.250000000E+02  0.00000E+00  9.000E+00
      25     1     1     2     0     0 -2.563072316E+02  3.798227540E+02  7.194807364E+02  8.621115076E+02  1.250000000E+02  0.00000E+00  9.000E+00
      21     1     1     2   511   501  1.137506798E+02 -4.649680374E+01 -2.468405709E+02  2.757379868E+02  4.672030912E-06  0.00000E+00  9.000E+00
#rwgt            1           1   2.5236634202446026E-002           8      214166           0
</event>
<event>
      5   9999  3.19816E-02  1.21607E+01 -1.00000E+00  1.86423E-01
      21    -1     0     0   502   501  0.000000000E+00  0.000000000E+00  8.692790552E+02  8.692790552E+02  0.000000000E+00  0.00000E+00  9.000E+00
      21    -1     0     0   512   502  0.000000000E+00  0.000000000E+00 -2.621405429E+02  2.621405429E+02  0.000000000E+00  0.00000E+00  9.000E+00
      25     1     1     2     0     0  2.638886172E+02  5.033433968E+01  7.060339146E+02  7.656889947E+02  1.250000000E+02  0.00000E+00  9.000E+00
      25     1     1     2     0     0 -2.644804751E+02 -3.818803735E+01 -3.086762163E+01  2.966244393E+02  1.250000000E+02  0.00000E+00  9.000E+00
      21     1     1     2   512   501  5.918579287E-01 -1.214630233E+01 -6.802778074E+01  6.910616405E+01  9.536743164E-07  0.00000E+00  9.000E+00
#rwgt            1           1   1.9259679236754312E-002           8      214234           0
</event>
<event>
      5   9999  3.19816E-02  1.05872E+02 -1.00000E+00  1.22723E-01
      21    -1     0     0   511   501  0.000000000E+00  0.000000000E+00  2.638659232E+03  2.638659232E+03  0.000000000E+00  0.00000E+00  9.000E+00
      21    -1     0     0   501   502  0.000000000E+00  0.000000000E+00 -1.047625568E+02  1.047625568E+02  0.000000000E+00  0.00000E+00  9.000E+00
      25     1     1     2     0     0  3.731030770E+02 -2.450393543E+02  1.285653751E+03  1.366667757E+03  1.250000000E+02  0.00000E+00  9.000E+00
      25     1     1     2     0     0 -2.698951155E+02  2.214378481E+02  5.077965721E+02  6.287769498E+02  1.250000000E+02  0.00000E+00  9.000E+00
      21     1     1     2   511   502 -1.032079616E+02  2.360150620E+01  7.404463519E+02  7.479770815E+02  1.525878906E-05  0.00000E+00  9.000E+00
#rwgt            1           1   3.5759647808680461E-002           8      214408           0
</event>
<event>
      5   9999  3.19816E-02  2.64527E+01 -1.00000E+00  1.56935E-01
      21    -1     0     0   502   501  0.000000000E+00  0.000000000E+00  7.826958778E+02  7.826958778E+02  0.000000000E+00  0.00000E+00  9.000E+00
      21    -1     0     0   501   512  0.000000000E+00  0.000000000E+00 -2.073343958E+02  2.073343958E+02  0.000000000E+00  0.00000E+00  9.000E+00
      25     1     1     2     0     0  1.023220653E+01 -3.091260423E+02  5.249092137E+02  6.219471767E+02  1.250000000E+02  0.00000E+00  9.000E+00
      25     1     1     2     0     0 -3.658052488E+01  3.114734816E+02  5.198307047E+01  3.415861592E+02  1.250000000E+02  0.00000E+00  9.000E+00
      21     1     1     2   502   512  2.634831836E+01 -2.347439250E+00 -1.530802159E+00  2.649693768E+01  5.470979139E-07  0.00000E+00  9.000E+00
#rwgt            2          11   1.0416665558553461E-002           8      214491           0
</event>
<event>
      5   9999  3.19816E-02  2.01295E+02 -1.00000E+00  1.11546E-01
      21    -1     0     0   502   501  0.000000000E+00  0.000000000E+00  1.136469368E+03  1.136469368E+03  0.000000000E+00  0.00000E+00  9.000E+00
      21    -1     0     0   501   511  0.000000000E+00  0.000000000E+00 -1.270913180E+03  1.270913180E+03  0.000000000E+00  0.00000E+00  9.000E+00
      25     1     1     2     0     0  9.812753631E+02 -6.169541940E+02 -1.421169909E+02  1.174459899E+03  1.250000000E+02  0.00000E+00  9.000E+00
      25     1     1     2     0     0 -8.235339049E+02  4.919044278E+02  1.599691206E+02  9.805065926E+02  1.250000000E+02  0.00000E+00  9.000E+00
      21     1     1     2   502   511 -1.577414582E+02  1.250497662E+02 -1.522959422E+02  2.524160567E+02  3.303624740E-06  0.00000E+00  9.000E+00
#rwgt            1           1   2.8963072337967233E-002           8      214526           0
</event>
<event>
      5   9999  3.19816E-02  1.73437E+02 -1.00000E+00  1.13948E-01
      21    -1     0     0   502   501  0.000000000E+00  0.000000000E+00  1.003656851E+03  1.003656851E+03  0.000000000E+00  0.00000E+00  9.000E+00
      -3    -1     0     0     0   502  0.000000000E+00  0.000000000E+00 -1.590126696E+02  1.590126696E+02  0.000000000E+00  0.00000E+00  9.000E+00
      25     1     1     2     0     0  2.111578873E+02  4.148693973E+01  6.062562802E+02  6.553476152E+02  1.250000000E+02  0.00000E+00  9.000E+00
      25     1     1     2     0     0 -1.311801243E+02 -1.953824642E+02  9.707344500E+01  2.836032194E+02  1.250000000E+02  0.00000E+00  9.000E+00
      -3     1     1     2     0   501 -7.997776299E+01  1.538955245E+02  1.413144567E+02  2.237186865E+02  3.814697266E-06  0.00000E+00  9.000E+00
#rwgt            2           8   2.5888833094014198E-005           8      214817           0
</event>
<event>
      5   9999  3.19816E-02  1.47292E+01 -1.00000E+00  1.78132E-01
      21    -1     0     0   502   511  0.000000000E+00  0.000000000E+00  1.694173840E+01  1.694173840E+01  0.000000000E+00  0.00000E+00  9.000E+00
      21    -1     0     0   501   502  0.000000000E+00  0.000000000E+00 -3.247690058E+03  3.247690058E+03  0.000000000E+00  0.00000E+00  9.000E+00
      25     1     1     2     0     0  6.785555276E+01 -4.586431389E+01 -2.785568580E+03  2.789574380E+03  1.250000000E+02  0.00000E+00  9.000E+00
      25     1     1     2     0     0 -5.868489619E+01  3.433832644E+01 -4.335078172E+02  4.562642494E+02  1.250000000E+02  0.00000E+00  9.000E+00
      21     1     1     2   501   511 -9.170656564E+00  1.152598745E+01 -1.167192237E+01  1.879316632E+01  1.066240300E-06  0.00000E+00  9.000E+00
#rwgt            1           1   1.8328262189561541E-002           8      214851           0
</event>
<event>
      5   9999  3.19816E-02  1.50145E+02 -1.00000E+00  1.16377E-01
      21    -1     0     0   502   512  0.000000000E+00  0.000000000E+00  1.261078813E+03  1.261078813E+03  0.000000000E+00  0.00000E+00  9.000E+00
      21    -1     0     0   501   502  0.000000000E+00  0.000000000E+00 -9.729317116E+02  9.729317116E+02  0.000000000E+00  0.00000E+00  9.000E+00
      25     1     1     2     0     0  9.682027511E+02 -1.135700446E+02  2.858319102E+02  1.023542673E+03  1.250000000E+02  0.00000E+00  9.000E+00
      25     1     1     2     0     0 -1.014576392E+03  2.563736062E+02 -3.938026392E+01  1.054641401E+03  1.250000000E+02  0.00000E+00  9.000E+00
      21     1     1     2   501   512  4.637364051E+01 -1.428035616E+02  4.169545540E+01  1.558264507E+02  1.784161275E-06  0.00000E+00  9.000E+00
#rwgt            2          11   1.1970183044913964E-002           8      215073           0
</event>
<event>
      5   9999  3.19816E-02  1.03447E+02 -1.00000E+00  1.23169E-01
      21    -1     0     0   502   501  0.000000000E+00  0.000000000E+00  1.649301745E+02  1.649301745E+02  0.000000000E+00  0.00000E+00  9.000E+00
       1    -1     0     0   501     0  0.000000000E+00  0.000000000E+00 -4.904316889E+03  4.904316889E+03  0.000000000E+00  0.00000E+00  9.000E+00
      25     1     1     2     0     0 -2.643484113E+02  1.390685153E+02 -2.994270969E+02  4.410234924E+02  1.250000000E+02  0.00000E+00  9.000E+00
      25     1     1     2     0     0  2.540188608E+02 -2.419988232E+02 -2.774459592E+02  4.644246681E+02  1.250000000E+02  0.00000E+00  9.000E+00
       1     1     1     2   502     0  1.032955058E+01  1.029303079E+02 -4.162513659E+03  4.163798903E+03  6.103515625E-05  0.00000E+00  9.000E+00
#rwgt            1           1   2.9147417386560348E-002           8      215093           0
</event>
<event>
      5   9999  3.19816E-02  1.19093E+02 -1.00000E+00  1.20508E-01
       2    -1     0     0   502     0  0.000000000E+00  0.000000000E+00  3.587808919E+03  3.587808919E+03  0.000000000E+00  0.00000E+00  9.000E+00
      21    -1     0     0   501   502  0.000000000E+00  0.000000000E+00 -3.166190645E+01  3.166190645E+01  0.000000000E+00  0.00000E+00  9.000E+00
      25     1     1     2     0     0  4.144157380E+01  3.189336319E+01  2.382373823E+02  2.740741523E+02  1.250000000E+02  0.00000E+00  9.000E+00
      25     1     1     2     0     0 -1.472948656E+02  2.267990794E+01  7.527912064E+02  7.775151163E+02  1.250000000E+02  0.00000E+00  9.000E+00
       2     1     1     2   501     0  1.058532918E+02 -5.457327113E+01  2.565118424E+03  2.567881557E+03  3.051757812E-05  0.00000E+00  9.000E+00
#rwgt            1           1   3.2887434453237857E-002           8      215173           0
</event>
<event>
      5   9999  3.19816E-02  8.01806E+01 -1.00000E+00  1.28302E-01
      21    -1     0     0   502   501  0.000000000E+00  0.000000000E+00  3.233958324E+02  3.233958324E+02  0.000000000E+00  0.00000E+00  9.000E+00
      21    -1     0     0   501   511  0.000000000E+00  0.000000000E+00 -4.318324969E+02  4.318324969E+02  0.000000000E+00  0.00000E+00  9.000E+00
      25     1     1     2     0     0  5.283104968E+01 -3.069977644E+01 -1.320026532E+02  1.917897196E+02  1.250000000E+02  0.00000E+00  9.000E+00
      25     1     1     2     0     0  2.731967026E+01  2.851020759E+01  2.722404308E+02  3.021573241E+02  1.250000000E+02  0.00000E+00  9.000E+00
      21     1     1     2   502   511 -8.015071994E+01  2.189568845E+00 -2.486744421E+02  2.612812858E+02  2.697398305E-06  0.00000E+00  9.000E+00
#rwgt            1           1   2.8855142505687534E-002           8      215218           0
</event>
<event>
      5   9999  3.19816E-02  5.84344E+01 -1.00000E+00  1.35320E-01
      21    -1     0     0   502   512  0.000000000E+00  0.000000000E+00  6.897847825E+02  6.897847825E+02  0.000000000E+00  0.00000E+00  9.000E+00
      21    -1     0     0   501   502  0.000000000E+00  0.000000000E+00 -7.724381511E+02  7.724381511E+02  0.000000000E+00  0.00000E+00  9.000E+00
      25     1     1     2     0     0  2.210582956E+02  5.357239645E+02 -2.644223788E+02  6.491618678E+02  1.250000000E+02  0.00000E+00  9.000E+00
      25     1     1     2     0     0 -2.711379070E+02 -5.658339721E+02  1.892732732E+01  6.400524137E+02  1.250000000E+02  0.00000E+00  9.000E+00
      21     1     1     2   501   512  5.007961136E+01  3.011000757E+01  1.628416828E+02  1.730086521E+02  1.907348633E-06  0.00000E+00  9.000E+00
#rwgt            1           1   3.2154009568998505E-002           8      215282           0
</event>
<event>
      5   9999  3.19816E-02  2.27049E+02 -1.00000E+00  1.09679E-01
       1    -1     0     0   502     0  0.000000000E+00  0.000000000E+00  9.705624957E+02  9.705624957E+02  0.000000000E+00  0.00000E+00  9.000E+00
      21    -1     0     0   501   502  0.000000000E+00  0.000000000E+00 -2.576450926E+02  2.576450926E+02  0.000000000E+00  0.00000E+00  9.000E+00
      25     1     1     2     0     0  7.650274036E+01 -2.305187542E+02  2.018110100E+02  3.396236874E+02  1.250000000E+02  0.00000E+00  9.000E+00
      25     1     1     2     0     0 -2.636505175E+02  3.590760123E+02  2.015136657E+02  5.046582362E+02  1.250000000E+02  0.00000E+00  9.000E+00
       1     1     1     2   501     0  1.871477771E+02 -1.285572581E+02  3.095927274E+02  3.839256646E+02  3.814697266E-06  0.00000E+00  9.000E+00
#rwgt            2          17   3.0498001329396201E-004           8      215416           0
</event>
<event>
      5   9999  3.19816E-02  3.11682E+01 -1.00000E+00  1.51896E-01
      21    -1     0     0   502   501  0.000000000E+00  0.000000000E+00  6.811323518E+02  6.811323518E+02  0.000000000E+00  0.00000E+00  9.000E+00
      21    -1     0     0   511   502  0.000000000E+00  0.000000000E+00 -3.121947808E+02  3.121947808E+02  0.000000000E+00  0.00000E+00  9.000E+00
      25     1     1     2     0     0 -3.968327534E+02  1.279390943E+02  1.530858729E+02  4.614162226E+02  1.250000000E+02  0.00000E+00  9.000E+00
      25     1     1     2     0     0  4.091412931E+02 -9.930418146E+01  2.321204352E+02  4.967522668E+02  1.250000000E+02  0.00000E+00  9.000E+00
      21     1     1     2   511   501 -1.230853976E+01 -2.863491285E+01 -1.626873698E+01  3.515864314E+01  5.331201500E-07  0.00000E+00  9.000E+00
#rwgt            1           1   3.1293973449852977E-002           8      215450           0
</event>
<event>
      5   9999  3.19816E-02  2.70949E+01 -1.00000E+00  1.56177E-01
      21    -1     0     0   502   501  0.000000000E+00  0.000000000E+00  9.814794350E+02  9.814794350E+02  0.000000000E+00  0.00000E+00  9.000E+00
      21    -1     0     0   512   502  0.000000000E+00  0.000000000E+00 -3.766543856E+02  3.766543856E+02  0.000000000E+00  0.00000E+00  9.000E+00
      25     1     1     2     0     0 -4.125689082E+02 -3.435493680E+02  3.213633645E+02  6.380741997E+02  1.250000000E+02  0.00000E+00  9.000E+00
      25     1     1     2     0     0  3.854792176E+02  3.430192133E+02  3.582678916E+02  6.404976893E+02  1.250000000E+02  0.00000E+00  9.000E+00
      21     1     1     2   512   501  2.708969057E+01  5.301547190E-01 -7.480620670E+01  7.956193160E+01  9.536743164E-07  0.00000E+00  9.000E+00
#rwgt            1           1   2.4117641433543245E-002           8      215560           0
</event>
<event>
      5   9999  3.19816E-02  1.75294E+02 -1.00000E+00  1.13773E-01
      21    -1     0     0   502   501  0.000000000E+00  0.000000000E+00  3.594636695E+02  3.594636695E+02  0.000000000E+00  0.00000E+00  9.000E+00
      -1    -1     0     0     0   502  0.000000000E+00  0.000000000E+00 -2.840382302E+02  2.840382302E+02  0.000000000E+00  0.00000E+00  9.000E+00
      25     1     1     2     0     0  8.584953139E+01 -5.691773836E+01 -1.334348558E+02  2.098562168E+02  1.250000000E+02  0.00000E+00  9.000E+00
      25     1     1     2     0     0  5.055669113E+01 -5.317946962E+01  2.137775369E+02  2.582825396E+02  1.250000000E+02  0.00000E+00  9.000E+00
      -1     1     1     2     0   501 -1.364062225E+02  1.100972080E+02 -4.917241815E+00  1.753631433E+02  3.589169792E-06  0.00000E+00  9.000E+00
#rwgt            1           1   2.6774906491604970E-002           8      215796           0
</event>
<event>
      5   9999  3.19816E-02  2.57876E+02 -1.00000E+00  1.07772E-01
      21    -1     0     0   502   501  0.000000000E+00  0.000000000E+00  1.958595268E+02  1.958595268E+02  0.000000000E+00  0.00000E+00  9.000E+00
       1    -1     0     0   501     0  0.000000000E+00  0.000000000E+00 -1.718195315E+03  1.718195315E+03  0.000000000E+00  0.00000E+00  9.000E+00
      25     1     1     2     0     0 -1.142571110E+02 -3.342395022E+02 -9.902530009E+01  3.875586953E+02  1.250000000E+02  0.00000E+00  9.000E+00
      25     1     1     2     0     0  6.952023933E+01  8.027331720E+01 -1.344240817E+02  2.120653269E+02  1.250000000E+02  0.00000E+00  9.000E+00
       1     1     1     2   502     0  4.473687168E+01  2.539661850E+02 -1.288886406E+03  1.314430820E+03  1.525878906E-05  0.00000E+00  9.000E+00
#rwgt            1           1   3.1103456159296682E-002           8      215837           0
</event>
<event>
      5   9999  3.19816E-02  2.85357E+02 -1.00000E+00  1.06303E-01
      21    -1     0     0   502   501  0.000000000E+00  0.000000000E+00  4.186597050E+02  4.186597050E+02  0.000000000E+00  0.00000E+00  9.000E+00
      21    -1     0     0   501   511  0.000000000E+00  0.000000000E+00 -8.397110810E+02  8.397110810E+02  0.000000000E+00  0.00000E+00  9.000E+00
      25     1     1     2     0     0  3.888410856E+02 -1.857264539E+02  5.048829536E+01  4.515149759E+02  1.250000000E+02  0.00000E+00  9.000E+00
      25     1     1     2     0     0 -2.006308615E+02 -2.876201543E+01  1.949705900E+01  2.389249493E+02  1.250000000E+02  0.00000E+00  9.000E+00
      21     1     1     2   502   511 -1.882102241E+02  2.144884694E+02 -4.910367304E+02  5.679308607E+02  7.629394531E-06  0.00000E+00  9.000E+00
#rwgt            1           1   2.7441749995248555E-002           8      215906           0
</event>
<event>
      5   9999  3.19816E-02  1.74242E+01 -1.00000E+00  1.71466E-01
      21    -1     0     0   512   501  0.000000000E+00  0.000000000E+00  1.815358654E+02  1.815358654E+02  0.000000000E+00  0.00000E+00  9.000E+00
      21    -1     0     0   501   502  0.000000000E+00  0.000000000E+00 -3.493284211E+02  3.493284211E+02  0.000000000E+00  0.00000E+00  9.000E+00
      25     1     1     2     0     0  1.433875680E+02  7.932459205E+01 -2.152919130E+02  2.980402546E+02  1.250000000E+02  0.00000E+00  9.000E+00
      25     1     1     2     0     0 -1.299573111E+02 -9.042546713E+01  2.338054997E+01  2.030697366E+02  1.250000000E+02  0.00000E+00  9.000E+00
      21     1     1     2   512   502 -1.343025689E+01  1.110087508E+01  2.411880731E+01  2.975429538E+01  5.840038640E-07  0.00000E+00  9.000E+00
#rwgt            1           1   2.8072348538745247E-002           8      215948           0
</event>
<event>
      5   9999  3.19816E-02  5.18726E+01 -1.00000E+00  1.38171E-01
      21    -1     0     0   502   501  0.000000000E+00  0.000000000E+00  9.576490192E+02  9.576490192E+02  0.000000000E+00  0.00000E+00  9.000E+00
      21    -1     0     0   511   502  0.000000000E+00  0.000000000E+00 -1.536456024E+02  1.536456024E+02  0.000000000E+00  0.00000E+00  9.000E+00
      25     1     1     2     0     0 -1.082538093E+01 -7.218300324E+01  8.394647868E+02  8.518530995E+02  1.250000000E+02  0.00000E+00  9.000E+00
      25     1     1     2     0     0 -1.863671873E+01  2.948934758E+01  6.592099505E+01  1.455593573E+02  1.250000000E+02  0.00000E+00  9.000E+00
      21     1     1     2   511   501  2.946209965E+01  4.269365566E+01 -1.013823650E+02  1.138821649E+02  1.907348633E-06  0.00000E+00  9.000E+00
#rwgt            1           1   3.0615485663718196E-002           8      216120           0
</event>
<event>
      5   9999  3.19816E-02  9.51231E+01 -1.00000E+00  1.24812E-01
      21    -1     0     0   512   501  0.000000000E+00  0.000000000E+00  1.154379915E+03  1.154379915E+03  0.000000000E+00  0.00000E+00  9.000E+00
      21    -1     0     0   501   502  0.000000000E+00  0.000000000E+00 -1.026975156E+03  1.026975156E+03  0.000000000E+00  0.00000E+00  9.000E+00
      25     1     1     2     0     0 -3.687150005E+02 -2.913938629E+02 -7.828378950E+02  9.215862980E+02  1.250000000E+02  0.00000E+00  9.000E+00
      25     1     1     2     0     0  4.515906210E+02  3.380847841E+02  3.172046643E+02  6.591503693E+02  1.250000000E+02  0.00000E+00  9.000E+00
      21     1     1     2   512   502 -8.287562048E+01 -4.669092129E+01  5.930379894E+02  6.006184042E+02  1.078959322E-05  0.00000E+00  9.000E+00
#rwgt            1           1   2.3986603709767632E-002           8      216208           0
</event>
<event>
      5   9999  3.19816E-02  3.81564E+02 -1.00000E+00  1.02306E-01
       1    -1     0     0   502     0  0.000000000E+00  0.000000000E+00  1.492648975E+03  1.492648975E+03  0.000000000E+00  0.00000E+00  9.000E+00
      21    -1     0     0   501   502  0.000000000E+00  0.000000000E+00 -2.212859721E+02  2.212859721E+02  0.000000000E+00  0.00000E+00  9.000E+00
      25     1     1     2     0     0  1.053693178E+02 -4.087819699E+01  8.559732917E+02  8.724041473E+02  1.250000000E+02  0.00000E+00  9.000E+00
      25     1     1     2     0     0  7.204801307E+01 -2.969301388E+02  9.563125419E+01  3.436986475E+02  1.250000000E+02  0.00000E+00  9.000E+00
       1     1     1     2   501     0 -1.774173309E+02  3.378083358E+02  3.197584569E+02  4.978321522E+02  7.629394531E-06  0.00000E+00  9.000E+00
#rwgt            2          17   3.4760921942554596E-004           8      216407           0
</event>
<event>
      5   9999  3.19816E-02  5.88631E+02 -1.00000E+00  9.68794E-02
      21    -1     0     0   502   501  0.000000000E+00  0.000000000E+00  8.601934593E+02  8.601934593E+02  0.000000000E+00  0.00000E+00  9.000E+00
       2    -1     0     0   501     0  0.000000000E+00  0.000000000E+00 -1.673501419E+03  1.673501419E+03  0.000000000E+00  0.00000E+00  9.000E+00
      25     1     1     2     0     0 -5.275927077E+02  7.722192988E+02  1.608487195E+01  9.436950958E+02  1.250000000E+02  0.00000E+00  9.000E+00
      25     1     1     2     0     0  7.119592071E+02 -2.132059499E+02 -5.787809272E+02  9.502394705E+02  1.250000000E+02  0.00000E+00  9.000E+00
       2     1     1     2   502     0 -1.843664994E+02 -5.590133489E+02 -2.506119047E+02  6.397603122E+02  1.175768662E-05  0.00000E+00  9.000E+00
#rwgt            1           1   3.4131163069869817E-002           8      216426           0
</event>
<event>
      5   9999  3.19816E-02  3.07419E+02 -1.00000E+00  1.05248E-01
      21    -1     0     0   502   501  0.000000000E+00  0.000000000E+00  2.742019560E+02  2.742019560E+02  0.000000000E+00  0.00000E+00  9.000E+00
       1    -1     0     0   501     0  0.000000000E+00  0.000000000E+00 -2.166508544E+03  2.166508544E+03  0.000000000E+00  0.00000E+00  9.000E+00
      25     1     1     2     0     0 -3.186010369E+02  2.153978228E+02 -2.697447463E+02  4.860967712E+02  1.250000000E+02  0.00000E+00  9.000E+00
      25     1     1     2     0     0  6.222383586E+02 -2.634659465E+02 -6.947091717E+02  9.771595126E+02  1.250000000E+02  0.00000E+00  9.000E+00
       1     1     1     2   502     0 -3.036373217E+02  4.806812374E+01 -9.278526703E+02  9.774542165E+02  1.868812365E-05  0.00000E+00  9.000E+00
#rwgt            2          12   6.0472408652603228E-004           8      216461           0
</event>
<event>
      5   9999  3.19816E-02  4.04175E+02 -1.00000E+00  1.01550E-01
       2    -1     0     0   502     0  0.000000000E+00  0.000000000E+00  1.634694041E+03  1.634694041E+03  0.000000000E+00  0.00000E+00  9.000E+00
      21    -1     0     0   501   502  0.000000000E+00  0.000000000E+00 -6.742157330E+02  6.742157330E+02  0.000000000E+00  0.00000E+00  9.000E+00
      25     1     1     2     0     0  8.390146895E+02 -2.907798050E+02  1.790134791E+02  9.144229710E+02  1.250000000E+02  0.00000E+00  9.000E+00
      25     1     1     2     0     0 -4.387578825E+02  3.469187047E+02  7.155744485E+01  5.775868204E+02  1.250000000E+02  0.00000E+00  9.000E+00
       2     1     1     2   501     0 -4.002568069E+02 -5.613889977E+01  7.099073837E+02  8.168999823E+02  7.629394531E-06  0.00000E+00  9.000E+00
#rwgt            1           1   2.9547789230939436E-002           8      216495           0
</event>
<event>
      5   9999  3.19816E-02  4.42421E+01 -1.00000E+00  1.42177E-01
      21    -1     0     0   502   501  0.000000000E+00  0.000000000E+00  2.244557270E+02  2.244557270E+02  0.000000000E+00  0.00000E+00  9.000E+00
      21    -1     0     0   501   511  0.000000000E+00  0.000000000E+00 -9.052418294E+02  9.052418294E+02  0.000000000E+00  0.00000E+00  9.000E+00
      25     1     1     2     0     0  5.878515884E+01 -2.864313146E+01 -4.790214136E+01  1.489823447E+02  1.250000000E+02  0.00000E+00  9.000E+00
      25     1     1     2     0     0 -1.465017359E+01  2.556677121E+01  1.494964228E+02  1.970849253E+02  1.250000000E+02  0.00000E+00  9.000E+00
      21     1     1     2   502   511 -4.413498525E+01  3.076360248E+00 -7.823803838E+02  7.836302865E+02  1.078959322E-05  0.00000E+00  9.000E+00
#rwgt            1           1   2.5050288790647839E-002           8      216566           0
</event>
<event>
      5   9999  3.19816E-02  5.70012E+01 -1.00000E+00  1.35904E-01
      21    -1     0     0   502   512  0.000000000E+00  0.000000000E+00  5.096686782E+02  5.096686782E+02  0.000000000E+00  0.00000E+00  9.000E+00
      21    -1     0     0   501   502  0.000000000E+00  0.000000000E+00 -4.549908752E+02  4.549908752E+02  0.000000000E+00  0.00000E+00  9.000E+00
      25     1     1     2     0     0  3.729463843E+02  9.246764697E+01  7.073036317E+01  4.102036757E+02  1.250000000E+02  0.00000E+00  9.000E+00
      25     1     1     2     0     0 -3.789022590E+02 -1.491568479E+02 -1.141611549E+02  4.409903133E+02  1.250000000E+02  0.00000E+00  9.000E+00
      21     1     1     2   501   512  5.955874711E+00  5.668920094E+01  9.810859479E+01  1.134655645E+02  1.348699152E-06  0.00000E+00  9.000E+00
#rwgt            2          11   2.3686077834833602E-003           8      216707           0
</event>
<event>
      5   9999  3.19816E-02  5.54762E+01 -1.00000E+00  1.36548E-01
      21    -1     0     0   502   511  0.000000000E+00  0.000000000E+00  1.754421448E+02  1.754421448E+02  0.000000000E+00  0.00000E+00  9.000E+00
      21    -1     0     0   501   502  0.000000000E+00  0.000000000E+00 -5.223343153E+02  5.223343153E+02  0.000000000E+00  0.00000E+00  9.000E+00
      25     1     1     2     0     0  7.348982625E+01  1.000242359E+02 -4.411117138E+02  4.749843643E+02  1.250000000E+02  0.00000E+00  9.000E+00
      25     1     1     2     0     0 -5.740622922E+01 -4.693064163E+01  5.768669259E+01  1.563672433E+02  1.250000000E+02  0.00000E+00  9.000E+00
      21     1     1     2   501   511 -1.608359703E+01 -5.309359424E+01  3.653285073E+01  6.642485247E+01  1.261592536E-06  0.00000E+00  9.000E+00
#rwgt            1           1   3.0436372201971006E-002           8      216727           0
</event>
<event>
      5   9999  3.19816E-02  8.47362E+01 -1.00000E+00  1.27152E-01
       2    -1     0     0   502     0  0.000000000E+00  0.000000000E+00  2.165347957E+03  2.165347957E+03  0.000000000E+00  0.00000E+00  9.000E+00
      21    -1     0     0   501   502  0.000000000E+00  0.000000000E+00 -1.496559579E+02  1.496559579E+02  0.000000000E+00  0.00000E+00  9.000E+00
      25     1     1     2     0     0 -2.097006069E+02  2.344812601E+02  2.343520605E+02  4.117058345E+02  1.250000000E+02  0.00000E+00  9.000E+00
      25     1     1     2     0     0  2.459154700E+02 -3.110887475E+02  6.686125598E+02  7.873489584E+02  1.250000000E+02  0.00000E+00  9.000E+00
       2     1     1     2   501     0 -3.621486310E+01  7.660748737E+01  1.112727379E+03  1.115949122E+03  2.157918644E-05  0.00000E+00  9.000E+00
#rwgt            1           1   2.9654963574954771E-002           8      216841           0
</event>
<event>
      5   9999  3.19816E-02  2.96871E+01 -1.00000E+00  1.53357E-01
      21    -1     0     0   511   501  0.000000000E+00  0.000000000E+00  8.019350639E+02  8.019350639E+02  0.000000000E+00  0.00000E+00  9.000E+00
      21    -1     0     0   501   502  0.000000000E+00  0.000000000E+00 -6.444809189E+02  6.444809189E+02  0.000000000E+00  0.00000E+00  9.000E+00
      25     1     1     2     0     0 -7.256129156E+01  5.085553165E+02 -3.841536200E+02  6.535232626E+02  1.250000000E+02  0.00000E+00  9.000E+00
      25     1     1     2     0     0  1.022267594E+02 -5.096884911E+02  4.574296696E+02  7.036331224E+02  1.250000000E+02  0.00000E+00  9.000E+00
      21     1     1     2   511   502 -2.966546784E+01  1.133174573E+00  8.417809537E+01  8.925959784E+01  0.000000000E+00  0.00000E+00  9.000E+00
#rwgt            1           1   2.8859461434117425E-002           8      216952           0
</event>
<event>
      5   9999  3.19816E-02  1.64423E+02 -1.00000E+00  1.14835E-01
      21    -1     0     0   502   512  0.000000000E+00  0.000000000E+00  5.254359864E+02  5.254359864E+02  0.000000000E+00  0.00000E+00  9.000E+00
      21    -1     0     0   501   502  0.000000000E+00  0.000000000E+00 -3.386604498E+02  3.386604498E+02  0.000000000E+00  0.00000E+00  9.000E+00
      25     1     1     2     0     0  1.341042144E+02 -1.229228181E+02  1.152915314E+00  2.207267286E+02  1.250000000E+02  0.00000E+00  9.000E+00
      25     1     1     2     0     0 -7.911467820E+01  2.778776755E+02 -8.557120032E+01  3.262247158E+02  1.250000000E+02  0.00000E+00  9.000E+00
      21     1     1     2   501   512 -5.498953621E+01 -1.549548575E+02  2.711938216E+02  3.171449918E+02  5.394796609E-06  0.00000E+00  9.000E+00
#rwgt            1           1   2.6884890439288260E-002           8      217097           0
</event>
<event>
      5   9999  3.19816E-02  5.61654E+01 -1.00000E+00  1.36254E-01
      21    -1     0     0   502   511  0.000000000E+00  0.000000000E+00  7.332777603E+02  7.332777603E+02  0.000000000E+00  0.00000E+00  9.000E+00
      21    -1     0     0   501   502  0.000000000E+00  0.000000000E+00 -1.769513185E+02  1.769513185E+02  0.000000000E+00  0.00000E+00  9.000E+00
      25     1     1     2     0     0  4.510716399E+01  2.996537507E+02  1.413669360E+02  3.569826847E+02  1.250000000E+02  0.00000E+00  9.000E+00
      25     1     1     2     0     0 -6.764673418E+01 -2.482094401E+02  2.531298673E+02  3.819472955E+02  1.250000000E+02  0.00000E+00  9.000E+00
      21     1     1     2   501   511  2.253957019E+01 -5.144431064E+01  1.618296384E+02  1.712990986E+02  3.814697266E-06  0.00000E+00  9.000E+00
#rwgt            1           1   2.9473708814603622E-002           8      217135           0
</event>
<event>
      5   9999  3.19816E-02  1.75856E+02 -1.00000E+00  1.13721E-01
      21    -1     0     0   502   512  0.000000000E+00  0.000000000E+00  1.005500042E+03  1.005500042E+03  0.000000000E+00  0.00000E+00  9.000E+00
      21    -1     0     0   501   502  0.000000000E+00  0.000000000E+00 -2.221465566E+02  2.221465566E+02  0.000000000E+00  0.00000E+00  9.000E+00
      25     1     1     2     0     0 -2.762739079E+02  1.814300343E+02  8.245286604E+01  3.628603101E+02  1.250000000E+02  0.00000E+00  9.000E+00
      25     1     1     2     0     0  3.000265296E+02 -7.185885347E+00  5.137886785E+02  6.080060539E+02  1.250000000E+02  0.00000E+00  9.000E+00
      21     1     1     2   501   512 -2.375262179E+01 -1.742441490E+02  1.871119414E+02  2.567802350E+02  2.697398305E-06  0.00000E+00  9.000E+00
#rwgt            1           1   2.4405690102841639E-002           8      217211           0
</event>
<event>
      5   9999  3.19816E-02  5.14793E+01 -1.00000E+00  1.38357E-01
      21    -1     0     0   502   501  0.000000000E+00  0.000000000E+00  2.864036533E+02  2.864036533E+02  0.000000000E+00  0.00000E+00  9.000E+00
      21    -1     0     0   501   511  0.000000000E+00  0.000000000E+00 -2.102638176E+02  2.102638176E+02  0.000000000E+00  0.00000E+00  9.000E+00
      25     1     1     2     0     0 -8.125899262E+01  1.322218550E+02  9.085335774E+01  2.190090762E+02  1.250000000E+02  0.00000E+00  9.000E+00
      25     1     1     2     0     0  3.993771352E+01 -1.629248584E+02  2.761091147E+01  2.110139637E+02  1.250000000E+02  0.00000E+00  9.000E+00
      21     1     1     2   502   511  4.132127910E+01  3.070300335E+01 -4.232443345E+01  6.664443104E+01  1.168007728E-06  0.00000E+00  9.000E+00
#rwgt            1           1   2.8070640457081533E-002           8      217285           0
</event>
<event>
      5   9999  3.19816E-02  6.20440E+01 -1.00000E+00  1.33931E-01
      21    -1     0     0   502   512  0.000000000E+00  0.000000000E+00  3.955687335E+02  3.955687335E+02  0.000000000E+00  0.00000E+00  9.000E+00
      21    -1     0     0   501   502  0.000000000E+00  0.000000000E+00 -5.657928769E+02  5.657928769E+02  0.000000000E+00  0.00000E+00  9.000E+00
      25     1     1     2     0     0 -1.153551553E+02  1.625724970E+01 -5.016734798E+02  5.299739525E+02  1.250000000E+02  0.00000E+00  9.000E+00
      25     1     1     2     0     0  1.106760903E+02  4.561005935E+01  1.189310687E+02  2.099977942E+02  1.250000000E+02  0.00000E+00  9.000E+00
      21     1     1     2   501   512  4.679065035E+00 -6.186730905E+01  2.125182678E+02  2.213898636E+02  2.697398305E-06  0.00000E+00  9.000E+00
#rwgt            1           1   2.6850282234458456E-002           8      217351           0
</event>
<event>
      5   9999  3.19816E-02  1.65709E+02 -1.00000E+00  1.14705E-01
      21    -1     0     0   502   501  0.000000000E+00  0.000000000E+00  1.418682773E+03  1.418682773E+03  0.000000000E+00  0.00000E+00  9.000E+00
      21    -1     0     0   501   511  0.000000000E+00  0.000000000E+00 -6.887431901E+02  6.887431901E+02  0.000000000E+00  0.00000E+00  9.000E+00
      25     1     1     2     0     0 -4.189702877E+02  5.742840592E+02  9.897535763E+02  1.224979765E+03  1.250000000E+02  0.00000E+00  9.000E+00
      25     1     1     2     0     0  5.010598798E+02 -4.303371922E+02 -1.675515257E+02  6.927839604E+02  1.250000000E+02  0.00000E+00  9.000E+00
      21     1     1     2   502   511 -8.208959205E+01 -1.439468670E+02 -9.226246742E+01  1.896622380E+02  3.303624740E-06  0.00000E+00  9.000E+00
#rwgt            1           1   3.6247605615970215E-002           8      217423           0
</event>
<event>
      5   9999  3.19816E-02  7.03333E+02 -1.00000E+00  9.48168E-02
       1    -1     0     0   502     0  0.000000000E+00  0.000000000E+00  1.394203940E+03  1.394203940E+03  0.000000000E+00  0.00000E+00  9.000E+00
      21    -1     0     0   501   502  0.000000000E+00  0.000000000E+00 -1.472748074E+03  1.472748074E+03  0.000000000E+00  0.00000E+00  9.000E+00
      25     1     1     2     0     0 -1.583202803E+02  7.698883530E+02  6.037747573E+00  7.958987635E+02  1.250000000E+02  0.00000E+00  9.000E+00
      25     1     1     2     0     0 -1.017786279E+02 -1.164162581E+02 -9.416080954E+02  9.623733369E+02  1.250000000E+02  0.00000E+00  9.000E+00
       1     1     1     2   501     0  2.600989082E+02 -6.534720950E+02  8.570262136E+02  1.108679914E+03  1.078959322E-05  0.00000E+00  9.000E+00
#rwgt            2          17   5.9090847486520967E-004           8      217515           0
</event>
<event>
      5   9999  3.19816E-02  6.36705E+02 -1.00000E+00  9.59587E-02
       2    -1     0     0   502     0  0.000000000E+00  0.000000000E+00  2.208529930E+03  2.208529930E+03  0.000000000E+00  0.00000E+00  9.000E+00
      21    -1     0     0   501   502  0.000000000E+00  0.000000000E+00 -8.629846723E+02  8.629846723E+02  0.000000000E+00  0.00000E+00  9.000E+00
      25     1     1     2     0     0  5.433869409E+02 -4.094938714E+02 -5.474901280E+02  8.822273169E+02  1.250000000E+02  0.00000E+00  9.000E+00
      25     1     1     2     0     0 -2.258627050E+01  4.321456480E+01 -5.107783088E+01  1.435673467E+02  1.250000000E+02  0.00000E+00  9.000E+00
       2     1     1     2   501     0 -5.208006704E+02  3.662793066E+02  1.944113217E+03  2.045719939E+03  2.157918644E-05  0.00000E+00  9.000E+00
#rwgt            2          18   2.0270693711486407E-002           8      217609           0
</event>
<event>
      5   9999  3.19816E-02  7.45622E+01 -1.00000E+00  1.29847E-01
      21    -1     0     0   502   501  0.000000000E+00  0.000000000E+00  1.849969113E+02  1.849969113E+02  0.000000000E+00  0.00000E+00  9.000E+00
      21    -1     0     0   501   511  0.000000000E+00  0.000000000E+00 -2.561822211E+03  2.561822211E+03  0.000000000E+00  0.00000E+00  9.000E+00
      25     1     1     2     0     0 -1.337490458E+02 -5.835732880E+01  1.196444282E+02  2.263496726E+02  1.250000000E+02  0.00000E+00  9.000E+00
      25     1     1     2     0     0  6.720376509E+01  9.199142393E+01 -2.350332173E+03  2.356409364E+03  1.250000000E+02  0.00000E+00  9.000E+00
      21     1     1     2   502   511  6.654528075E+01 -3.363409513E+01 -1.461375546E+02  1.640600854E+02  0.000000000E+00  0.00000E+00  9.000E+00
#rwgt            1           1   2.6390757860880527E-002           8      217628           0
</event>
<event>
      5   9999  3.19816E-02  3.09668E+01 -1.00000E+00  1.52089E-01
      21    -1     0     0   502   512  0.000000000E+00  0.000000000E+00  3.307962206E+02  3.307962206E+02  0.000000000E+00  0.00000E+00  9.000E+00
      21    -1     0     0   501   502  0.000000000E+00  0.000000000E+00 -2.435778928E+02  2.435778928E+02  0.000000000E+00  0.00000E+00  9.000E+00
      25     1     1     2     0     0 -1.216730569E+02 -1.533010188E+02 -9.880113141E+01  2.523731339E+02  1.250000000E+02  0.00000E+00  9.000E+00
      25     1     1     2     0     0  1.135098666E+02  1.234295619E+02  1.024840797E+02  2.329105690E+02  1.250000000E+02  0.00000E+00  9.000E+00
      21     1     1     2   501   512  8.163190328E+00  2.987145688E+01  8.353537949E+01  8.909041047E+01  1.907348633E-06  0.00000E+00  9.000E+00
#rwgt            1           1   2.3410233994786492E-002           8      217733           0
</event>
<event>
      5   9999  3.19816E-02  4.36861E+01 -1.00000E+00  1.42505E-01
       2    -1     0     0   502     0  0.000000000E+00  0.000000000E+00  8.380690463E+02  8.380690463E+02  0.000000000E+00  0.00000E+00  9.000E+00
      21    -1     0     0   501   502  0.000000000E+00  0.000000000E+00 -2.368792070E+03  2.368792070E+03  0.000000000E+00  0.00000E+00  9.000E+00
      25     1     1     2     0     0 -1.029594375E+03 -1.420201017E+02  4.421295600E+00  1.046842315E+03  1.250000000E+02  0.00000E+00  9.000E+00
      25     1     1     2     0     0  1.006143146E+03  1.051621072E+02 -1.703999584E+03  1.985603858E+03  1.250000000E+02  0.00000E+00  9.000E+00
       2     1     1     2   501     0  2.345122890E+01  3.685799455E+01  1.688552647E+02  1.744149430E+02  1.907348633E-06  0.00000E+00  9.000E+00
#rwgt            1           1   5.7716687127446306E-002           8      217846           0
</event>
<event>
      5   9999  3.19816E-02  1.00241E+02 -1.00000E+00  1.23781E-01
      -3    -1     0     0     0   501  0.000000000E+00  0.000000000E+00  2.959646439E+02  2.959646439E+02  0.000000000E+00  0.00000E+00  9.000E+00
      21    -1     0     0   501   502  0.000000000E+00  0.000000000E+00 -3.171785317E+02  3.171785317E+02  0.000000000E+00  0.00000E+00  9.000E+00
      25     1     1     2     0     0  8.972391862E+01  6.742743129E+01 -2.259086551E+02  2.815254171E+02  1.250000000E+02  0.00000E+00  9.000E+00
      25     1     1     2     0     0 -3.630219378E+01  1.739239941E+01  1.890168275E+02  2.301580020E+02  1.250000000E+02  0.00000E+00  9.000E+00
      -3     1     1     2     0   502 -5.342172484E+01 -8.481983070E+01  1.567793980E+01  1.014597564E+02  1.702649219E-06  0.00000E+00  9.000E+00
#rwgt            1           1   2.4930110564987042E-002           8      218087           0
</event>
<event>
      5   9999  3.19816E-02  2.17143E+02 -1.00000E+00  1.10363E-01
      21    -1     0     0   511   501  0.000000000E+00  0.000000000E+00  1.457644610E+03  1.457644610E+03  0.000000000E+00  0.00000E+00  9.000E+00
      21    -1     0     0   501   502  0.000000000E+00  0.000000000E+00 -1.559174935E+03  1.559174935E+03  0.000000000E+00  0.00000E+00  9.000E+00
      25     1     1     2     0     0  2.555306383E+02  1.803150867E+02 -1.161682515E+03  1.209520857E+03  1.250000000E+02  0.00000E+00  9.000E+00
      25     1     1     2     0     0 -2.890652116E+02  3.422300325E+01 -2.961893247E+02  4.336854004E+02  1.250000000E+02  0.00000E+00  9.000E+00
      21     1     1     2   511   502  3.353457326E+01 -2.145380899E+02  1.356341515E+03  1.373613288E+03  2.157918644E-05  0.00000E+00  9.000E+00
#rwgt            1           1   2.6778573439942530E-002           8      218168           0
</event>
<event>
      5   9999  3.19816E-02  3.12920E+01 -1.00000E+00  1.51779E-01
      21    -1     0     0   512   501  0.000000000E+00  0.000000000E+00  1.363226629E+03  1.363226629E+03  0.000000000E+00  0.00000E+00  9.000E+00
      21    -1     0     0   501   502  0.000000000E+00  0.000000000E+00 -6.897406368E+01  6.897406368E+01  0.000000000E+00  0.00000E+00  9.000E+00
      25     1     1     2     0     0  1.122744049E+02 -1.507686190E+02  3.383724093E+02  4.067648041E+02  1.250000000E+02  0.00000E+00  9.000E+00
      25     1     1     2     0     0 -1.067946960E+02  1.199601349E+02  2.663972059E+02  3.352432138E+02  1.250000000E+02  0.00000E+00  9.000E+00
      21     1     1     2   512   502 -5.479708936E+00  3.080848415E+01  6.894829496E+02  6.901926743E+02  1.705984480E-05  0.00000E+00  9.000E+00
#rwgt            1           1   3.1532648701028641E-002           8      218266           0
</event>
<event>
      5   9999  3.19816E-02  3.21232E+02 -1.00000E+00  1.04636E-01
      21    -1     0     0   502   501  0.000000000E+00  0.000000000E+00  1.232725241E+03  1.232725241E+03  0.000000000E+00  0.00000E+00  9.000E+00
      21    -1     0     0   511   502  0.000000000E+00  0.000000000E+00 -1.293048160E+03  1.293048160E+03  0.000000000E+00  0.00000E+00  9.000E+00
      25     1     1     2     0     0  7.113819009E+02  4.811939951E+02  4.876983977E+02  9.955333229E+02  1.250000000E+02  0.00000E+00  9.000E+00
      25     1     1     2     0     0 -7.393061652E+02 -8.012097420E+02 -3.452435575E+02  1.150360279E+03  1.250000000E+02  0.00000E+00  9.000E+00
      21     1     1     2   511   501  2.792426430E+01  3.200157469E+02 -2.027777589E+02  3.798797998E+02  5.394796609E-06  0.00000E+00  9.000E+00
#rwgt            1           1   2.7579394903792409E-002           8      218368           0
</event>
<event>
      5   9999  3.19816E-02  2.02198E+03 -1.00000E+00  8.42066E-02
       2    -1     0     0   502     0  0.000000000E+00  0.000000000E+00  1.700040352E+03  1.700040352E+03  0.000000000E+00  0.00000E+00  9.000E+00
      21    -1     0     0   501   502  0.000000000E+00  0.000000000E+00 -3.952490893E+03  3.952490893E+03  0.000000000E+00  0.00000E+00  9.000E+00
      25     1     1     2     0     0 -1.327171195E+00 -1.413110146E+02 -1.636787124E+03  1.647624852E+03  1.250000000E+02  0.00000E+00  9.000E+00
      25     1     1     2     0     0 -1.525952835E+03 -1.183755044E+03 -2.957938405E+02  1.957786264E+03  1.250000000E+02  0.00000E+00  9.000E+00
       2     1     1     2   501     0  1.527280006E+03  1.325066059E+03 -3.198695765E+02  2.047120129E+03  3.757041093E-05  0.00000E+00  9.000E+00
#rwgt            2          18   4.5695575579923955E-005           8      218449           0
</event>
<event>
      5   9999  3.19816E-02  6.28777E+01 -1.00000E+00  1.33625E-01
      21    -1     0     0   502   501  0.000000000E+00  0.000000000E+00  4.484117429E+02  4.484117429E+02  0.000000000E+00  0.00000E+00  9.000E+00
      21    -1     0     0   511   502  0.000000000E+00  0.000000000E+00 -5.052292872E+02  5.052292872E+02  0.000000000E+00  0.00000E+00  9.000E+00
      25     1     1     2     0     0  3.567732181E+02  2.103186138E+00 -2.054995249E+02  4.302866571E+02  1.250000000E+02  0.00000E+00  9.000E+00
      25     1     1     2     0     0 -4.127976900E+02 -3.064895429E+01  1.568136640E+02  4.599530590E+02  1.250000000E+02  0.00000E+00  9.000E+00
      21     1     1     2   511   501  5.602447190E+01  2.854576815E+01 -8.131683452E+00  6.340131392E+01  4.915124924E-07  0.00000E+00  9.000E+00
#rwgt            1           1   2.9695160744404248E-002           8      218513           0
</event>
<event>
      5   9999  3.19816E-02  1.62034E+02 -1.00000E+00  1.15081E-01
       1    -1     0     0   502     0  0.000000000E+00  0.000000000E+00  2.204164788E+03  2.204164788E+03  0.000000000E+00  0.00000E+00  9.000E+00
      21    -1     0     0   501   502  0.000000000E+00  0.000000000E+00 -2.405167188E+02  2.405167188E+02  0.000000000E+00  0.00000E+00  9.000E+00
      25     1     1     2     0     0  2.097948180E+02 -7.568451707E+00  9.118759311E+01  2.607898086E+02  1.250000000E+02  0.00000E+00  9.000E+00
      25     1     1     2     0     0 -2.205097996E+02 -1.541109018E+02 -7.714276349E+00  2.967477916E+02  1.250000000E+02  0.00000E+00  9.000E+00
       1     1     1     2   501     0  1.071498155E+01  1.616793535E+02  1.880174753E+03  1.887143907E+03  2.157918644E-05  0.00000E+00  9.000E+00
#rwgt            1           1   2.6826768454750224E-002           8      218607           0
</event>
<event>
      5   9999  3.19816E-02  1.78267E+02 -1.00000E+00  1.13498E-01
      21    -1     0     0   502   501  0.000000000E+00  0.000000000E+00  4.903944371E+02  4.903944371E+02  0.000000000E+00  0.00000E+00  9.000E+00
      -2    -1     0     0     0   502  0.000000000E+00  0.000000000E+00 -7.881269148E+02  7.881269148E+02  0.000000000E+00  0.00000E+00  9.000E+00
      25     1     1     2     0     0 -4.139513328E+01 -2.815054083E+02  9.318246325E+01  3.244484912E+02  1.250000000E+02  0.00000E+00  9.000E+00
      25     1     1     2     0     0  8.313024174E+01  1.081930446E+02  2.373769915E+02  3.009804115E+02  1.250000000E+02  0.00000E+00  9.000E+00
      -2     1     1     2     0   501 -4.173510845E+01  1.733123638E+02 -6.282919325E+02  6.530924492E+02  1.078959322E-05  0.00000E+00  9.000E+00
#rwgt            1           1   2.6186381773917664E-002           8      218682           0
</event>
<event>
      5   9999  3.19816E-02  1.07148E+02 -1.00000E+00  1.22494E-01
      21    -1     0     0   502   501  0.000000000E+00  0.000000000E+00  5.760296799E+02  5.760296799E+02  0.000000000E+00  0.00000E+00  9.000E+00
      21    -1     0     0   511   502  0.000000000E+00  0.000000000E+00 -6.976855021E+02  6.976855021E+02  0.000000000E+00  0.00000E+00  9.000E+00
      25     1     1     2     0     0 -3.801999920E+02  1.288606650E+02 -9.047945733E+01  4.300798032E+02  1.250000000E+02  0.00000E+00  9.000E+00
      25     1     1     2     0     0  3.904418248E+02 -2.220292607E+01  2.915730130E+02  5.035649019E+02  1.250000000E+02  0.00000E+00  9.000E+00
      21     1     1     2   511   501 -1.024183280E+01 -1.066577389E+02 -3.227493778E+02  3.400704769E+02  3.814697266E-06  0.00000E+00  9.000E+00
#rwgt            1           1   2.5695383298748712E-002           8      218719           0
</event>
<event>
      5   9999  3.19816E-02  1.77797E+02 -1.00000E+00  1.13541E-01
      21    -1     0     0   502   501  0.000000000E+00  0.000000000E+00  1.639521439E+02  1.639521439E+02  0.000000000E+00  0.00000E+00  9.000E+00
       1    -1     0     0   501     0  0.000000000E+00  0.000000000E+00 -9.277951487E+02  9.277951487E+02  0.000000000E+00  0.00000E+00  9.000E+00
      25     1     1     2     0     0 -3.000999755E+02  1.264735971E+02 -1.772371785E+02  3.912717515E+02  1.250000000E+02  0.00000E+00  9.000E+00
      25     1     1     2     0     0  1.241852792E+02 -1.006675235E+02 -2.758741782E+02  3.424726209E+02  1.250000000E+02  0.00000E+00  9.000E+00
       1     1     1     2   502     0  1.759146964E+02 -2.580607356E+01 -3.107316480E+02  3.580029202E+02  6.607249480E-06  0.00000E+00  9.000E+00
#rwgt            2          12   2.7686668728806106E-004           8      218846           0
</event>
<event>
      5   9999  3.19816E-02  4.56525E+02 -1.00000E+00  9.99874E-02
       1    -1     0     0   502     0  0.000000000E+00  0.000000000E+00  4.055190963E+03  4.055190963E+03  0.000000000E+00  0.00000E+00  9.000E+00
      21    -1     0     0   501   502  0.000000000E+00  0.000000000E+00 -5.002256146E+02  5.002256146E+02  0.000000000E+00  0.00000E+00  9.000E+00
      25     1     1     2     0     0  1.026467484E+02  2.278265200E+02  5.709342757E+02  6.356352927E+02  1.250000000E+02  0.00000E+00  9.000E+00
      25     1     1     2     0     0  2.292724438E+02 -5.412668338E+02 -2.520316644E+02  6.516752249E+02  1.250000000E+02  0.00000E+00  9.000E+00
       1     1     1     2   501     0 -3.319191922E+02  3.134403138E+02  3.236062738E+03  3.268106060E+03  6.103515625E-05  0.00000E+00  9.000E+00
#rwgt            2          17   2.1177164519419161E-004           8      218895           0
</event>
<event>
      5   9999  3.19816E-02  7.71165E+01 -1.00000E+00  1.29126E-01
       1    -1     0     0   502     0  0.000000000E+00  0.000000000E+00  2.328121632E+03  2.328121632E+03  0.000000000E+00  0.00000E+00  9.000E+00
      21    -1     0     0   501   502  0.000000000E+00  0.000000000E+00 -8.284975185E+01  8.284975185E+01  0.000000000E+00  0.00000E+00  9.000E+00
      25     1     1     2     0     0 -8.626883776E+01 -1.939573414E+01  9.761529526E+00  1.534235781E+02  1.250000000E+02  0.00000E+00  9.000E+00
      25     1     1     2     0     0  1.624705247E+02  7.552582964E+00  1.069777815E+03  1.089267317E+03  1.250000000E+02  0.00000E+00  9.000E+00
       1     1     1     2   501     0 -7.620168692E+01  1.184315118E+01  1.165732535E+03  1.168280489E+03  0.000000000E+00  0.00000E+00  9.000E+00
#rwgt            1           1   2.7082814804708120E-002           8      218914           0
</event>
<event>
      5   9999  3.19816E-02  6.47650E+01 -1.00000E+00  1.32953E-01
      21    -1     0     0   502   501  0.000000000E+00  0.000000000E+00  2.504524481E+02  2.504524481E+02  0.000000000E+00  0.00000E+00  9.000E+00
      21    -1     0     0   501   511  0.000000000E+00  0.000000000E+00 -3.959528973E+02  3.959528973E+02  0.000000000E+00  0.00000E+00  9.000E+00
      25     1     1     2     0     0  5.416430194E+01  1.977205236E+02  6.999813748E+01  2.501038110E+02  1.250000000E+02  0.00000E+00  9.000E+00
      25     1     1     2     0     0 -1.035163649E+02 -1.557815973E+02 -6.768994910E+01  2.349265270E+02  1.250000000E+02  0.00000E+00  9.000E+00
      21     1     1     2   502   511  4.935206299E+01 -4.193892626E+01 -1.478086376E+02  1.613750074E+02  2.697398305E-06  0.00000E+00  9.000E+00
#rwgt            1           1   2.7201496518805709E-002           8      218993           0
</event>
<event>
      5   9999  3.19816E-02  1.50379E+02 -1.00000E+00  1.16350E-01
      21    -1     0     0   502   512  0.000000000E+00  0.000000000E+00  4.545600008E+02  4.545600008E+02  0.000000000E+00  0.00000E+00  9.000E+00
      21    -1     0     0   501   502  0.000000000E+00  0.000000000E+00 -2.880340227E+02  2.880340227E+02  0.000000000E+00  0.00000E+00  9.000E+00
      25     1     1     2     0     0  1.468887819E+02 -5.071951943E+01 -1.641439183E+02  2.582963604E+02  1.250000000E+02  0.00000E+00  9.000E+00
      25     1     1     2     0     0  3.488360231E+00  5.145714751E+01  1.679833652E+01  1.362614795E+02  1.250000000E+02  0.00000E+00  9.000E+00
      21     1     1     2   501   512 -1.503771421E+02 -7.376280746E-01  3.138715598E+02  3.480361835E+02  5.394796609E-06  0.00000E+00  9.000E+00
#rwgt            1           1   2.9107986749638912E-002           8      219068           0
</event>
<event>
      5   9999  3.19816E-02  7.80847E+01 -1.00000E+00  1.28861E-01
      21    -1     0     0   511   501  0.000000000E+00  0.000000000E+00  4.424379578E+02  4.424379578E+02  0.000000000E+00  0.00000E+00  9.000E+00
      21    -1     0     0   501   502  0.000000000E+00  0.000000000E+00 -5.119649175E+02  5.119649175E+02  0.000000000E+00  0.00000E+00  9.000E+00
      25     1     1     2     0     0 -2.892159423E+02  7.334760763E+01 -3.047268974E+02  4.444200882E+02  1.250000000E+02  0.00000E+00  9.000E+00
      25     1     1     2     0     0  3.514633147E+02 -2.620431359E+01  2.032372823E+02  4.256095870E+02  1.250000000E+02  0.00000E+00  9.000E+00
      21     1     1     2   511   502 -6.224737242E+01 -4.714329404E+01  3.196265529E+01  8.437320001E+01  1.215700987E-06  0.00000E+00  9.000E+00
#rwgt            1           1   2.9229902145140242E-002           8      219122           0
</event>
<event>
      5   9999  3.19816E-02  2.72513E+02 -1.00000E+00  1.06966E-01
       2    -1     0     0   502     0  0.000000000E+00  0.000000000E+00  2.071797683E+03  2.071797683E+03  0.000000000E+00  0.00000E+00  9.000E+00
      21    -1     0     0   501   502  0.000000000E+00  0.000000000E+00 -5.088380261E+02  5.088380261E+02  0.000000000E+00  0.00000E+00  9.000E+00
      25     1     1     2     0     0 -1.757259518E+01  2.774858153E+02 -1.845095343E+02  3.563368380E+02  1.250000000E+02  0.00000E+00  9.000E+00
      25     1     1     2     0     0 -2.549382257E+02 -2.763364621E+02 -5.618727596E+01  4.001716497E+02  1.250000000E+02  0.00000E+00  9.000E+00
       2     1     1     2   501     0  2.725108209E+02 -1.149353212E+00  1.803656468E+03  1.824127222E+03  0.000000000E+00  0.00000E+00  9.000E+00
#rwgt            1           1   2.7910330102202903E-002           8      219248           0
</event>
<event>
      5   9999  3.19816E-02  1.04471E+02 -1.00000E+00  1.22979E-01
      21    -1     0     0   502   501  0.000000000E+00  0.000000000E+00  3.223820604E+02  3.223820604E+02  0.000000000E+00  0.00000E+00  9.000E+00
      21    -1     0     0   501   511  0.000000000E+00  0.000000000E+00 -4.689154590E+02  4.689154590E+02  0.000000000E+00  0.00000E+00  9.000E+00
      25     1     1     2     0     0  1.004736274E+02 -2.878944989E+02  1.264853290E+02  3.529897035E+02  1.250000000E+02  0.00000E+00  9.000E+00
      25     1     1     2     0     0 -6.980123358E+01  1.880271462E+02 -2.109904386E+02  3.168096985E+02  1.250000000E+02  0.00000E+00  9.000E+00
      21     1     1     2   502   511 -3.067239381E+01  9.986735273E+01 -6.202828898E+01  1.214981173E+02  1.651812370E-06  0.00000E+00  9.000E+00
#rwgt            1           1   2.3061102468458352E-002           8      219333           0
</event>
<event>
      5   9999  3.19816E-02  1.38971E+01 -1.00000E+00  1.80566E-01
      21    -1     0     0   502   501  0.000000000E+00  0.000000000E+00  1.725180622E+02  1.725180622E+02  0.000000000E+00  0.00000E+00  9.000E+00
      21    -1     0     0   512   502  0.000000000E+00  0.000000000E+00 -5.892957943E+02  5.892957943E+02  0.000000000E+00  0.00000E+00  9.000E+00
      25     1     1     2     0     0  6.880985324E+00  1.216111750E+02  5.957256221E+01  1.844194025E+02  1.250000000E+02  0.00000E+00  9.000E+00
      25     1     1     2     0     0 -1.632811322E+01 -1.318033863E+02 -1.146472558E+02  2.154245418E+02  1.250000000E+02  0.00000E+00  9.000E+00
      21     1     1     2   512   501  9.447127901E+00  1.019221135E+01 -3.617030384E+02  3.619699123E+02  5.394796609E-06  0.00000E+00  9.000E+00
#rwgt            1           1   2.4420136457761230E-002           8      219480           0
</event>
<event>
      5   9999  3.19816E-02  1.16175E+01 -1.00000E+00  1.88519E-01
      21    -1     0     0   502   501  0.000000000E+00  0.000000000E+00  8.638063534E+02  8.638063534E+02  0.000000000E+00  0.00000E+00  9.000E+00
      21    -1     0     0   501   511  0.000000000E+00  0.000000000E+00 -4.964262913E+01  4.964262913E+01  0.000000000E+00  0.00000E+00  9.000E+00
      25     1     1     2     0     0  5.216465578E+01 -4.610222896E+01  8.384896429E+01  1.658379198E+02  1.250000000E+02  0.00000E+00  9.000E+00
      25     1     1     2     0     0 -4.055917555E+01  4.557395076E+01  7.149169638E+02  7.283222480E+02  1.250000000E+02  0.00000E+00  9.000E+00
      21     1     1     2   502   511 -1.160548023E+01  5.282782052E-01  1.539779620E+01  1.928881482E+01  4.129530925E-07  0.00000E+00  9.000E+00
#rwgt            1           1   3.0405173101741258E-002           8      219684           0
</event>
<event>
      5   9999  3.19816E-02  3.69642E+01 -1.00000E+00  1.46999E-01
      21    -1     0     0   502   501  0.000000000E+00  0.000000000E+00  2.754317925E+02  2.754317925E+02  0.000000000E+00  0.00000E+00  9.000E+00
      21    -1     0     0   501   512  0.000000000E+00  0.000000000E+00 -1.163136999E+03  1.163136999E+03  0.000000000E+00  0.00000E+00  9.000E+00
      25     1     1     2     0     0 -2.673715365E+02 -1.400337303E+01 -9.412155424E+02  9.865066296E+02  1.250000000E+02  0.00000E+00  9.000E+00
      25     1     1     2     0     0  2.407647153E+02  3.966317747E+01  1.748786469E+02  3.251897245E+02  1.250000000E+02  0.00000E+00  9.000E+00
      21     1     1     2   502   512  2.660682117E+01 -2.565980444E+01 -1.213683114E+02  1.268724379E+02  0.000000000E+00  0.00000E+00  9.000E+00
#rwgt            1           1   2.8032741226077580E-002           8      219900           0
</event>
<event>
      5   9999  3.19816E-02  2.27280E+01 -1.00000E+00  1.61914E-01
      21    -1     0     0   511   501  0.000000000E+00  0.000000000E+00  1.252022116E+03  1.252022116E+03  0.000000000E+00  0.00000E+00  9.000E+00
      21    -1     0     0   501   502  0.000000000E+00  0.000000000E+00 -2.083896046E+02  2.083896046E+02  0.000000000E+00  0.00000E+00  9.000E+00
      25     1     1     2     0     0  7.914272470E+01  1.077163346E+02  6.888382031E+02  7.127337859E+02  1.250000000E+02  0.00000E+00  9.000E+00
      25     1     1     2     0     0 -8.914064499E+01 -1.281272278E+02 -1.452267844E+02  2.471405673E+02  1.250000000E+02  0.00000E+00  9.000E+00
      21     1     1     2   511   502  9.997920290E+00  2.041089312E+01  5.000210930E+02  5.005373677E+02  5.394796609E-06  0.00000E+00  9.000E+00
#rwgt            2          11   1.2679660475261346E-003           8      220018           0
</event>
<event>
      5   9999  3.19816E-02  3.12622E+01 -1.00000E+00  1.51807E-01
      21    -1     0     0   512   501  0.000000000E+00  0.000000000E+00  2.001532167E+02  2.001532167E+02  0.000000000E+00  0.00000E+00  9.000E+00
      21    -1     0     0   501   502  0.000000000E+00  0.000000000E+00 -6.838510935E+02  6.838510935E+02  0.000000000E+00  0.00000E+00  9.000E+00
      25     1     1     2     0     0  1.721068579E+02  2.533964278E+02 -3.883167107E+02  5.101425173E+02  1.250000000E+02  0.00000E+00  9.000E+00
      25     1     1     2     0     0 -1.964835540E+02 -2.338234039E+02 -8.339486775E+01  3.403804859E+02  1.250000000E+02  0.00000E+00  9.000E+00
      21     1     1     2   512   502  2.437669601E+01 -1.957302385E+01 -1.198629840E+01  3.348130703E+01  4.768371582E-07  0.00000E+00  9.000E+00
#rwgt            1           1   3.1567374970227900E-002           8      220038           0
</event>
<event>
      5   9999  3.19816E-02  2.74809E+01 -1.00000E+00  1.55733E-01
      21    -1     0     0   502   501  0.000000000E+00  0.000000000E+00  9.079996618E+02  9.079996618E+02  0.000000000E+00  0.00000E+00  9.000E+00
      21    -1     0     0   501   511  0.000000000E+00  0.000000000E+00 -3.585244684E+02  3.585244684E+02  0.000000000E+00  0.00000E+00  9.000E+00
      25     1     1     2     0     0  3.834106329E+02  3.327062103E+02  4.707135775E+02  7.034866081E+02  1.250000000E+02  0.00000E+00  9.000E+00
      25     1     1     2     0     0 -3.839423635E+02 -3.052304255E+02  1.135098581E+02  5.187358085E+02  1.250000000E+02  0.00000E+00  9.000E+00
      21     1     1     2   502   511  5.317306543E-01 -2.747578481E+01 -3.474824216E+01  4.430171353E+01  8.259061849E-07  0.00000E+00  9.000E+00
#rwgt            1           1   2.9568264729206668E-002           8      220156           0
</event>
<event>
      5   9999  3.19816E-02  5.01426E+01 -1.00000E+00  1.39005E-01
      21    -1     0     0   502   501  0.000000000E+00  0.000000000E+00  3.989233325E+02  3.989233325E+02  0.000000000E+00  0.00000E+00  9.000E+00
       2    -1     0     0   501     0  0.000000000E+00  0.000000000E+00 -6.790743376E+02  6.790743376E+02  0.000000000E+00  0.00000E+00  9.000E+00
      25     1     1     2     0     0  4.575971063E+02 -1.474613998E+02 -1.856826302E+02  5.303235006E+02  1.250000000E+02  0.00000E+00  9.000E+00
      25     1     1     2     0     0 -4.124822664E+02  1.693460188E+02 -2.734320533E+01  4.638882894E+02  1.250000000E+02  0.00000E+00  9.000E+00
       2     1     1     2   502     0 -4.511483986E+01 -2.188461904E+01 -6.712516953E+01  8.378588014E+01  0.000000000E+00  0.00000E+00  9.000E+00
#rwgt            1           1   3.0500305115508743E-002           8      220347           0
</event>
<event>
      5   9999  3.19816E-02  3.11474E+01 -1.00000E+00  1.51916E-01
       1    -1     0     0   502     0  0.000000000E+00  0.000000000E+00  1.751742925E+03  1.751742925E+03  0.000000000E+00  0.00000E+00  9.000E+00
      21    -1     0     0   501   502  0.000000000E+00  0.000000000E+00 -1.510397848E+02  1.510397848E+02  0.000000000E+00  0.00000E+00  9.000E+00
      25     1     1     2     0     0 -6.648645234E+01 -1.017622244E+02 -7.265182730E+01  1.888896150E+02  1.250000000E+02  0.00000E+00  9.000E+00
      25     1     1     2     0     0  9.736925718E+01  9.771091498E+01  4.114290248E+02  4.515828136E+02  1.250000000E+02  0.00000E+00  9.000E+00
       1     1     1     2   501     0 -3.088280484E+01  4.051309391E+00  1.261925943E+03  1.262310281E+03  1.525878906E-05  0.00000E+00  9.000E+00
#rwgt            1           1   2.8203607812500239E-002           8      220432           0
</event>
<event>
      5   9999  3.19816E-02  2.76912E+01 -1.00000E+00  1.55495E-01
      21    -1     0     0   502   501  0.000000000E+00  0.000000000E+00  7.350276983E+02  7.350276983E+02  0.000000000E+00  0.00000E+00  9.000E+00
      21    -1     0     0   511   502  0.000000000E+00  0.000000000E+00 -6.081756292E+02  6.081756292E+02  0.000000000E+00  0.00000E+00  9.000E+00
      25     1     1     2     0     0 -4.504841341E+02  8.023509011E+01 -3.509967485E+02  5.900824877E+02  1.250000000E+02  0.00000E+00  9.000E+00
      25     1     1     2     0     0  4.301765085E+02 -9.906067498E+01  5.257545132E+02  6.977876854E+02  1.250000000E+02  0.00000E+00  9.000E+00
      21     1     1     2   511   501  2.030762567E+01  1.882558487E+01 -4.790569557E+01  5.533315439E+01  6.743495762E-07  0.00000E+00  9.000E+00
#rwgt            1           1   2.9176934530442383E-002           8      220546           0
</event>
<event>
      5   9999  3.19816E-02  2.95218E+01 -1.00000E+00  1.53526E-01
      21    -1     0     0   502   501  0.000000000E+00  0.000000000E+00  1.209646056E+02  1.209646056E+02  0.000000000E+00  0.00000E+00  9.000E+00
       2    -1     0     0   501     0  0.000000000E+00  0.000000000E+00 -1.462689244E+03  1.462689244E+03  0.000000000E+00  0.00000E+00  9.000E+00
      25     1     1     2     0     0  1.846487280E+02  7.408898205E+01 -5.384399003E+02  5.874749836E+02  1.250000000E+02  0.00000E+00  9.000E+00
      25     1     1     2     0     0 -1.644458027E+02 -9.561524713E+01 -3.853116282E+01  2.308556866E+02  1.250000000E+02  0.00000E+00  9.000E+00
       2     1     1     2   502     0 -2.020292531E+01  2.152626508E+01 -7.647535755E+02  7.653231798E+02  0.000000000E+00  0.00000E+00  9.000E+00
#rwgt            1           1   2.7037763215971029E-002           8      220774           0
</event>
<event>
      5   9999  3.19816E-02  2.40119E+01 -1.00000E+00  1.60074E-01
      21    -1     0     0   502   501  0.000000000E+00  0.000000000E+00  5.611343967E+02  5.611343967E+02  0.000000000E+00  0.00000E+00  9.000E+00
      21    -1     0     0   501   511  0.000000000E+00  0.000000000E+00 -2.125086883E+03  2.125086883E+03  0.000000000E+00  0.00000E+00  9.000E+00
      25     1     1     2     0     0  8.739990861E+01  4.884449391E+02 -1.946742847E+03  2.012871062E+03  1.250000000E+02  0.00000E+00  9.000E+00
      25     1     1     2     0     0 -7.525673182E+01 -4.677298758E+02  4.086887266E+02  6.380331400E+02  1.250000000E+02  0.00000E+00  9.000E+00
      21     1     1     2   502   511 -1.214317679E+01 -2.071506322E+01 -2.589836611E+01  3.531707737E+01  5.840038640E-07  0.00000E+00  9.000E+00
#rwgt            1           1   3.0209332293392451E-002           8      220872           0
</event>
<event>
      5   9999  3.19816E-02  2.61392E+02 -1.00000E+00  1.07573E-01
      21    -1     0     0   502   512  0.000000000E+00  0.000000000E+00  3.249354396E+02  3.249354396E+02  0.000000000E+00  0.00000E+00  9.000E+00
      21    -1     0     0   501   502  0.000000000E+00  0.000000000E+00 -2.193600812E+03  2.193600812E+03  0.000000000E+00  0.00000E+00  9.000E+00
      25     1     1     2     0     0 -7.743028049E+01  1.313309657E+02 -1.865315352E+02  2.714079670E+02  1.250000000E+02  0.00000E+00  9.000E+00
      25     1     1     2     0     0  1.398949612E+02 -3.851492437E+02 -1.874340019E+03  1.922676792E+03  1.250000000E+02  0.00000E+00  9.000E+00
      21     1     1     2   501   512 -6.246468067E+01  2.538182780E+02  1.922061820E+02  3.244514925E+02  3.814697266E-06  0.00000E+00  9.000E+00
#rwgt            1           1   2.5845323821478978E-002           8      221092           0
</event>
<event>
      5   9999  3.19816E-02  1.04509E+01 -1.00000E+00  1.93569E-01
      21    -1     0     0   502   501  0.000000000E+00  0.000000000E+00  1.917096812E+01  1.917096812E+01  0.000000000E+00  0.00000E+00  9.000E+00
      21    -1     0     0   511   502  0.000000000E+00  0.000000000E+00 -2.042811213E+03  2.042811213E+03  0.000000000E+00  0.00000E+00  9.000E+00
      25     1     1     2     0     0 -1.803799957E+01 -8.371243541E+00 -1.682908848E+03  1.687661885E+03  1.250000000E+02  0.00000E+00  9.000E+00
      25     1     1     2     0     0  1.800933505E+01  1.882209487E+01 -2.297444116E+02  2.628423521E+02  1.250000000E+02  0.00000E+00  9.000E+00
      21     1     1     2   511   501  2.866452137E-02 -1.045085133E+01 -1.109869852E+02  1.114779440E+02  0.000000000E+00  0.00000E+00  9.000E+00
#rwgt            1           1   9.0481323127106703E-002           8      221146           0
</event>
<event>
      5   9999  3.19816E-02  2.95131E+01 -1.00000E+00  1.53535E-01
      21    -1     0     0   512   501  0.000000000E+00  0.000000000E+00  1.847905824E+02  1.847905824E+02  0.000000000E+00  0.00000E+00  9.000E+00
      21    -1     0     0   501   502  0.000000000E+00  0.000000000E+00 -9.147470846E+02  9.147470846E+02  0.000000000E+00  0.00000E+00  9.000E+00
      25     1     1     2     0     0  2.097906907E+02  2.219373784E+01  6.289065393E+01  2.531500153E+02  1.250000000E+02  0.00000E+00  9.000E+00
      25     1     1     2     0     0 -1.810286382E+02 -2.880960625E+01 -7.851372202E+02  8.158840701E+02  1.250000000E+02  0.00000E+00  9.000E+00
      21     1     1     2   512   502 -2.876205249E+01  6.615868409E+00 -7.709935824E+00  3.050358157E+01  3.769728732E-07  0.00000E+00  9.000E+00
#rwgt            1           1   2.8854910735295860E-002           8      221325           0
</event>
<event>
      5   9999  3.19816E-02  1.29961E+01 -1.00000E+00  1.83459E-01
      21    -1     0     0   511   501  0.000000000E+00  0.000000000E+00  3.661821432E+02  3.661821432E+02  0.000000000E+00  0.00000E+00  9.000E+00
      21    -1     0     0   501   502  0.000000000E+00  0.000000000E+00 -2.863346929E+02  2.863346929E+02  0.000000000E+00  0.00000E+00  9.000E+00
      25     1     1     2     0     0  9.901829525E+01 -1.763435026E+02  2.410744297E+02  3.385905113E+02  1.250000000E+02  0.00000E+00  9.000E+00
      25     1     1     2     0     0 -9.590156384E+01  1.637266993E+02 -1.808394331E+02  2.903987648E+02  1.250000000E+02  0.00000E+00  9.000E+00
      21     1     1     2   511   502 -3.116731411E+00  1.261680324E+01  1.961245376E+01  2.352756004E+01  3.371747881E-07  0.00000E+00  9.000E+00
#rwgt            1           1   2.7295408612102119E-002           8      221516           0
</event>
<event>
      5   9999  3.19816E-02  1.26893E+02 -1.00000E+00  1.19348E-01
      21    -1     0     0   502   501  0.000000000E+00  0.000000000E+00  6.870832498E+02  6.870832498E+02  0.000000000E+00  0.00000E+00  9.000E+00
      21    -1     0     0   501   512  0.000000000E+00  0.000000000E+00 -2.189891158E+02  2.189891158E+02  0.000000000E+00  0.00000E+00  9.000E+00
      25     1     1     2     0     0 -5.616939767E+01  8.080993611E+01 -1.252393634E+02  2.024725788E+02  1.250000000E+02  0.00000E+00  9.000E+00
      25     1     1     2     0     0 -2.796848109E+01  1.417799753E+01  5.568468085E+02  5.715650617E+02  1.250000000E+02  0.00000E+00  9.000E+00
      21     1     1     2   502   512  8.413787876E+01 -9.498793365E+01  3.648668881E+01  1.320347251E+02  9.536743164E-07  0.00000E+00  9.000E+00
#rwgt            1           1   2.8622870659026710E-002           8      221722           0
</event>
<event>
      5   9999  3.19816E-02  5.29771E+02 -1.00000E+00  9.81436E-02
      21    -1     0     0   502   511  0.000000000E+00  0.000000000E+00  7.156095384E+02  7.156095384E+02  0.000000000E+00  0.00000E+00  9.000E+00
      21    -1     0     0   501   502  0.000000000E+00  0.000000000E+00 -6.195862753E+02  6.195862753E+02  0.000000000E+00  0.00000E+00  9.000E+00
      25     1     1     2     0     0 -5.414809215E+01 -1.179106413E+02  4.679127425E+00  1.802271607E+02  1.250000000E+02  0.00000E+00  9.000E+00
      25     1     1     2     0     0  5.061823301E+02 -1.583538376E+02 -1.609664479E+02  5.681827933E+02  1.250000000E+02  0.00000E+00  9.000E+00
      21     1     1     2   501   511 -4.520342379E+02  2.762644789E+02  2.523105837E+02  5.867858598E+02  1.009274029E-05  0.00000E+00  9.000E+00
#rwgt            2          11   2.8455160485743869E-003           8      221777           0
</event>
<event>
      5   9999  3.19816E-02  3.44005E+01 -1.00000E+00  1.49023E-01
      21    -1     0     0   502   501  0.000000000E+00  0.000000000E+00  1.800278021E+02  1.800278021E+02  0.000000000E+00  0.00000E+00  9.000E+00
      21    -1     0     0   501   512  0.000000000E+00  0.000000000E+00 -7.642284370E+02  7.642284370E+02  0.000000000E+00  0.00000E+00  9.000E+00
      25     1     1     2     0     0  1.248962197E+02 -1.441114546E+01 -3.657941000E+02  4.064936290E+02  1.250000000E+02  0.00000E+00  9.000E+00
      25     1     1     2     0     0 -9.216539511E+01  3.823910517E+00  1.208156114E+02  1.968006461E+02  1.250000000E+02  0.00000E+00  9.000E+00
      21     1     1     2   502   512 -3.273082457E+01  1.058723494E+01 -3.392221463E+02  3.409619641E+02  3.814697266E-06  0.00000E+00  9.000E+00
#rwgt            1           1   3.3488857040708996E-002           8      221797           0
</event>
<event>
      5   9999  3.19816E-02  2.76428E+02 -1.00000E+00  1.06760E-01
      21    -1     0     0   502   501  0.000000000E+00  0.000000000E+00  2.721939609E+02  2.721939609E+02  0.000000000E+00  0.00000E+00  9.000E+00
      21    -1     0     0   511   502  0.000000000E+00  0.000000000E+00 -1.586128680E+03  1.586128680E+03  0.000000000E+00  0.00000E+00  9.000E+00
      25     1     1     2     0     0 -4.493851010E+02 -5.147226233E+01 -1.436502227E+02  4.907715856E+02  1.250000000E+02  0.00000E+00  9.000E+00
      25     1     1     2     0     0  3.117481739E+02 -1.882533212E+02 -4.292324530E+02  5.766209635E+02  1.250000000E+02  0.00000E+00  9.000E+00
      21     1     1     2   511   501  1.376369271E+02  2.397255835E+02 -7.410520434E+02  7.909300918E+02  0.000000000E+00  0.00000E+00  9.000E+00
#rwgt            2          11   2.0771480940949250E-003           8      221954           0
</event>
<event>
      5   9999  3.19816E-02  7.90531E+01 -1.00000E+00  1.28600E-01
      21    -1     0     0   502   501  0.000000000E+00  0.000000000E+00  8.519568451E+02  8.519568451E+02  0.000000000E+00  0.00000E+00  9.000E+00
      21    -1     0     0   512   502  0.000000000E+00  0.000000000E+00 -1.053965546E+03  1.053965546E+03  0.000000000E+00  0.00000E+00  9.000E+00
      25     1     1     2     0     0 -3.785984312E+02  7.123586455E+02 -2.734310045E+02  8.609187686E+02  1.250000000E+02  0.00000E+00  9.000E+00
      25     1     1     2     0     0  3.904254700E+02 -6.341952295E+02  2.928006868E+02  8.099338732E+02  1.250000000E+02  0.00000E+00  9.000E+00
      21     1     1     2   512   501 -1.182703881E+01 -7.816341606E+01 -2.213783836E+02  2.350697496E+02  2.697398305E-06  0.00000E+00  9.000E+00
#rwgt            1           1   2.9864342804193578E-002           8      221974           0
</event>
<event>
      5   9999  3.19816E-02  6.88512E+01 -1.00000E+00  1.31586E-01
      21    -1     0     0   502   511  0.000000000E+00  0.000000000E+00  9.580049792E+02  9.580049792E+02  0.000000000E+00  0.00000E+00  9.000E+00
      21    -1     0     0   501   502  0.000000000E+00  0.000000000E+00 -2.469164241E+02  2.469164241E+02  0.000000000E+00  0.00000E+00  9.000E+00
      25     1     1     2     0     0 -1.469141532E+01 -2.882014958E+02 -8.378688356E+01  3.254553452E+02  1.250000000E+02  0.00000E+00  9.000E+00
      25     1     1     2     0     0 -4.277412806E+01  2.502779487E+02  7.371771015E+02  7.896352048E+02  1.250000000E+02  0.00000E+00  9.000E+00
      21     1     1     2   501   511  5.746554338E+01  3.792354713E+01  5.769833716E+01  8.983085335E+01  9.536743164E-07  0.00000E+00  9.000E+00
#rwgt            1           1   2.8536986407161378E-002           8      222056           0
</event>
<event>
      5   9999  3.19816E-02  1.51329E+01 -1.00000E+00  1.77024E-01
      21    -1     0     0   502   512  0.000000000E+00  0.000000000E+00  1.147799705E+03  1.147799705E+03  0.000000000E+00  0.00000E+00  9.000E+00
      21    -1     0     0   501   502  0.000000000E+00  0.000000000E+00 -1.925533242E+02  1.925533242E+02  0.000000000E+00  0.00000E+00  9.000E+00
      25     1     1     2     0     0 -2.624773313E+02 -3.396173630E+02  2.800870865E+02  5.275491245E+02  1.250000000E+02  0.00000E+00  9.000E+00
      25     1     1     2     0     0  2.474879712E+02  3.375381701E+02  6.440331800E+02  7.781940947E+02  1.250000000E+02  0.00000E+00  9.000E+00
      21     1     1     2   501   512  1.498936013E+01  2.079192935E+00  3.112611463E+01  3.460981035E+01  4.768371582E-07  0.00000E+00  9.000E+00
#rwgt            1           1   3.2043319479636859E-002           8      222170           0
</event>
<event>
      5   9999  3.19816E-02  1.99514E+01 -1.00000E+00  1.66456E-01
      21    -1     0     0   502   501  0.000000000E+00  0.000000000E+00  2.190720769E+02  2.190720769E+02  0.000000000E+00  0.00000E+00  9.000E+00
      21    -1     0     0   511   502  0.000000000E+00  0.000000000E+00 -3.386954474E+02  3.386954474E+02  0.000000000E+00  0.00000E+00  9.000E+00
      25     1     1     2     0     0  1.229062390E+01 -1.398735569E+02  1.369836398E+02  2.326052212E+02  1.250000000E+02  0.00000E+00  9.000E+00
      25     1     1     2     0     0  3.334454226E+00  1.274672470E+02 -2.403877251E+02  2.994499558E+02  1.250000000E+02  0.00000E+00  9.000E+00
      21     1     1     2   511   501 -1.562507813E+01  1.240630990E+01 -1.621928520E+01  2.571234731E+01  3.371747881E-07  0.00000E+00  9.000E+00
#rwgt            1           1   2.9882703306690350E-002           8      222384           0
</event>
<event>
      5   9999  3.19816E-02  1.78161E+02 -1.00000E+00  1.13507E-01
      21    -1     0     0   502   501  0.000000000E+00  0.000000000E+00  4.132957674E+02  4.132957674E+02  0.000000000E+00  0.00000E+00  9.000E+00
      21    -1     0     0   512   502  0.000000000E+00  0.000000000E+00 -3.692760196E+02  3.692760196E+02  0.000000000E+00  0.00000E+00  9.000E+00
      25     1     1     2     0     0  1.388231486E+02 -1.073966026E+02  2.879420447E+02  3.596408179E+02  1.250000000E+02  0.00000E+00  9.000E+00
      25     1     1     2     0     0  8.590461031E+00  7.342905304E+00 -5.942884926E+00  1.256504364E+02  1.250000000E+02  0.00000E+00  9.000E+00
      21     1     1     2   512   501 -1.474136096E+02  1.000536973E+02 -2.379794120E+02  2.972805328E+02  2.697398305E-06  0.00000E+00  9.000E+00
#rwgt            1           1   2.6394016196365489E-002           8      222538           0
</event>
<event>
      5   9999  3.19816E-02  3.11847E+01 -1.00000E+00  1.51881E-01
      21    -1     0     0   502   501  0.000000000E+00  0.000000000E+00  1.725308158E+02  1.725308158E+02  0.000000000E+00  0.00000E+00  9.000E+00
      21    -1     0     0   511   502  0.000000000E+00  0.000000000E+00 -2.628214521E+03  2.628214521E+03  0.000000000E+00  0.00000E+00  9.000E+00
      25     1     1     2     0     0  6.053405576E+01  1.119178268E+02 -1.879550645E+03  1.887995127E+03  1.250000000E+02  0.00000E+00  9.000E+00
      25     1     1     2     0     0 -9.162883158E+01 -1.142843223E+02  1.127601567E+02  2.231515226E+02  1.250000000E+02  0.00000E+00  9.000E+00
      21     1     1     2   511   501  3.109477583E+01  2.366495551E+00 -6.888932172E+02  6.895986877E+02  1.078959322E-05  0.00000E+00  9.000E+00
#rwgt            1           1   3.5871283664077158E-002           8      222580           0
</event>
<event>
      5   9999  3.19816E-02  3.29188E+02 -1.00000E+00  1.04298E-01
      21    -1     0     0   502   501  0.000000000E+00  0.000000000E+00  2.910728815E+02  2.910728815E+02  0.000000000E+00  0.00000E+00  9.000E+00
       2    -1     0     0   501     0  0.000000000E+00  0.000000000E+00 -3.024835283E+03  3.024835283E+03  0.000000000E+00  0.00000E+00  9.000E+00
      25     1     1     2     0     0  3.331747826E+02  4.416068076E+02 -1.586082770E+03  1.684430337E+03  1.250000000E+02  0.00000E+00  9.000E+00
      25     1     1     2     0     0 -3.144027473E+02 -1.129544072E+02  7.565030550E+01  3.646309838E+02  1.250000000E+02  0.00000E+00  9.000E+00
       2     1     1     2   502     0 -1.877203527E+01 -3.286524004E+02 -1.223329937E+03  1.266846844E+03  1.525878906E-05  0.00000E+00  9.000E+00
#rwgt            2          13   1.5057463139676068E-003           8      222780           0
</event>
<event>
      5   9999  3.19816E-02  2.21291E+01 -1.00000E+00  1.62824E-01
      21    -1     0     0   502   501  0.000000000E+00  0.000000000E+00  1.153805312E+02  1.153805312E+02  0.000000000E+00  0.00000E+00  9.000E+00
      21    -1     0     0   511   502  0.000000000E+00  0.000000000E+00 -9.745293587E+02  9.745293587E+02  0.000000000E+00  0.00000E+00  9.000E+00
      25     1     1     2     0     0  1.061202210E+02  1.353646882E+02 -2.324411945E+01  2.138934062E+02  1.250000000E+02  0.00000E+00  9.000E+00
      25     1     1     2     0     0 -1.200183406E+02 -1.181443691E+02 -5.402101913E+02  5.794950775E+02  1.250000000E+02  0.00000E+00  9.000E+00
      21     1     1     2   511   501  1.389811959E+01 -1.722031910E+01 -2.956945168E+02  2.965214063E+02  5.394796609E-06  0.00000E+00  9.000E+00
#rwgt            1           1   2.8828794006297339E-002           8      222799           0
</event>
<event>
      5   9999  3.19816E-02  3.06376E+01 -1.00000E+00  1.52408E-01
      21    -1     0     0   502   512  0.000000000E+00  0.000000000E+00  3.241004293E+02  3.241004293E+02  0.000000000E+00  0.00000E+00  9.000E+00
      21    -1     0     0   501   502  0.000000000E+00  0.000000000E+00 -5.620299927E+02  5.620299927E+02  0.000000000E+00  0.00000E+00  9.000E+00
      25     1     1     2     0     0 -4.738609363E+01  6.794326695E+01  2.583548950E+02  2.987205737E+02  1.250000000E+02  0.00000E+00  9.000E+00
      25     1     1     2     0     0  1.761890128E+01 -7.519404620E+01 -5.251486742E+02  5.453170640E+02  1.250000000E+02  0.00000E+00  9.000E+00
      21     1     1     2   501   512  2.976719235E+01  7.250779252E+00  2.886421577E+01  4.209278433E+01  3.371747881E-07  0.00000E+00  9.000E+00
#rwgt            1           1   3.0399177778400593E-002           8      222948           0
</event>
<event>
      5   9999  3.19816E-02  2.26186E+02 -1.00000E+00  1.09737E-01
      21    -1     0     0   502   501  0.000000000E+00  0.000000000E+00  5.546648269E+02  5.546648269E+02  0.000000000E+00  0.00000E+00  9.000E+00
      21    -1     0     0   511   502  0.000000000E+00  0.000000000E+00 -3.536632713E+02  3.536632713E+02  0.000000000E+00  0.00000E+00  9.000E+00
      25     1     1     2     0     0 -2.379343083E+02  2.687249331E+02  3.231945329E+01  3.814385557E+02  1.250000000E+02  0.00000E+00  9.000E+00
      25     1     1     2     0     0  1.282159809E+02 -7.093158707E+01  2.226079483E+02  2.943635957E+02  1.250000000E+02  0.00000E+00  9.000E+00
      21     1     1     2   511   501  1.097183274E+02 -1.977933460E+02 -5.392584597E+01  2.325259468E+02  2.431401974E-06  0.00000E+00  9.000E+00
#rwgt            1           1   2.9203563899701857E-002           8      223116           0
</event>
<event>
      5   9999  3.19816E-02  6.93527E+01 -1.00000E+00  1.31425E-01
      21    -1     0     0   502   501  0.000000000E+00  0.000000000E+00  6.012254875E+01  6.012254875E+01  0.000000000E+00  0.00000E+00  9.000E+00
       2    -1     0     0   501     0  0.000000000E+00  0.000000000E+00 -2.507352122E+03  2.507352122E+03  0.000000000E+00  0.00000E+00  9.000E+00
      25     1     1     2     0     0  1.346569987E+02  1.635311509E+02 -2.397405782E+02  3.434756024E+02  1.250000000E+02  0.00000E+00  9.000E+00
      25     1     1     2     0     0 -7.063265579E+01 -1.368724814E+02 -1.764365732E+03  1.775481479E+03  1.250000000E+02  0.00000E+00  9.000E+00
       2     1     1     2   502     0 -6.402434293E+01 -2.665866947E+01 -4.431232631E+02  4.485175888E+02  5.394796609E-06  0.00000E+00  9.000E+00
#rwgt            1           1   2.9442410156236009E-002           8      223146           0
</event>
<event>
      5   9999  3.19816E-02  2.90303E+02 -1.00000E+00  1.06058E-01
      -3    -1     0     0     0   501  0.000000000E+00  0.000000000E+00  6.314041562E+02  6.314041562E+02  0.000000000E+00  0.00000E+00  9.000E+00
      21    -1     0     0   501   502  0.000000000E+00  0.000000000E+00 -3.252070395E+02  3.252070395E+02  0.000000000E+00  0.00000E+00  9.000E+00
      25     1     1     2     0     0 -1.729197745E+02  2.761223367E+02  5.196898498E+01  3.528038671E+02  1.250000000E+02  0.00000E+00  9.000E+00
      25     1     1     2     0     0  1.590492590E+02  1.384915483E+01 -2.090543991E+01  2.038394057E+02  1.250000000E+02  0.00000E+00  9.000E+00
      -3     1     1     2     0   502  1.387051545E+01 -2.899714915E+02  2.751335716E+02  3.999679229E+02  5.394796609E-06  0.00000E+00  9.000E+00
#rwgt            2           3   5.6692526418747825E-005           8      223278           0
</event>
<event>
      5   9999  3.19816E-02  4.78213E+01 -1.00000E+00  1.40189E-01
      21    -1     0     0   502   511  0.000000000E+00  0.000000000E+00  1.183112810E+02  1.183112810E+02  0.000000000E+00  0.00000E+00  9.000E+00
      21    -1     0     0   501   502  0.000000000E+00  0.000000000E+00 -1.920914797E+03  1.920914797E+03  0.000000000E+00  0.00000E+00  9.000E+00
      25     1     1     2     0     0 -4.423471938E+02 -2.707868237E+01 -1.008427019E+03  1.108582134E+03  1.250000000E+02  0.00000E+00  9.000E+00
      25     1     1     2     0     0  3.998586144E+02  5.133362076E+00 -7.710400856E+02  8.775198439E+02  1.250000000E+02  0.00000E+00  9.000E+00
      21     1     1     2   501   511  4.248857943E+01  2.194532029E+01 -2.313641086E+01  5.312409973E+01  6.743495762E-07  0.00000E+00  9.000E+00
#rwgt            1           1   1.8728104422438531E-002           8      223297           0
</event>
<event>
      5   9999  3.19816E-02  9.78057E+01 -1.00000E+00  1.24263E-01
      21    -1     0     0   502   501  0.000000000E+00  0.000000000E+00  2.224844037E+02  2.224844037E+02  0.000000000E+00  0.00000E+00  9.000E+00
      21    -1     0     0   501   512  0.000000000E+00  0.000000000E+00 -6.116964382E+02  6.116964382E+02  0.000000000E+00  0.00000E+00  9.000E+00
      25     1     1     2     0     0  1.233576809E+02  2.294509815E+02 -3.302165728E+02  4.387856598E+02  1.250000000E+02  0.00000E+00  9.000E+00
      25     1     1     2     0     0 -2.717827679E+01 -2.472127782E+02  5.211839633E+00  2.783971618E+02  1.250000000E+02  0.00000E+00  9.000E+00
      21     1     1     2   502   512 -9.617940413E+01  1.776179665E+01 -6.420730134E+01  1.169980203E+02  0.000000000E+00  0.00000E+00  9.000E+00
#rwgt            1           1   2.8017287855577330E-002           8      223408           0
</event>
<event>
      5   9999  3.19816E-02  1.23436E+02 -1.00000E+00  1.19850E-01
      21    -1     0     0   502   501  0.000000000E+00  0.000000000E+00  3.400224776E+02  3.400224776E+02  0.000000000E+00  0.00000E+00  9.000E+00
       1    -1     0     0   501     0  0.000000000E+00  0.000000000E+00 -2.583662299E+03  2.583662299E+03  0.000000000E+00  0.00000E+00  9.000E+00
      25     1     1     2     0     0  5.294871007E+02  1.672018458E+02 -3.403518662E+02  6.631571759E+02  1.250000000E+02  0.00000E+00  9.000E+00
      25     1     1     2     0     0 -4.162928135E+02 -1.179731072E+02 -1.108192838E+02  4.638138358E+02  1.250000000E+02  0.00000E+00  9.000E+00
       1     1     1     2   502     0 -1.131942872E+02 -4.922873858E+01 -1.792468672E+03  1.796713765E+03  2.157918644E-05  0.00000E+00  9.000E+00
#rwgt            1           1   3.3309977616727993E-002           8      223487           0
</event>
<event>
      5   9999  3.19816E-02  7.10032E+01 -1.00000E+00  1.30908E-01
      21    -1     0     0   502   501  0.000000000E+00  0.000000000E+00  4.481826609E+02  4.481826609E+02  0.000000000E+00  0.00000E+00  9.000E+00
      21    -1     0     0   501   511  0.000000000E+00  0.000000000E+00 -4.706986150E+02  4.706986150E+02  0.000000000E+00  0.00000E+00  9.000E+00
      25     1     1     2     0     0 -1.973371918E+02  2.484634861E+02 -2.479851977E+02  4.216606805E+02  1.250000000E+02  0.00000E+00  9.000E+00
      25     1     1     2     0     0  2.450368284E+02 -1.958687882E+02  2.520755076E+02  4.213961213E+02  1.250000000E+02  0.00000E+00  9.000E+00
      21     1     1     2   502   511 -4.769963665E+01 -5.259469787E+01 -2.660626404E+01  7.582447406E+01  9.536743164E-07  0.00000E+00  9.000E+00
#rwgt            1           1   2.9046825843846887E-002           8      223548           0
</event>
<event>
      5   9999  3.19816E-02  1.03119E+02 -1.00000E+00  1.23231E-01
      -1    -1     0     0     0   501  0.000000000E+00  0.000000000E+00  1.680055732E+03  1.680055732E+03  0.000000000E+00  0.00000E+00  9.000E+00
      21    -1     0     0   501   502  0.000000000E+00  0.000000000E+00 -4.415867430E+02  4.415867430E+02  0.000000000E+00  0.00000E+00  9.000E+00
      25     1     1     2     0     0 -4.844373854E+02  4.919994593E+02  9.018274831E+01  7.074609363E+02  1.250000000E+02  0.00000E+00  9.000E+00
      25     1     1     2     0     0  5.451228599E+02 -4.086279788E+02  8.379522109E+02  1.087163587E+03  1.250000000E+02  0.00000E+00  9.000E+00
      -1     1     1     2     0   502 -6.068547451E+01 -8.337148050E+01  3.103340299E+02  3.270179517E+02  7.629394531E-06  0.00000E+00  9.000E+00
#rwgt            1           1   3.0384234659404586E-002           8      223663           0
</event>
<event>
      5   9999  3.19816E-02  7.95891E+01 -1.00000E+00  1.28458E-01
      21    -1     0     0   502   501  0.000000000E+00  0.000000000E+00  1.555931069E+02  1.555931069E+02  0.000000000E+00  0.00000E+00  9.000E+00
      21    -1     0     0   511   502  0.000000000E+00  0.000000000E+00 -1.110358330E+03  1.110358330E+03  0.000000000E+00  0.00000E+00  9.000E+00
      25     1     1     2     0     0 -2.655566087E+02  1.094361550E+02 -2.379664682E+02  3.933822879E+02  1.250000000E+02  0.00000E+00  9.000E+00
      25     1     1     2     0     0  2.282048806E+02 -3.915624610E+01 -1.554675175E+02  3.056236708E+02  1.250000000E+02  0.00000E+00  9.000E+00
      21     1     1     2   511   501  3.735172814E+01 -7.027990886E+01 -5.613312372E+02  5.669454780E+02  7.629394531E-06  0.00000E+00  9.000E+00
#rwgt            1           1   2.9305885889502080E-002           8      223774           0
</event>
<event>
      5   9999  3.19816E-02  1.39604E+01 -1.00000E+00  1.80374E-01
      21    -1     0     0   502   501  0.000000000E+00  0.000000000E+00  2.610001235E+02  2.610001235E+02  0.000000000E+00  0.00000E+00  9.000E+00
       2    -1     0     0   501     0  0.000000000E+00  0.000000000E+00 -1.680674229E+03  1.680674229E+03  0.000000000E+00  0.00000E+00  9.000E+00
      25     1     1     2     0     0 -1.521302230E+02  7.636576670E+01  1.009214263E+01  2.114289158E+02  1.250000000E+02  0.00000E+00  9.000E+00
      25     1     1     2     0     0  1.593366300E+02 -8.832232623E+01  6.896259096E+01  2.314515801E+02  1.250000000E+02  0.00000E+00  9.000E+00
       2     1     1     2   502     0 -7.206407046E+00  1.195655953E+01 -1.498728839E+03  1.498793857E+03  2.157918644E-05  0.00000E+00  9.000E+00
#rwgt            1           1   2.8553636780804085E-002           8      223848           0
</event>
<event>
      5   9999  3.19816E-02  4.43038E+01 -1.00000E+00  1.42140E-01
      -1    -1     0     0     0   501  0.000000000E+00  0.000000000E+00  3.227569820E+02  3.227569820E+02  0.000000000E+00  0.00000E+00  9.000E+00
      21    -1     0     0   501   502  0.000000000E+00  0.000000000E+00 -2.080814588E+03  2.080814588E+03  0.000000000E+00  0.00000E+00  9.000E+00
      25     1     1     2     0     0 -4.826338043E+02  1.888915801E+02 -1.553695443E+03  1.642622887E+03  1.250000000E+02  0.00000E+00  9.000E+00
      25     1     1     2     0     0  5.136162046E+02 -2.205604795E+02 -3.064917825E+02  6.496235398E+02  1.250000000E+02  0.00000E+00  9.000E+00
      -1     1     1     2     0   502 -3.098240031E+01  3.166889943E+01  1.021296197E+02  1.113251434E+02  2.336015456E-06  0.00000E+00  9.000E+00
#rwgt            1           1   3.7771690795081893E-002           8      223953           0
</event>
<event>
      5   9999  3.19816E-02  1.88958E+01 -1.00000E+00  1.68430E-01
      21    -1     0     0   502   501  0.000000000E+00  0.000000000E+00  2.825735472E+02  2.825735472E+02  0.000000000E+00  0.00000E+00  9.000E+00
      21    -1     0     0   511   502  0.000000000E+00  0.000000000E+00 -6.818335498E+02  6.818335498E+02  0.000000000E+00  0.00000E+00  9.000E+00
      25     1     1     2     0     0  2.810359312E+02  8.957720847E+01 -1.064120881E+02  3.375704421E+02  1.250000000E+02  0.00000E+00  9.000E+00
      25     1     1     2     0     0 -2.623294088E+02 -9.224484351E+01  2.733068747E+01  3.061009578E+02  1.250000000E+02  0.00000E+00  9.000E+00
      21     1     1     2   511   501 -1.870652237E+01  2.667635042E+00 -3.201786020E+02  3.207356971E+02  5.394796609E-06  0.00000E+00  9.000E+00
#rwgt            1           1   2.7777313637771323E-002           8      224072           0
</event>
<event>
      5   9999  3.19816E-02  3.45654E+01 -1.00000E+00  1.48886E-01
      21    -1     0     0   512   501  0.000000000E+00  0.000000000E+00  3.111438638E+02  3.111438638E+02  0.000000000E+00  0.00000E+00  9.000E+00
      21    -1     0     0   501   502  0.000000000E+00  0.000000000E+00 -1.394463723E+03  1.394463723E+03  0.000000000E+00  0.00000E+00  9.000E+00
      25     1     1     2     0     0  2.536179259E+02 -4.690166163E+02 -1.762995649E+02  5.753304922E+02  1.250000000E+02  0.00000E+00  9.000E+00
      25     1     1     2     0     0 -2.874872046E+02  4.759188340E+02 -9.286005470E+02  1.089528157E+03  1.250000000E+02  0.00000E+00  9.000E+00
      21     1     1     2   512   502  3.386927872E+01 -6.902217743E+00  2.158025225E+01  4.074893787E+01  9.233911863E-07  0.00000E+00  9.000E+00
#rwgt            1           1   3.3240132427858733E-002           8      224227           0
</event>
<event>
      5   9999  3.19816E-02  2.03386E+01 -1.00000E+00  1.65770E-01
      21    -1     0     0   502   501  0.000000000E+00  0.000000000E+00  2.219777599E+03  2.219777599E+03  0.000000000E+00  0.00000E+00  9.000E+00
      21    -1     0     0   511   502  0.000000000E+00  0.000000000E+00 -8.261837008E+02  8.261837008E+02  0.000000000E+00  0.00000E+00  9.000E+00
      25     1     1     2     0     0 -2.041581142E+02  1.505487638E+02  2.163959433E+03  2.182359020E+03  1.250000000E+02  0.00000E+00  9.000E+00
      25     1     1     2     0     0  1.882481265E+02 -1.632188498E+02 -3.726732891E+02  4.653902991E+02  1.250000000E+02  0.00000E+00  9.000E+00
      21     1     1     2   511   501  1.590998775E+01  1.267008601E+01 -3.976922459E+02  3.982119802E+02  0.000000000E+00  0.00000E+00  9.000E+00
#rwgt            1           1   2.1568076268988916E-002           8      224394           0
</event>
<event>
      5   9999  3.19816E-02  6.20065E+01 -1.00000E+00  1.33944E-01
      21    -1     0     0   502   501  0.000000000E+00  0.000000000E+00  8.566982118E+01  8.566982118E+01  0.000000000E+00  0.00000E+00  9.000E+00
      21    -1     0     0   512   502  0.000000000E+00  0.000000000E+00 -2.911257709E+03  2.911257709E+03  0.000000000E+00  0.00000E+00  9.000E+00
      25     1     1     2     0     0 -3.493524444E+02  4.520234075E+01 -5.288027053E+02  6.475706009E+02  1.250000000E+02  0.00000E+00  9.000E+00
      25     1     1     2     0     0  3.474688283E+02  1.677553524E+01 -1.325030536E+03  1.375626013E+03  1.250000000E+02  0.00000E+00  9.000E+00
      21     1     1     2   512   501  1.883616070E+00 -6.197787599E+01 -9.717546462E+02  9.737309164E+02  0.000000000E+00  0.00000E+00  9.000E+00
#rwgt            1           1   2.6614315202431255E-002           8      224613           0
</event>
<event>
      5   9999  3.19816E-02  3.58582E+01 -1.00000E+00  1.47847E-01
      21    -1     0     0   502   511  0.000000000E+00  0.000000000E+00  1.936160457E+02  1.936160457E+02  0.000000000E+00  0.00000E+00  9.000E+00
      21    -1     0     0   501   502  0.000000000E+00  0.000000000E+00 -8.322109608E+02  8.322109608E+02  0.000000000E+00  0.00000E+00  9.000E+00
      25     1     1     2     0     0  2.246270944E+02 -1.233776352E+02 -2.242395322E+02  3.627502450E+02  1.250000000E+02  0.00000E+00  9.000E+00
      25     1     1     2     0     0 -2.602679507E+02  1.273199701E+02 -4.880174936E+02  5.811504581E+02  1.250000000E+02  0.00000E+00  9.000E+00
      21     1     1     2   501   511  3.564085623E+01 -3.942334962E+00  7.366211064E+01  8.192630336E+01  0.000000000E+00  0.00000E+00  9.000E+00
#rwgt            1           1   2.8221063766902151E-002           8      224708           0
</event>
<event>
      5   9999  3.19816E-02  3.51590E+02 -1.00000E+00  1.03400E-01
      21    -1     0     0   502   501  0.000000000E+00  0.000000000E+00  1.543948526E+03  1.543948526E+03  0.000000000E+00  0.00000E+00  9.000E+00
      21    -1     0     0   512   502  0.000000000E+00  0.000000000E+00 -1.149696624E+02  1.149696624E+02  0.000000000E+00  0.00000E+00  9.000E+00
      25     1     1     2     0     0 -6.209411474E+01 -3.272700784E+02  5.633410160E+02  6.662878384E+02  1.250000000E+02  0.00000E+00  9.000E+00
      25     1     1     2     0     0 -3.367466355E+01 -1.102532219E+01  2.954781884E+02  3.227815059E+02  1.250000000E+02  0.00000E+00  9.000E+00
      21     1     1     2   512   501  9.576877829E+01  3.382954006E+02  5.701596590E+02  6.698488439E+02  1.078959322E-05  0.00000E+00  9.000E+00
#rwgt            2          11   2.4641280840430380E-003           8      224930           0
</event>
<event>
      5   9999  3.19816E-02  1.34703E+02 -1.00000E+00  1.18275E-01
       2    -1     0     0   502     0  0.000000000E+00  0.000000000E+00  2.503180486E+03  2.503180486E+03  0.000000000E+00  0.00000E+00  9.000E+00
      21    -1     0     0   501   502  0.000000000E+00  0.000000000E+00 -1.871220222E+03  1.871220222E+03  0.000000000E+00  0.00000E+00  9.000E+00
      25     1     1     2     0     0  3.566318901E+02 -1.125772981E+03 -8.803304613E+02  1.478227936E+03  1.250000000E+02  0.00000E+00  9.000E+00
      25     1     1     2     0     0 -4.228954077E+02  1.008494871E+03 -2.500108130E+02  1.128730631E+03  1.250000000E+02  0.00000E+00  9.000E+00
       2     1     1     2   501     0  6.626351755E+01  1.172781103E+02  1.762301538E+03  1.767442141E+03  0.000000000E+00  0.00000E+00  9.000E+00
#rwgt            1           1   5.7699904704450342E-002           8      224950           0
</event>
<event>
      5   9999  3.19816E-02  1.79764E+01 -1.00000E+00  1.70284E-01
      21    -1     0     0   502   501  0.000000000E+00  0.000000000E+00  3.892713938E+02  3.892713938E+02  0.000000000E+00  0.00000E+00  9.000E+00
      21    -1     0     0   501   511  0.000000000E+00  0.000000000E+00 -3.594386366E+02  3.594386366E+02  0.000000000E+00  0.00000E+00  9.000E+00
      25     1     1     2     0     0  1.925892713E+02  4.840852945E+01 -2.497072062E+02  3.426553691E+02  1.250000000E+02  0.00000E+00  9.000E+00
      25     1     1     2     0     0 -1.910674241E+02 -6.632043479E+01  2.973703569E+02  3.807351964E+02  1.250000000E+02  0.00000E+00  9.000E+00
      21     1     1     2   502   511 -1.521847187E+00  1.791190533E+01 -1.783039352E+01  2.531946494E+01  0.000000000E+00  0.00000E+00  9.000E+00
#rwgt            1           1   2.7406614547514141E-002           8      225056           0
</event>
<event>
      5   9999  3.19816E-02  3.73787E+01 -1.00000E+00  1.46690E-01
      21    -1     0     0   502   512  0.000000000E+00  0.000000000E+00  2.704683266E+02  2.704683266E+02  0.000000000E+00  0.00000E+00  9.000E+00
      21    -1     0     0   501   502  0.000000000E+00  0.000000000E+00 -1.467276272E+02  1.467276272E+02  0.000000000E+00  0.00000E+00  9.000E+00
      25     1     1     2     0     0  8.311358401E+01 -3.716378078E+00  1.156753282E+02  1.895454058E+02  1.250000000E+02  0.00000E+00  9.000E+00
      25     1     1     2     0     0 -4.972640023E+01  2.052301216E+01 -6.099112422E+01  1.491268793E+02  1.250000000E+02  0.00000E+00  9.000E+00
      21     1     1     2   501   512 -3.338718378E+01 -1.680663408E+01  6.905649539E+01  7.852366869E+01  1.348699152E-06  0.00000E+00  9.000E+00
#rwgt            1           1   3.2453703864081355E-002           8      225232           0
</event>
<event>
      5   9999  3.19816E-02  3.09712E+01 -1.00000E+00  1.52085E-01
      21    -1     0     0   511   501  0.000000000E+00  0.000000000E+00  2.372068106E+03  2.372068106E+03  0.000000000E+00  0.00000E+00  9.000E+00
      21    -1     0     0   501   502  0.000000000E+00  0.000000000E+00 -1.181066483E+02  1.181066483E+02  0.000000000E+00  0.00000E+00  9.000E+00
      25     1     1     2     0     0  4.789072085E+02  5.296269230E+01  1.020690346E+03  1.135601577E+03  1.250000000E+02  0.00000E+00  9.000E+00
      25     1     1     2     0     0 -5.093284825E+02 -5.877326473E+01  1.138307494E+03  1.254686714E+03  1.250000000E+02  0.00000E+00  9.000E+00
      21     1     1     2   511   502  3.042127394E+01  5.810572426E+00  9.496361834E+01  9.988646289E+01  1.348699152E-06  0.00000E+00  9.000E+00
#rwgt            1           1   2.7835638739695630E-002           8      225378           0
</event>
<event>
      5   9999  3.19816E-02  1.68384E+01 -1.00000E+00  1.72780E-01
      21    -1     0     0   502   501  0.000000000E+00  0.000000000E+00  3.181830305E+02  3.181830305E+02  0.000000000E+00  0.00000E+00  9.000E+00
      21    -1     0     0   512   502  0.000000000E+00  0.000000000E+00 -4.720805197E+02  4.720805197E+02  0.000000000E+00  0.00000E+00  9.000E+00
      25     1     1     2     0     0 -4.607613470E+01  2.581502875E+02 -3.059089415E+02  4.218647433E+02  1.250000000E+02  0.00000E+00  9.000E+00
      25     1     1     2     0     0  4.085002255E+01 -2.741571896E+02  1.660719775E+02  3.464618170E+02  1.250000000E+02  0.00000E+00  9.000E+00
      21     1     1     2   512   501  5.226112151E+00  1.600690206E+01 -1.406052516E+01  2.193698998E+01  3.371747881E-07  0.00000E+00  9.000E+00
#rwgt            1           1   2.9296327611225161E-002           8      225511           0
</event>
<event>
      5   9999  3.19816E-02  2.58192E+02 -1.00000E+00  1.07754E-01
      21    -1     0     0   502   501  0.000000000E+00  0.000000000E+00  6.514771841E+02  6.514771841E+02  0.000000000E+00  0.00000E+00  9.000E+00
       3    -1     0     0   501     0  0.000000000E+00  0.000000000E+00 -5.126176144E+02  5.126176144E+02  0.000000000E+00  0.00000E+00  9.000E+00
      25     1     1     2     0     0 -2.835996382E+02  1.535242987E+02  5.406106640E+01  3.500657995E+02  1.250000000E+02  0.00000E+00  9.000E+00
      25     1     1     2     0     0  2.774405922E+02  1.045946723E+02  3.278935364E+02  4.594045046E+02  1.250000000E+02  0.00000E+00  9.000E+00
       3     1     1     2   502     0  6.159045976E+00 -2.581189709E+02 -2.430950330E+02  3.546244945E+02  5.394796609E-06  0.00000E+00  9.000E+00
#rwgt            1           1   3.0556347939571633E-002           8      225717           0
</event>
<event>
      5   9999  3.19816E-02  1.36699E+02 -1.00000E+00  1.18015E-01
      21    -1     0     0   511   501  0.000000000E+00  0.000000000E+00  8.136247347E+02  8.136247347E+02  0.000000000E+00  0.00000E+00  9.000E+00
      21    -1     0     0   501   502  0.000000000E+00  0.000000000E+00 -3.901429625E+02  3.901429625E+02  0.000000000E+00  0.00000E+00  9.000E+00
      25     1     1     2     0     0  1.254828652E+02 -4.089089116E+02  1.340144782E+02  4.653357152E+02  1.250000000E+02  0.00000E+00  9.000E+00
      25     1     1     2     0     0 -1.665644475E+02  2.785294750E+02 -6.920441504E+01  3.545936191E+02  1.250000000E+02  0.00000E+00  9.000E+00
      21     1     1     2   511   502  4.108158230E+01  1.303794366E+02  3.586717091E+02  3.838383629E+02  6.607249480E-06  0.00000E+00  9.000E+00
#rwgt            1           1   2.9527334686040414E-002           8      225769           0
</event>
<event>
      5   9999  3.19816E-02  2.19432E+01 -1.00000E+00  1.63114E-01
      21    -1     0     0   502   512  0.000000000E+00  0.000000000E+00  9.592723565E+02  9.592723565E+02  0.000000000E+00  0.00000E+00  9.000E+00
      21    -1     0     0   501   502  0.000000000E+00  0.000000000E+00 -1.418615169E+02  1.418615169E+02  0.000000000E+00  0.00000E+00  9.000E+00
      25     1     1     2     0     0 -1.239514745E+01  2.877494694E+01 -1.030716777E+02  1.650163871E+02  1.250000000E+02  0.00000E+00  9.000E+00
      25     1     1     2     0     0 -1.572653611E+00 -1.185141622E+01  8.885096018E+02  8.973389782E+02  1.250000000E+02  0.00000E+00  9.000E+00
      21     1     1     2   501   512  1.396780106E+01 -1.692353072E+01  3.197291557E+01  3.877850807E+01  0.000000000E+00  0.00000E+00  9.000E+00
#rwgt            1           1   2.6053001038432090E-002           8      225820           0
</event>
<event>
      5   9999  3.19816E-02  8.41872E+01 -1.00000E+00  1.27286E-01
      21    -1     0     0   502   501  0.000000000E+00  0.000000000E+00  1.943797523E+03  1.943797523E+03  0.000000000E+00  0.00000E+00  9.000E+00
       2    -1     0     0   501     0  0.000000000E+00  0.000000000E+00 -8.536542096E+02  8.536542096E+02  0.000000000E+00  0.00000E+00  9.000E+00
      25     1     1     2     0     0 -1.371400907E+02 -5.300328729E+02  2.537954816E+02  6.162624419E+02  1.250000000E+02  0.00000E+00  9.000E+00
      25     1     1     2     0     0  1.153324620E+02  6.113465714E+02  1.438991123E+03  1.572694076E+03  1.250000000E+02  0.00000E+00  9.000E+00
       2     1     1     2   502     0  2.180762873E+01 -8.131369850E+01 -6.026432907E+02  6.084952145E+02  1.078959322E-05  0.00000E+00  9.000E+00
#rwgt            1           1   2.6040117219579103E-002           8      226014           0
</event>
<event>
      5   9999  3.19816E-02  1.32458E+01 -1.00000E+00  1.82628E-01
      21    -1     0     0   502   501  0.000000000E+00  0.000000000E+00  1.336592999E+02  1.336592999E+02  0.000000000E+00  0.00000E+00  9.000E+00
      21    -1     0     0   501   511  0.000000000E+00  0.000000000E+00 -1.586810366E+03  1.586810366E+03  0.000000000E+00  0.00000E+00  9.000E+00
      25     1     1     2     0     0 -2.347412139E+02  2.073378836E+02 -1.167475578E+03  1.215202313E+03  1.250000000E+02  0.00000E+00  9.000E+00
      25     1     1     2     0     0  2.437349165E+02 -2.170623719E+02 -1.696634266E+02  3.885015588E+02  1.250000000E+02  0.00000E+00  9.000E+00
      21     1     1     2   502   511 -8.993702648E+00  9.724488394E+00 -1.160120619E+02  1.167657950E+02  1.348699152E-06  0.00000E+00  9.000E+00
#rwgt            2          11   4.2360654211824706E-003           8      226198           0
</event>
<event>
      5   9999  3.19816E-02  2.19755E+01 -1.00000E+00  1.63063E-01
      21    -1     0     0   512   501  0.000000000E+00  0.000000000E+00  5.941039688E+02  5.941039688E+02  0.000000000E+00  0.00000E+00  9.000E+00
      21    -1     0     0   501   502  0.000000000E+00  0.000000000E+00 -1.219748753E+03  1.219748753E+03  0.000000000E+00  0.00000E+00  9.000E+00
      25     1     1     2     0     0 -7.229587093E+01 -2.649052694E+02 -1.159245474E+03  1.197863333E+03  1.250000000E+02  0.00000E+00  9.000E+00
      25     1     1     2     0     0  5.764296370E+01  2.485280212E+02  5.096332737E+02  5.834723320E+02  1.250000000E+02  0.00000E+00  9.000E+00
      21     1     1     2   512   502  1.465290724E+01  1.637724812E+01  2.396741629E+01  3.251705691E+01  0.000000000E+00  0.00000E+00  9.000E+00
#rwgt            1           1   3.0461286426235596E-002           8      226233           0
</event>
<event>
      5   9999  3.19816E-02  8.90170E+01 -1.00000E+00  1.26144E-01
      21    -1     0     0   502   511  0.000000000E+00  0.000000000E+00  1.861068403E+02  1.861068403E+02  0.000000000E+00  0.00000E+00  9.000E+00
      21    -1     0     0   501   502  0.000000000E+00  0.000000000E+00 -6.407278535E+02  6.407278535E+02  0.000000000E+00  0.00000E+00  9.000E+00
      25     1     1     2     0     0 -9.349024582E+01 -1.481085028E+02 -3.828644174E+02  4.391887029E+02  1.250000000E+02  0.00000E+00  9.000E+00
      25     1     1     2     0     0  1.266736657E+02  2.307092503E+02 -4.603024610E+01  2.949860324E+02  1.250000000E+02  0.00000E+00  9.000E+00
      21     1     1     2   501   511 -3.318341989E+01 -8.260074752E+01 -2.572634964E+01  9.265995852E+01  1.348699152E-06  0.00000E+00  9.000E+00
#rwgt            1           1   3.2359509808026848E-002           8      226484           0
</event>
<event>
      5   9999  3.19816E-02  6.69248E+01 -1.00000E+00  1.32217E-01
      21    -1     0     0   502   501  0.000000000E+00  0.000000000E+00  2.628455707E+03  2.628455707E+03  0.000000000E+00  0.00000E+00  9.000E+00
      21    -1     0     0   501   512  0.000000000E+00  0.000000000E+00 -8.492996243E+01  8.492996243E+01  0.000000000E+00  0.00000E+00  9.000E+00
      25     1     1     2     0     0 -1.613638749E+02 -6.871414995E+01  1.222224464E+03  1.241055025E+03  1.250000000E+02  0.00000E+00  9.000E+00
      25     1     1     2     0     0  2.212500401E+02  3.883824787E+01  1.367213403E+03  1.391171262E+03  1.250000000E+02  0.00000E+00  9.000E+00
      21     1     1     2   502   512 -5.988616525E+01  2.987590209E+01 -4.591212295E+01  8.115938237E+01  2.132480600E-06  0.00000E+00  9.000E+00
#rwgt            1           1   4.4102478071662482E-002           8      226573           0
</event>
<event>
      5   9999  3.19816E-02  6.49348E+02 -1.00000E+00  9.57309E-02
       2    -1     0     0   502     0  0.000000000E+00  0.000000000E+00  2.029493444E+03  2.029493444E+03  0.000000000E+00  0.00000E+00  9.000E+00
      21    -1     0     0   501   502  0.000000000E+00  0.000000000E+00 -4.607632167E+02  4.607632167E+02  0.000000000E+00  0.00000E+00  9.000E+00
      25     1     1     2     0     0  1.593046132E+02  5.974811220E+01 -5.253089866E+01  2.175598585E+02  1.250000000E+02  0.00000E+00  9.000E+00
      25     1     1     2     0     0  4.867918138E+02  5.153642882E+00 -2.476229366E+01  5.032206287E+02  1.250000000E+02  0.00000E+00  9.000E+00
       2     1     1     2   501     0 -6.460964270E+02 -6.490175508E+01  1.646023420E+03  1.769476174E+03  2.157918644E-05  0.00000E+00  9.000E+00
#rwgt            1           1   4.8478444080457907E-002           8      226663           0
</event>
<event>
      5   9999  3.19816E-02  9.50219E+00 -1.00000E+00  1.98356E-01
      21    -1     0     0   502   511  0.000000000E+00  0.000000000E+00  1.344372782E+03  1.344372782E+03  0.000000000E+00  0.00000E+00  9.000E+00
      21    -1     0     0   501   502  0.000000000E+00  0.000000000E+00 -2.647157829E+02  2.647157829E+02  0.000000000E+00  0.00000E+00  9.000E+00
      25     1     1     2     0     0 -3.385427497E+01  2.551926386E+02 -5.310437798E+01  2.910575024E+02  1.250000000E+02  0.00000E+00  9.000E+00
      25     1     1     2     0     0  3.884830289E+01 -2.632766579E+02  1.407505064E+02  3.259746835E+02  1.250000000E+02  0.00000E+00  9.000E+00
      21     1     1     2   501   511 -4.994027924E+00  8.084019260E+00  9.920108710E+02  9.920563793E+02  1.525878906E-05  0.00000E+00  9.000E+00
#rwgt            1           1   2.4919488457790597E-002           8      226705           0
</event>
<event>
      5   9999  3.19816E-02  9.23015E+01 -1.00000E+00  1.25413E-01
      21    -1     0     0   502   501  0.000000000E+00  0.000000000E+00  1.435985243E+02  1.435985243E+02  0.000000000E+00  0.00000E+00  9.000E+00
      21    -1     0     0   501   512  0.000000000E+00  0.000000000E+00 -3.300116798E+03  3.300116798E+03  0.000000000E+00  0.00000E+00  9.000E+00
      25     1     1     2     0     0 -3.443950056E+02  8.528690132E+01 -1.905176739E+02  4.216678308E+02  1.250000000E+02  0.00000E+00  9.000E+00
      25     1     1     2     0     0  4.185658069E+02 -1.402256575E+02 -2.736307911E+03  2.774502938E+03  1.250000000E+02  0.00000E+00  9.000E+00
      21     1     1     2   502   512 -7.417080129E+01  5.493875616E+01 -2.296926887E+02  2.475445535E+02  3.814697266E-06  0.00000E+00  9.000E+00
#rwgt            1           1   6.1358418668935905E-002           8      226939           0
</event>
<event>
      5   9999  3.19816E-02  1.61742E+01 -1.00000E+00  1.74355E-01
      21    -1     0     0   502   501  0.000000000E+00  0.000000000E+00  1.136961773E+03  1.136961773E+03  0.000000000E+00  0.00000E+00  9.000E+00
      21    -1     0     0   511   502  0.000000000E+00  0.000000000E+00 -3.845434082E+01  3.845434082E+01  0.000000000E+00  0.00000E+00  9.000E+00
      25     1     1     2     0     0 -1.391673514E+01  1.348383990E+02  4.112333913E+02  4.506805648E+02  1.250000000E+02  0.00000E+00  9.000E+00
      25     1     1     2     0     0  1.711809193E+01 -1.506925847E+02  6.783827829E+02  7.062786167E+02  1.250000000E+02  0.00000E+00  9.000E+00
      21     1     1     2   511   501 -3.201356787E+00  1.585418576E+01  8.891258300E+00  1.845693272E+01  4.460403188E-07  0.00000E+00  9.000E+00
#rwgt            1           1   4.0543457970513092E-002           8      227034           0
</event>
<event>
      5   9999  3.19816E-02  3.72451E+01 -1.00000E+00  1.46789E-01
      21    -1     0     0   502   501  0.000000000E+00  0.000000000E+00  3.015354507E+02  3.015354507E+02  0.000000000E+00  0.00000E+00  9.000E+00
       2    -1     0     0   501     0  0.000000000E+00  0.000000000E+00 -1.962896289E+03  1.962896289E+03  0.000000000E+00  0.00000E+00  9.000E+00
      25     1     1     2     0     0 -9.989510084E+01 -1.069616881E+02 -2.821648373E+02  3.415579443E+02  1.250000000E+02  0.00000E+00  9.000E+00
      25     1     1     2     0     0  6.432065002E+01  9.593196380E+01  2.449663622E+02  2.982844386E+02  1.250000000E+02  0.00000E+00  9.000E+00
       2     1     1     2   502     0  3.557445081E+01  1.102972430E+01 -1.624162363E+03  1.624589356E+03  0.000000000E+00  0.00000E+00  9.000E+00
#rwgt            1           1   2.4029825433771159E-002           8      227177           0
</event>
<event>
      5   9999  3.19816E-02  5.75671E+02 -1.00000E+00  9.71438E-02
      21    -1     0     0   502   501  0.000000000E+00  0.000000000E+00  3.392629586E+02  3.392629586E+02  0.000000000E+00  0.00000E+00  9.000E+00
       1    -1     0     0   501     0  0.000000000E+00  0.000000000E+00 -3.117564785E+03  3.117564785E+03  0.000000000E+00  0.00000E+00  9.000E+00
      25     1     1     2     0     0  6.322735459E+02 -2.446583896E+02 -1.862557589E+02  7.141034744E+02  1.250000000E+02  0.00000E+00  9.000E+00
      25     1     1     2     0     0 -5.824352707E+01  2.880895094E+02 -8.501391257E+02  9.081571488E+02  1.250000000E+02  0.00000E+00  9.000E+00
       1     1     1     2   502     0 -5.740300189E+02 -4.343111973E+01 -1.741906942E+03  1.834567120E+03  2.157918644E-05  0.00000E+00  9.000E+00
#rwgt            2          12   3.6577643120802816E-004           8      227335           0
</event>
<event>
      5   9999  3.19816E-02  3.13183E+01 -1.00000E+00  1.51754E-01
      21    -1     0     0   511   501  0.000000000E+00  0.000000000E+00  1.515076181E+02  1.515076181E+02  0.000000000E+00  0.00000E+00  9.000E+00
      21    -1     0     0   501   502  0.000000000E+00  0.000000000E+00 -1.371464382E+03  1.371464382E+03  0.000000000E+00  0.00000E+00  9.000E+00
      25     1     1     2     0     0 -1.182498092E+02  3.491210342E+02 -3.569829106E+02  5.281385352E+02  1.250000000E+02  0.00000E+00  9.000E+00
      25     1     1     2     0     0  9.238815730E+01 -3.314571939E+02 -8.842051185E+02  9.569969355E+02  1.250000000E+02  0.00000E+00  9.000E+00
      21     1     1     2   511   502  2.586165186E+01 -1.766384025E+01  2.123126566E+01  3.783652905E+01  6.743495762E-07  0.00000E+00  9.000E+00
#rwgt            1           1   2.7065171496792877E-002           8      227369           0
</event>
<event>
      5   9999  3.19816E-02  1.97570E+02 -1.00000E+00  1.11842E-01
      21    -1     0     0   502   501  0.000000000E+00  0.000000000E+00  4.315783358E+02  4.315783358E+02  0.000000000E+00  0.00000E+00  9.000E+00
      21    -1     0     0   501   512  0.000000000E+00  0.000000000E+00 -1.656514680E+03  1.656514680E+03  0.000000000E+00  0.00000E+00  9.000E+00
      25     1     1     2     0     0 -1.039778393E+02 -2.712534070E+02  2.386543470E+02  3.961952791E+02  1.250000000E+02  0.00000E+00  9.000E+00
      25     1     1     2     0     0  2.094133957E+02  1.041692175E+02 -5.668663485E+01  2.711891788E+02  1.250000000E+02  0.00000E+00  9.000E+00
      21     1     1     2   502   512 -1.054355564E+02  1.670841895E+02 -1.406904056E+03  1.420708558E+03  1.525878906E-05  0.00000E+00  9.000E+00
#rwgt            1           1   2.4826554089996056E-002           8      227520           0
</event>
<event>
      5   9999  3.19816E-02  2.40298E+01 -1.00000E+00  1.60049E-01
      21    -1     0     0   511   501  0.000000000E+00  0.000000000E+00  2.372368829E+02  2.372368829E+02  0.000000000E+00  0.00000E+00  9.000E+00
      21    -1     0     0   501   502  0.000000000E+00  0.000000000E+00 -1.534632503E+03  1.534632503E+03  0.000000000E+00  0.00000E+00  9.000E+00
      25     1     1     2     0     0 -2.301126563E+01 -8.306071433E+01  1.836236133E+02  2.382671441E+02  1.250000000E+02  0.00000E+00  9.000E+00
      25     1     1     2     0     0  4.688360670E+01  8.031442011E+01 -1.496778845E+03  1.504865572E+03  1.250000000E+02  0.00000E+00  9.000E+00
      21     1     1     2   511   502 -2.387234108E+01  2.746294218E+00  1.575961197E+01  2.873666943E+01  5.591411304E-07  0.00000E+00  9.000E+00
#rwgt            1           1   2.8408234034414739E-002           8      227579           0
</event>
<event>
      5   9999  3.19816E-02  4.35221E+01 -1.00000E+00  1.42603E-01
      21    -1     0     0   512   501  0.000000000E+00  0.000000000E+00  1.109837846E+03  1.109837846E+03  0.000000000E+00  0.00000E+00  9.000E+00
      21    -1     0     0   501   502  0.000000000E+00  0.000000000E+00 -9.523717210E+01  9.523717210E+01  0.000000000E+00  0.00000E+00  9.000E+00
      25     1     1     2     0     0  3.203149030E+01  7.465700367E+01  8.775484576E+02  8.901213288E+02  1.250000000E+02  0.00000E+00  9.000E+00
      25     1     1     2     0     0  1.132285064E+01 -7.847406846E+01 -2.236260949E+01  1.497046181E+02  1.250000000E+02  0.00000E+00  9.000E+00
      21     1     1     2   512   502 -4.335434094E+01  3.817064792E+00  1.594148261E+02  1.652490715E+02  2.697398305E-06  0.00000E+00  9.000E+00
#rwgt            1           1   2.7972909285837639E-002           8      227798           0
</event>
<event>
      5   9999  3.19816E-02  3.23158E+01 -1.00000E+00  1.50830E-01
      21    -1     0     0   511   501  0.000000000E+00  0.000000000E+00  8.925710379E+02  8.925710379E+02  0.000000000E+00  0.00000E+00  9.000E+00
      21    -1     0     0   501   502  0.000000000E+00  0.000000000E+00 -1.324985513E+02  1.324985513E+02  0.000000000E+00  0.00000E+00  9.000E+00
      25     1     1     2     0     0 -1.308140634E+02  2.413591931E+01  7.648336488E+02  7.863144232E+02  1.250000000E+02  0.00000E+00  9.000E+00
      25     1     1     2     0     0  1.299383215E+02  8.168011021E+00 -4.610228326E+01  1.862823243E+02  1.250000000E+02  0.00000E+00  9.000E+00
      21     1     1     2   511   502  8.757418545E-01 -3.230393033E+01  4.134112109E+01  5.247284185E+01  0.000000000E+00  0.00000E+00  9.000E+00
#rwgt            1           1   2.7641010573070064E-002           8      227873           0
</event>
<event>
      5   9999  3.19816E-02  9.49459E+00 -1.00000E+00  1.98397E-01
      21    -1     0     0   502   501  0.000000000E+00  0.000000000E+00  2.406262394E+03  2.406262394E+03  0.000000000E+00  0.00000E+00  9.000E+00
      21    -1     0     0   512   502  0.000000000E+00  0.000000000E+00 -1.819512765E+02  1.819512765E+02  0.000000000E+00  0.00000E+00  9.000E+00
      25     1     1     2     0     0  5.889988278E+01 -3.745471453E+02  1.190798394E+03  1.255938126E+03  1.250000000E+02  0.00000E+00  9.000E+00
      25     1     1     2     0     0 -6.781990964E+01  3.777998968E+02  1.148251960E+03  1.217144143E+03  1.250000000E+02  0.00000E+00  9.000E+00
      21     1     1     2   512   501  8.920026857E+00 -3.252751477E+00 -1.147392364E+02  1.151314016E+02  6.180515955E-06  0.00000E+00  9.000E+00
#rwgt            1           1   8.4067382911047386E-002           8      228048           0
</event>
<event>
      5   9999  3.19816E-02  1.38842E+02 -1.00000E+00  1.17740E-01
      21    -1     0     0   502   501  0.000000000E+00  0.000000000E+00  2.892260853E+03  2.892260853E+03  0.000000000E+00  0.00000E+00  9.000E+00
      21    -1     0     0   511   502  0.000000000E+00  0.000000000E+00 -1.352794671E+03  1.352794671E+03  0.000000000E+00  0.00000E+00  9.000E+00
      25     1     1     2     0     0 -1.753959469E+02 -1.818372412E+03  8.915091002E+02  2.036579349E+03  1.250000000E+02  0.00000E+00  9.000E+00
      25     1     1     2     0     0  3.127864888E+02  1.838394256E+03  7.721265505E+02  2.022209988E+03  1.250000000E+02  0.00000E+00  9.000E+00
      21     1     1     2   511   501 -1.373905419E+02 -2.002184314E+01 -1.241694686E+02  1.862661862E+02  3.015782986E-06  0.00000E+00  9.000E+00
#rwgt            1           1   1.5285073900154699E-002           8      228275           0
</event>
<event>
      5   9999  3.19816E-02  1.13006E+02 -1.00000E+00  1.21486E-01
      21    -1     0     0   502   512  0.000000000E+00  0.000000000E+00  3.555344163E+02  3.555344163E+02  0.000000000E+00  0.00000E+00  9.000E+00
      21    -1     0     0   501   502  0.000000000E+00  0.000000000E+00 -3.472374344E+02  3.472374344E+02  0.000000000E+00  0.00000E+00  9.000E+00
      25     1     1     2     0     0  1.854813669E+02  2.860518256E+00  1.950359790E+02  2.967752570E+02  1.250000000E+02  0.00000E+00  9.000E+00
      25     1     1     2     0     0 -7.712712731E+01 -3.494797291E+01 -2.380469125E+02  2.818887850E+02  1.250000000E+02  0.00000E+00  9.000E+00
      21     1     1     2   501   512 -1.083542396E+02  3.208745465E+01  5.130791537E+01  1.241078087E+02  1.651812370E-06  0.00000E+00  9.000E+00
#rwgt            1           1   2.6283740561205898E-002           8      228388           0
</event>
<event>
      5   9999  3.19816E-02  9.55454E+01 -1.00000E+00  1.24725E-01
      21    -1     0     0   502   501  0.000000000E+00  0.000000000E+00  3.308547104E+02  3.308547104E+02  0.000000000E+00  0.00000E+00  9.000E+00
      21    -1     0     0   501   511  0.000000000E+00  0.000000000E+00 -3.260328460E+03  3.260328460E+03  0.000000000E+00  0.00000E+00  9.000E+00
      25     1     1     2     0     0  1.692604250E+02 -2.691261412E+02  4.555066329E+01  3.446416026E+02  1.250000000E+02  0.00000E+00  9.000E+00
      25     1     1     2     0     0 -9.986078347E+01  2.034555946E+02  1.093128588E+01  2.590576153E+02  1.250000000E+02  0.00000E+00  9.000E+00
      21     1     1     2   502   511 -6.939964153E+01  6.567054661E+01 -2.985955698E+03  2.987483952E+03  4.315837288E-05  0.00000E+00  9.000E+00
#rwgt            1           1   2.6050571607614068E-002           8      228438           0
</event>
<event>
      5   9999  3.19816E-02  3.28878E+01 -1.00000E+00  1.50318E-01
      21    -1     0     0   502   501  0.000000000E+00  0.000000000E+00  4.025917344E+02  4.025917344E+02  0.000000000E+00  0.00000E+00  9.000E+00
      21    -1     0     0   501   512  0.000000000E+00  0.000000000E+00 -3.097285162E+02  3.097285162E+02  0.000000000E+00  0.00000E+00  9.000E+00
      25     1     1     2     0     0  3.224007440E+01 -2.740107587E+02  1.339462159E+02  3.311916470E+02  1.250000000E+02  0.00000E+00  9.000E+00
      25     1     1     2     0     0 -6.512784877E+01  2.740112874E+02  2.310817931E+01  3.090029292E+02  1.250000000E+02  0.00000E+00  9.000E+00
      21     1     1     2   502   512  3.288777437E+01 -5.286667162E-04 -6.419117706E+01  7.212567445E+01  9.536743164E-07  0.00000E+00  9.000E+00
#rwgt            1           1   2.7409056457610149E-002           8      228513           0
</event>
<event>
      5   9999  3.19816E-02  1.16582E+03 -1.00000E+00  8.94198E-02
      21    -1     0     0   502   501  0.000000000E+00  0.000000000E+00  1.436723629E+03  1.436723629E+03  0.000000000E+00  0.00000E+00  9.000E+00
       1    -1     0     0   501     0  0.000000000E+00  0.000000000E+00 -1.914925450E+03  1.914925450E+03  0.000000000E+00  0.00000E+00  9.000E+00
      25     1     1     2     0     0  3.202014663E+02  7.067144951E+02 -6.355422249E+02  1.010699400E+03  1.250000000E+02  0.00000E+00  9.000E+00
      25     1     1     2     0     0 -6.836794519E+02  4.009901053E+02  6.908816366E+02  1.058845170E+03  1.250000000E+02  0.00000E+00  9.000E+00
       1     1     1     2   502     0  3.634779856E+02 -1.107704600E+03 -5.335412326E+02  1.282104510E+03  3.145679951E-05  0.00000E+00  9.000E+00
#rwgt            2          12   1.9682569992257368E-004           8      228703           0
</event>
<event>
      5   9999  3.19816E-02  1.80925E+02 -1.00000E+00  1.13256E-01
      21    -1     0     0   502   501  0.000000000E+00  0.000000000E+00  3.759147794E+02  3.759147794E+02  0.000000000E+00  0.00000E+00  9.000E+00
      21    -1     0     0   501   511  0.000000000E+00  0.000000000E+00 -5.636294920E+02  5.636294920E+02  0.000000000E+00  0.00000E+00  9.000E+00
      25     1     1     2     0     0  2.510077645E+02  1.427026769E+02  1.362304754E+01  3.149278318E+02  1.250000000E+02  0.00000E+00  9.000E+00
      25     1     1     2     0     0 -1.235930653E+02 -2.711526810E+02  3.714024986E+01  3.252743771E+02  1.250000000E+02  0.00000E+00  9.000E+00
      21     1     1     2   502   511 -1.274146992E+02  1.284500042E+02 -2.384780100E+02  2.993420626E+02  2.697398305E-06  0.00000E+00  9.000E+00
#rwgt            1           1   3.1330344935365559E-002           8      228752           0
</event>
<event>
      5   9999  3.19816E-02  4.86105E+01 -1.00000E+00  1.39778E-01
      21    -1     0     0   512   501  0.000000000E+00  0.000000000E+00  1.892365739E+02  1.892365739E+02  0.000000000E+00  0.00000E+00  9.000E+00
      21    -1     0     0   501   502  0.000000000E+00  0.000000000E+00 -6.283064291E+02  6.283064291E+02  0.000000000E+00  0.00000E+00  9.000E+00
      25     1     1     2     0     0 -7.054432874E+01 -1.235221276E+02 -5.179271280E+02  5.514596343E+02  1.250000000E+02  0.00000E+00  9.000E+00
      25     1     1     2     0     0  1.179203151E+02  1.126366563E+02  6.585574472E+01  2.157642143E+02  1.250000000E+02  0.00000E+00  9.000E+00
      21     1     1     2   512   502 -4.737598637E+01  1.088547129E+01  1.300152807E+01  5.031915442E+01  5.840038640E-07  0.00000E+00  9.000E+00
#rwgt            1           1   2.9404239225531564E-002           8      228908           0
</event>
<event>
      5   9999  3.19816E-02  5.34623E+01 -1.00000E+00  1.37437E-01
      21    -1     0     0   502   511  0.000000000E+00  0.000000000E+00  2.074065873E+02  2.074065873E+02  0.000000000E+00  0.00000E+00  9.000E+00
      21    -1     0     0   501   502  0.000000000E+00  0.000000000E+00 -1.024984582E+03  1.024984582E+03  0.000000000E+00  0.00000E+00  9.000E+00
      25     1     1     2     0     0 -2.459724386E+02 -1.173142379E+02 -7.779718429E+02  8.337447208E+02  1.250000000E+02  0.00000E+00  9.000E+00
      25     1     1     2     0     0  2.981413929E+02  1.056258905E+02 -5.121681989E+01  3.439379036E+02  1.250000000E+02  0.00000E+00  9.000E+00
      21     1     1     2   501   511 -5.216895429E+01  1.168834744E+01  1.161066818E+01  5.470854479E+01  1.092571186E-06  0.00000E+00  9.000E+00
#rwgt            1           1   2.9089838228109760E-002           8      228988           0
</event>
<event>
      5   9999  3.19816E-02  3.07291E+02 -1.00000E+00  1.05254E-01
       2    -1     0     0   502     0  0.000000000E+00  0.000000000E+00  2.945407496E+03  2.945407496E+03  0.000000000E+00  0.00000E+00  9.000E+00
      21    -1     0     0   501   502  0.000000000E+00  0.000000000E+00 -2.133533253E+02  2.133533253E+02  0.000000000E+00  0.00000E+00  9.000E+00
      25     1     1     2     0     0  6.402239096E+01  4.095019381E+02  5.139541777E+01  4.359554941E+02  1.250000000E+02  0.00000E+00  9.000E+00
      25     1     1     2     0     0 -2.461425289E+01 -1.047488002E+02  1.132184167E+03  1.144134677E+03  1.250000000E+02  0.00000E+00  9.000E+00
       2     1     1     2   501     0 -3.940813807E+01 -3.047531379E+02  1.548474586E+03  1.578670649E+03  0.000000000E+00  0.00000E+00  9.000E+00
#rwgt            1           1   2.0349648116988306E-002           8      229093           0
</event>
<event>
      5   9999  3.19816E-02  4.02099E+01 -1.00000E+00  1.44699E-01
      21    -1     0     0   502   501  0.000000000E+00  0.000000000E+00  1.039371310E+03  1.039371310E+03  0.000000000E+00  0.00000E+00  9.000E+00
      21    -1     0     0   501   511  0.000000000E+00  0.000000000E+00 -1.943063637E+02  1.943063637E+02  0.000000000E+00  0.00000E+00  9.000E+00
      25     1     1     2     0     0 -3.718101776E+02 -6.645598400E+01  2.353202657E+02  4.622335269E+02  1.250000000E+02  0.00000E+00  9.000E+00
      25     1     1     2     0     0  3.956596580E+02  3.408254434E+01  5.996107676E+02  7.299768883E+02  1.250000000E+02  0.00000E+00  9.000E+00
      21     1     1     2   502   511 -2.384948046E+01  3.237343966E+01  1.013391267E+01  4.146725816E+01  3.576278687E-07  0.00000E+00  9.000E+00
#rwgt            1           1   2.8453897790770032E-002           8      229128           0
</event>
<event>
      5   9999  3.19816E-02  3.63602E+01 -1.00000E+00  1.47458E-01
      21    -1     0     0   502   512  0.000000000E+00  0.000000000E+00  7.245812940E+02  7.245812940E+02  0.000000000E+00  0.00000E+00  9.000E+00
      21    -1     0     0   501   502  0.000000000E+00  0.000000000E+00 -7.579580646E+02  7.579580646E+02  0.000000000E+00  0.00000E+00  9.000E+00
      25     1     1     2     0     0 -3.774559166E+02 -5.435836345E+02  5.639313752E+01  6.758411963E+02  1.250000000E+02  0.00000E+00  9.000E+00
      25     1     1     2     0     0  3.481411176E+02  5.650941828E+02 -1.887308881E+02  7.012688652E+02  1.250000000E+02  0.00000E+00  9.000E+00
      21     1     1     2   501   512  2.931479902E+01 -2.151054833E+01  9.896097994E+01  1.054292971E+02  1.348699152E-06  0.00000E+00  9.000E+00
#rwgt            1           1   3.1371575167748120E-002           8      229208           0
</event>
<event>
      5   9999  3.19816E-02  3.83772E+01 -1.00000E+00  1.45965E-01
      21    -1     0     0   511   501  0.000000000E+00  0.000000000E+00  3.728142142E+02  3.728142142E+02  0.000000000E+00  0.00000E+00  9.000E+00
      21    -1     0     0   501   502  0.000000000E+00  0.000000000E+00 -4.628638881E+02  4.628638881E+02  0.000000000E+00  0.00000E+00  9.000E+00
      25     1     1     2     0     0  1.439091828E+01  1.081860175E+02  3.093078004E+02  3.510094419E+02  1.250000000E+02  0.00000E+00  9.000E+00
      25     1     1     2     0     0 -4.891013497E+01 -1.249559805E+02 -4.062068087E+02  4.456850567E+02  1.250000000E+02  0.00000E+00  9.000E+00
      21     1     1     2   511   502  3.451921669E+01  1.676996297E+01  6.849334418E+00  3.898360375E+01  4.616955931E-07  0.00000E+00  9.000E+00
#rwgt            1           1   2.7553989326656775E-002           8      229410           0
</event>
<event>
      5   9999  3.19816E-02  1.30479E+02 -1.00000E+00  1.18845E-01
      21    -1     0     0   502   501  0.000000000E+00  0.000000000E+00  2.453777051E+02  2.453777051E+02  0.000000000E+00  0.00000E+00  9.000E+00
      21    -1     0     0   501   512  0.000000000E+00  0.000000000E+00 -1.081395864E+03  1.081395864E+03  0.000000000E+00  0.00000E+00  9.000E+00
      25     1     1     2     0     0 -2.127256447E+02  9.883010544E+01 -5.553727837E+02  6.156975869E+02  1.250000000E+02  0.00000E+00  9.000E+00
      25     1     1     2     0     0  3.308383122E+02 -1.542745450E+02  1.685833001E+01  3.862173318E+02  1.250000000E+02  0.00000E+00  9.000E+00
      21     1     1     2   502   512 -1.181126675E+02  5.544443961E+01 -2.975037051E+02  3.248586503E+02  0.000000000E+00  0.00000E+00  9.000E+00
#rwgt            2          11   2.8743365488390991E-003           8      229613           0
</event>
<event>
      5   9999  3.19816E-02  1.17903E+01 -1.00000E+00  1.87837E-01
      21    -1     0     0   511   501  0.000000000E+00  0.000000000E+00  1.130919436E+02  1.130919436E+02  0.000000000E+00  0.00000E+00  9.000E+00
      21    -1     0     0   501   502  0.000000000E+00  0.000000000E+00 -8.803191721E+02  8.803191721E+02  0.000000000E+00  0.00000E+00  9.000E+00
      25     1     1     2     0     0 -1.972529640E+02  6.511999220E+01 -5.881822626E+02  6.361860728E+02  1.250000000E+02  0.00000E+00  9.000E+00
      25     1     1     2     0     0  1.929636747E+02 -5.413757013E+01 -2.149920007E+02  3.193938268E+02  1.250000000E+02  0.00000E+00  9.000E+00
      21     1     1     2   511   502  4.289289271E+00 -1.098242207E+01  3.594703476E+01  3.783121601E+01  6.743495762E-07  0.00000E+00  9.000E+00
#rwgt            1           1   3.0732144209105992E-002           8      229648           0
</event>
<event>
      5   9999  3.19816E-02  1.05883E+02 -1.00000E+00  1.22722E-01
      21    -1     0     0   502   512  0.000000000E+00  0.000000000E+00  1.241269401E+03  1.241269401E+03  0.000000000E+00  0.00000E+00  9.000E+00
      21    -1     0     0   501   502  0.000000000E+00  0.000000000E+00 -9.084239255E+02  9.084239255E+02  0.000000000E+00  0.00000E+00  9.000E+00
      25     1     1     2     0     0 -8.544520345E+02 -8.696780386E+01 -4.191112474E+02  9.638106224E+02  1.250000000E+02  0.00000E+00  9.000E+00
      25     1     1     2     0     0  7.812427649E+02  1.634631643E+02  6.947506559E+02  1.065534578E+03  1.250000000E+02  0.00000E+00  9.000E+00
      21     1     1     2   501   512  7.320926960E+01 -7.649536044E+01  5.720606731E+01  1.203481261E+02  1.507891493E-06  0.00000E+00  9.000E+00
#rwgt            1           1   3.7925868923445467E-002           8      229802           0
</event>
<event>
      5   9999  3.19816E-02  1.15007E+01 -1.00000E+00  1.88990E-01
      21    -1     0     0   511   501  0.000000000E+00  0.000000000E+00  8.386881215E+02  8.386881215E+02  0.000000000E+00  0.00000E+00  9.000E+00
      21    -1     0     0   501   502  0.000000000E+00  0.000000000E+00 -4.828213818E+02  4.828213818E+02  0.000000000E+00  0.00000E+00  9.000E+00
      25     1     1     2     0     0  2.083822678E+02  5.720226464E+02  6.397019251E+01  6.247801718E+02  1.250000000E+02  0.00000E+00  9.000E+00
      25     1     1     2     0     0 -2.126058962E+02 -5.613256063E+02  2.658816326E+02  6.682856769E+02  1.250000000E+02  0.00000E+00  9.000E+00
      21     1     1     2   511   502  4.223628418E+00 -1.069704010E+01  2.601491460E+01  2.844365458E+01  3.371747881E-07  0.00000E+00  9.000E+00
#rwgt            1           1   3.0657872046228416E-002           8      229945           0
</event>
<event>
      5   9999  3.19816E-02  3.99137E+01 -1.00000E+00  1.44898E-01
      21    -1     0     0   512   501  0.000000000E+00  0.000000000E+00  3.928817770E+02  3.928817770E+02  0.000000000E+00  0.00000E+00  9.000E+00
      21    -1     0     0   501   502  0.000000000E+00  0.000000000E+00 -1.135471738E+03  1.135471738E+03  0.000000000E+00  0.00000E+00  9.000E+00
      25     1     1     2     0     0  1.013536910E+02 -1.573514506E+02 -2.307043563E+02  3.223066082E+02  1.250000000E+02  0.00000E+00  9.000E+00
      25     1     1     2     0     0 -1.036670338E+02  1.971980914E+02 -8.387318850E+02  8.767725566E+02  1.250000000E+02  0.00000E+00  9.000E+00
      21     1     1     2   512   502  2.313342811E+00 -3.984664082E+01  3.268462806E+02  3.292743499E+02  1.078959322E-05  0.00000E+00  9.000E+00
#rwgt            1           1   3.5040427106936854E-002           8      230233           0
</event>
<event>
      5   9999  3.19816E-02  1.02922E+02 -1.00000E+00  1.23268E-01
      21    -1     0     0   502   501  0.000000000E+00  0.000000000E+00  7.267875539E+02  7.267875539E+02  0.000000000E+00  0.00000E+00  9.000E+00
      21    -1     0     0   501   511  0.000000000E+00  0.000000000E+00 -2.332805733E+02  2.332805733E+02  0.000000000E+00  0.00000E+00  9.000E+00
      25     1     1     2     0     0  3.559783771E+01 -1.505842662E+02  6.033207341E+02  6.352666649E+02  1.250000000E+02  0.00000E+00  9.000E+00
      25     1     1     2     0     0 -7.220197022E+01  5.439161757E+01  2.386021550E+01  1.560957477E+02  1.250000000E+02  0.00000E+00  9.000E+00
      21     1     1     2   502   511  3.660413251E+01  9.619264868E+01 -1.336739690E+02  1.687057147E+02  2.697398305E-06  0.00000E+00  9.000E+00
#rwgt            1           1   2.5388343613265953E-002           8      230335           0
</event>
<event>
      5   9999  3.19816E-02  5.14482E+01 -1.00000E+00  1.38372E-01
      21    -1     0     0   502   512  0.000000000E+00  0.000000000E+00  9.191013978E+02  9.191013978E+02  0.000000000E+00  0.00000E+00  9.000E+00
      21    -1     0     0   501   502  0.000000000E+00  0.000000000E+00 -7.097031561E+02  7.097031561E+02  0.000000000E+00  0.00000E+00  9.000E+00
      25     1     1     2     0     0 -4.696353159E+02 -5.697818508E+02  2.111992848E+02  7.780994957E+02  1.250000000E+02  0.00000E+00  9.000E+00
      25     1     1     2     0     0  4.493990984E+02  6.170831376E+02 -5.650511152E+01  7.756087777E+02  1.250000000E+02  0.00000E+00  9.000E+00
      21     1     1     2   501   512  2.023621744E+01 -4.730128681E+01  5.470406843E+01  7.509628042E+01  6.743495762E-07  0.00000E+00  9.000E+00
#rwgt            1           1   2.8576305724820551E-002           8      230420           0
</event>
<event>
      5   9999  3.19816E-02  1.52520E+01 -1.00000E+00  1.76705E-01
      21    -1     0     0   502   511  0.000000000E+00  0.000000000E+00  1.896268520E+02  1.896268520E+02  0.000000000E+00  0.00000E+00  9.000E+00
      21    -1     0     0   501   502  0.000000000E+00  0.000000000E+00 -8.751952013E+02  8.751952013E+02  0.000000000E+00  0.00000E+00  9.000E+00
      25     1     1     2     0     0  1.493338840E+02 -6.646107386E+01  1.061707326E+02  2.315489316E+02  1.250000000E+02  0.00000E+00  9.000E+00
      25     1     1     2     0     0 -1.528356925E+02  5.161650405E+01 -7.921499042E+02  8.180155764E+02  1.250000000E+02  0.00000E+00  9.000E+00
      21     1     1     2   501   511  3.501808489E+00  1.484456980E+01  4.108222753E-01  1.525754536E+01  4.329678484E-07  0.00000E+00  9.000E+00
#rwgt            1           1   2.9322837569035066E-002           8      230553           0
</event>
<event>
      5   9999  3.19816E-02  4.01859E+01 -1.00000E+00  1.44715E-01
      21    -1     0     0   502   501  0.000000000E+00  0.000000000E+00  2.362735333E+02  2.362735333E+02  0.000000000E+00  0.00000E+00  9.000E+00
      21    -1     0     0   501   512  0.000000000E+00  0.000000000E+00 -7.535597182E+02  7.535597182E+02  0.000000000E+00  0.00000E+00  9.000E+00
      25     1     1     2     0     0  1.068332967E+02 -2.848626851E+02 -4.178136931E+02  5.317456016E+02  1.250000000E+02  0.00000E+00  9.000E+00
      25     1     1     2     0     0 -9.493721188E+01  3.232474497E+02 -9.409175500E+00  3.594656041E+02  1.250000000E+02  0.00000E+00  9.000E+00
      21     1     1     2   502   512 -1.189608485E+01 -3.838476460E+01 -9.006331631E+01  9.862204587E+01  0.000000000E+00  0.00000E+00  9.000E+00
#rwgt            1           1   3.0479193950517881E-002           8      230837           0
</event>
<event>
      5   9999  3.19816E-02  1.25845E+02 -1.00000E+00  1.19498E-01
      21    -1     0     0   502   501  0.000000000E+00  0.000000000E+00  3.256318777E+02  3.256318777E+02  0.000000000E+00  0.00000E+00  9.000E+00
      -1    -1     0     0     0   502  0.000000000E+00  0.000000000E+00 -3.931105633E+02  3.931105633E+02  0.000000000E+00  0.00000E+00  9.000E+00
      25     1     1     2     0     0 -2.239422671E+02 -1.907067505E+02 -1.119181766E+02  3.386294168E+02  1.250000000E+02  0.00000E+00  9.000E+00
      25     1     1     2     0     0  1.591426693E+02  8.282755000E+01 -4.812415926E+01  2.238922217E+02  1.250000000E+02  0.00000E+00  9.000E+00
      -1     1     1     2     0   501  6.479959778E+01  1.078792005E+02  9.256365034E+01  1.562208025E+02  1.907348633E-06  0.00000E+00  9.000E+00
#rwgt            1           1   2.6227523578358555E-002           8      230933           0
</event>
<event>
      5   9999  3.19816E-02  1.80427E+02 -1.00000E+00  1.13301E-01
      21    -1     0     0   511   501  0.000000000E+00  0.000000000E+00  2.939975259E+02  2.939975259E+02  0.000000000E+00  0.00000E+00  9.000E+00
      21    -1     0     0   501   502  0.000000000E+00  0.000000000E+00 -5.704346309E+02  5.704346309E+02  0.000000000E+00  0.00000E+00  9.000E+00
      25     1     1     2     0     0  8.158638314E+01 -2.459910317E+02 -4.127651469E+02  5.031580190E+02  1.250000000E+02  0.00000E+00  9.000E+00
      25     1     1     2     0     0  3.892987742E+00  8.709714671E+01  4.416708975E+01  1.586719891E+02  1.250000000E+02  0.00000E+00  9.000E+00
      21     1     1     2   511   502 -8.547937088E+01  1.588938850E+02  9.216095213E+01  2.026021487E+02  1.348699152E-06  0.00000E+00  9.000E+00
#rwgt            1           1   3.1328506960128413E-002           8      230980           0
</event>
<event>
      5   9999  3.19816E-02  4.23171E+01 -1.00000E+00  1.43340E-01
      21    -1     0     0   502   512  0.000000000E+00  0.000000000E+00  3.905859353E+02  3.905859353E+02  0.000000000E+00  0.00000E+00  9.000E+00
      21    -1     0     0   501   502  0.000000000E+00  0.000000000E+00 -1.624837657E+02  1.624837657E+02  0.000000000E+00  0.00000E+00  9.000E+00
      25     1     1     2     0     0 -9.982770881E+01  1.574221839E+02  1.566083683E+02  2.736758967E+02  1.250000000E+02  0.00000E+00  9.000E+00
      25     1     1     2     0     0  1.038572573E+02 -1.152973562E+02  3.481227338E+00  1.992910665E+02  1.250000000E+02  0.00000E+00  9.000E+00
      21     1     1     2   501   512 -4.029548493E+00 -4.212482773E+01  6.801257404E+01  8.010273778E+01  0.000000000E+00  0.00000E+00  9.000E+00
#rwgt            1           1   2.5095462834646320E-002           8      231025           0
</event>
<event>
      5   9999  3.19816E-02  7.98736E+01 -1.00000E+00  1.28383E-01
      21    -1     0     0   502   501  0.000000000E+00  0.000000000E+00  5.534438204E+02  5.534438204E+02  0.000000000E+00  0.00000E+00  9.000E+00
       3    -1     0     0   501     0  0.000000000E+00  0.000000000E+00 -1.028569546E+03  1.028569546E+03  0.000000000E+00  0.00000E+00  9.000E+00
      25     1     1     2     0     0 -2.628170304E+02 -3.235590564E+02 -4.326593409E+02  6.136630670E+02  1.250000000E+02  0.00000E+00  9.000E+00
      25     1     1     2     0     0  3.213351017E+02  3.779229143E+02  3.158614082E+02  6.012282477E+02  1.250000000E+02  0.00000E+00  9.000E+00
       3     1     1     2   502     0 -5.851807129E+01 -5.436385783E+01 -3.583277931E+02  3.671220519E+02  5.394796609E-06  0.00000E+00  9.000E+00
#rwgt            1           1   2.2839289230932685E-002           8      231105           0
</event>
<event>
      5   9999  3.19816E-02  1.28674E+02 -1.00000E+00  1.19096E-01
      21    -1     0     0   502   501  0.000000000E+00  0.000000000E+00  2.215721174E+02  2.215721174E+02  0.000000000E+00  0.00000E+00  9.000E+00
      21    -1     0     0   511   502  0.000000000E+00  0.000000000E+00 -1.166460783E+03  1.166460783E+03  0.000000000E+00  0.00000E+00  9.000E+00
      25     1     1     2     0     0  2.452393068E-01  1.812565072E+02  1.156318417E+02  2.486960079E+02  1.250000000E+02  0.00000E+00  9.000E+00
      25     1     1     2     0     0  7.699124082E+01 -7.834097239E+01 -1.640243292E+02  2.336534607E+02  1.250000000E+02  0.00000E+00  9.000E+00
      21     1     1     2   511   501 -7.723648013E+01 -1.029155348E+02 -8.964961783E+02  9.056834319E+02  1.078959322E-05  0.00000E+00  9.000E+00
#rwgt            2          11   2.5718291363955909E-003           8      231211           0
</event>
<event>
      5   9999  3.19816E-02  4.82886E+01 -1.00000E+00  1.39944E-01
      21    -1     0     0   502   512  0.000000000E+00  0.000000000E+00  4.378197238E+02  4.378197238E+02  0.000000000E+00  0.00000E+00  9.000E+00
      21    -1     0     0   501   502  0.000000000E+00  0.000000000E+00 -4.528369070E+02  4.528369070E+02  0.000000000E+00  0.00000E+00  9.000E+00
      25     1     1     2     0     0 -8.859269742E+01 -3.311851253E+02 -2.549967393E+02  4.451747862E+02  1.250000000E+02  0.00000E+00  9.000E+00
      25     1     1     2     0     0  9.105921269E+01  2.829595303E+02  2.302320573E+02  3.962192274E+02  1.250000000E+02  0.00000E+00  9.000E+00
      21     1     1     2   501   512 -2.466515265E+00  4.822559502E+01  9.747498835E+00  4.926261713E+01  1.221531721E-06  0.00000E+00  9.000E+00
#rwgt            1           1   2.8109669959134814E-002           8      231231           0
</event>
<event>
      5   9999  3.19816E-02  1.33578E+03 -1.00000E+00  8.80713E-02
       2    -1     0     0   502     0  0.000000000E+00  0.000000000E+00  4.045400263E+03  4.045400263E+03  0.000000000E+00  0.00000E+00  9.000E+00
      21    -1     0     0   501   502  0.000000000E+00  0.000000000E+00 -9.370835126E+02  9.370835126E+02  0.000000000E+00  0.00000E+00  9.000E+00
      25     1     1     2     0     0  8.829283309E+02 -9.589794810E+02  1.267146861E+03  1.822221240E+03  1.250000000E+02  0.00000E+00  9.000E+00
      25     1     1     2     0     0 -6.769805760E+01 -9.918465661E+01 -4.643957151E+02  4.956904309E+02  1.250000000E+02  0.00000E+00  9.000E+00
       2     1     1     2   501     0 -8.152302733E+02  1.058164138E+03  2.305565605E+03  2.664572104E+03  3.051757812E-05  0.00000E+00  9.000E+00
#rwgt            2          18   3.6359796254500210E-004           8      231348           0
</event>
<event>
      5   9999  3.19816E-02  4.11615E+01 -1.00000E+00  1.44073E-01
      21    -1     0     0   502   501  0.000000000E+00  0.000000000E+00  6.623692148E+02  6.623692148E+02  0.000000000E+00  0.00000E+00  9.000E+00
      21    -1     0     0   501   511  0.000000000E+00  0.000000000E+00 -1.967754540E+02  1.967754540E+02  0.000000000E+00  0.00000E+00  9.000E+00
      25     1     1     2     0     0 -1.564483194E+02 -1.099405811E+01  5.498285765E+02  5.852635385E+02  1.250000000E+02  0.00000E+00  9.000E+00
      25     1     1     2     0     0  1.775350588E+02 -2.435586280E+01 -7.926052924E+01  2.324201726E+02  1.250000000E+02  0.00000E+00  9.000E+00
      21     1     1     2   502   511 -2.108673938E+01  3.534992091E+01 -4.974286513E+00  4.146095769E+01  2.064765462E-07  0.00000E+00  9.000E+00
#rwgt            1           1   2.5465885286693881E-002           8      231382           0
</event>
<event>
      5   9999  3.19816E-02  3.97711E+01 -1.00000E+00  1.44995E-01
      21    -1     0     0   502   501  0.000000000E+00  0.000000000E+00  8.168748273E+02  8.168748273E+02  0.000000000E+00  0.00000E+00  9.000E+00
      21    -1     0     0   501   512  0.000000000E+00  0.000000000E+00 -7.536394730E+02  7.536394730E+02  0.000000000E+00  0.00000E+00  9.000E+00
      25     1     1     2     0     0 -5.667352231E+02  2.536132184E+02  2.240775866E+02  6.718215853E+02  1.250000000E+02  0.00000E+00  9.000E+00
      25     1     1     2     0     0  5.286858433E+02 -2.420380611E+02  1.269724386E+02  6.081431938E+02  1.250000000E+02  0.00000E+00  9.000E+00
      21     1     1     2   502   512  3.804937974E+01 -1.157515730E+01 -2.878146708E+02  2.905495212E+02  6.607249480E-06  0.00000E+00  9.000E+00
#rwgt            1           1   2.4718776507421669E-002           8      231554           0
</event>
<event>
      5   9999  3.19816E-02  4.72320E+01 -1.00000E+00  1.40502E-01
      21    -1     0     0   502   501  0.000000000E+00  0.000000000E+00  8.969924814E+01  8.969924814E+01  0.000000000E+00  0.00000E+00  9.000E+00
      21    -1     0     0   501   511  0.000000000E+00  0.000000000E+00 -5.116377468E+02  5.116377468E+02  0.000000000E+00  0.00000E+00  9.000E+00
      25     1     1     2     0     0  6.950264668E+01 -4.299838969E+01 -2.343034136E+01  1.511736098E+02  1.250000000E+02  0.00000E+00  9.000E+00
      25     1     1     2     0     0 -5.399112536E+01  8.761061768E+01 -3.171240346E+02  3.560664478E+02  1.250000000E+02  0.00000E+00  9.000E+00
      21     1     1     2   502   511 -1.551152132E+01 -4.461222799E+01 -8.138412272E+01  9.409693731E+01  1.651812370E-06  0.00000E+00  9.000E+00
#rwgt            1           1   3.2168124822379469E-002           8      231770           0
</event>
<event>
      5   9999  3.19816E-02  6.19796E+01 -1.00000E+00  1.33954E-01
      21    -1     0     0   502   501  0.000000000E+00  0.000000000E+00  6.503420227E+01  6.503420227E+01  0.000000000E+00  0.00000E+00  9.000E+00
      21    -1     0     0   512   502  0.000000000E+00  0.000000000E+00 -2.042931090E+03  2.042931090E+03  0.000000000E+00  0.00000E+00  9.000E+00
      25     1     1     2     0     0  2.177746298E+02  1.604439506E+02 -4.614744143E+02  5.493192930E+02  1.250000000E+02  0.00000E+00  9.000E+00
      25     1     1     2     0     0 -1.644631072E+02 -1.920564797E+02 -1.016915687E+03  1.055308637E+03  1.250000000E+02  0.00000E+00  9.000E+00
      21     1     1     2   512   501 -5.331152260E+01  3.161252918E+01 -4.995067862E+02  5.033373619E+02  5.394796609E-06  0.00000E+00  9.000E+00
#rwgt            1           1   2.6162134518808968E-002           8      231840           0
</event>
<event>
      5   9999  3.19816E-02  2.62233E+02 -1.00000E+00  1.07526E-01
       3    -1     0     0   502     0  0.000000000E+00  0.000000000E+00  3.507974004E+02  3.507974004E+02  0.000000000E+00  0.00000E+00  9.000E+00
      21    -1     0     0   501   502  0.000000000E+00  0.000000000E+00 -1.080026937E+03  1.080026937E+03  0.000000000E+00  0.00000E+00  9.000E+00
      25     1     1     2     0     0  3.242812316E+02  1.251402198E+01 -6.763006023E+02  7.604751295E+02  1.250000000E+02  0.00000E+00  9.000E+00
      25     1     1     2     0     0 -1.503900611E+02 -2.087997371E+02 -2.187151505E+02  3.601052870E+02  1.250000000E+02  0.00000E+00  9.000E+00
       3     1     1     2   501     0 -1.738911704E+02  1.962857151E+02  1.657862160E+02  3.102439210E+02  3.303624740E-06  0.00000E+00  9.000E+00
#rwgt            1           1   2.8415516179877608E-002           8      231980           0
</event>
<event>
      5   9999  3.19816E-02  1.08089E+02 -1.00000E+00  1.22327E-01
       2    -1     0     0   502     0  0.000000000E+00  0.000000000E+00  1.905571160E+03  1.905571160E+03  0.000000000E+00  0.00000E+00  9.000E+00
      21    -1     0     0   501   502  0.000000000E+00  0.000000000E+00 -2.212266627E+02  2.212266627E+02  0.000000000E+00  0.00000E+00  9.000E+00
      25     1     1     2     0     0 -3.308197862E+02 -4.683707442E+02  4.561095385E+02  7.432858105E+02  1.250000000E+02  0.00000E+00  9.000E+00
      25     1     1     2     0     0  2.859682036E+02  3.700262206E+02  7.458471457E+02  8.891626298E+02  1.250000000E+02  0.00000E+00  9.000E+00
       2     1     1     2   501     0  4.485158256E+01  9.834452365E+01  4.823878134E+02  4.943493829E+02  5.394796609E-06  0.00000E+00  9.000E+00
#rwgt            1           1   2.4235327487050110E-002           8      232036           0
</event>
<event>
      5   9999  3.19816E-02  1.59685E+02 -1.00000E+00  1.15327E-01
      21    -1     0     0   502   501  0.000000000E+00  0.000000000E+00  1.418552072E+03  1.418552072E+03  0.000000000E+00  0.00000E+00  9.000E+00
      21    -1     0     0   511   502  0.000000000E+00  0.000000000E+00 -1.888737299E+03  1.888737299E+03  0.000000000E+00  0.00000E+00  9.000E+00
      25     1     1     2     0     0 -6.302104741E+02  5.533716425E+01  1.214166075E+03  1.374791512E+03  1.250000000E+02  0.00000E+00  9.000E+00
      25     1     1     2     0     0  7.488289931E+02 -1.622428777E+02 -1.496999669E+03  1.686327555E+03  1.250000000E+02  0.00000E+00  9.000E+00
      21     1     1     2   511   501 -1.186185190E+02  1.069057134E+02 -1.873516324E+02  2.461703044E+02  3.814697266E-06  0.00000E+00  9.000E+00
#rwgt            1           1   4.0857987944435251E-002           8      232132           0
</event>
<event>
      5   9999  3.19816E-02  2.32853E+02 -1.00000E+00  1.09295E-01
      21    -1     0     0   502   501  0.000000000E+00  0.000000000E+00  9.874847588E+02  9.874847588E+02  0.000000000E+00  0.00000E+00  9.000E+00
       1    -1     0     0   501     0  0.000000000E+00  0.000000000E+00 -9.249150653E+02  9.249150653E+02  0.000000000E+00  0.00000E+00  9.000E+00
      25     1     1     2     0     0 -7.066541386E+02 -1.509091355E+02  3.074411286E+02  7.951595352E+02  1.250000000E+02  0.00000E+00  9.000E+00
      25     1     1     2     0     0  4.863187398E+02  2.262258633E+02  2.233600492E+02  5.943052830E+02  1.250000000E+02  0.00000E+00  9.000E+00
       1     1     1     2   502     0  2.203353989E+02 -7.531672773E+01 -4.682314843E+02  5.229350059E+02  5.394796609E-06  0.00000E+00  9.000E+00
#rwgt            1           1   3.3234067350615862E-002           8      232277           0
</event>
<event>
      5   9999  3.19816E-02  2.80059E+01 -1.00000E+00  1.55144E-01
      21    -1     0     0   502   511  0.000000000E+00  0.000000000E+00  1.630535638E+02  1.630535638E+02  0.000000000E+00  0.00000E+00  9.000E+00
      21    -1     0     0   501   502  0.000000000E+00  0.000000000E+00 -9.979855033E+02  9.979855033E+02  0.000000000E+00  0.00000E+00  9.000E+00
      25     1     1     2     0     0  9.932119363E+01  6.407736287E+01 -4.868591233E+02  5.163597717E+02  1.250000000E+02  0.00000E+00  9.000E+00
      25     1     1     2     0     0 -9.244830936E+01 -3.692789106E+01 -4.820294097E+02  5.078264574E+02  1.250000000E+02  0.00000E+00  9.000E+00
      21     1     1     2   501   511 -6.872884272E+00 -2.714947181E+01  1.339565934E+02  1.368528381E+02  5.046370146E-06  0.00000E+00  9.000E+00
#rwgt            1           1   3.1845843590297941E-002           8      232377           0
</event>
<event>
      5   9999  3.19816E-02  1.32727E+02 -1.00000E+00  1.18539E-01
      21    -1     0     0   512   501  0.000000000E+00  0.000000000E+00  6.278972974E+02  6.278972974E+02  0.000000000E+00  0.00000E+00  9.000E+00
      21    -1     0     0   501   502  0.000000000E+00  0.000000000E+00 -1.603054373E+03  1.603054373E+03  0.000000000E+00  0.00000E+00  9.000E+00
      25     1     1     2     0     0  9.911841580E+01  1.392499682E+02 -1.488886314E+03  1.503869167E+03  1.250000000E+02  0.00000E+00  9.000E+00
      25     1     1     2     0     0  1.128876988E+01 -2.129165579E+02  5.999386090E+01  2.543327748E+02  1.250000000E+02  0.00000E+00  9.000E+00
      21     1     1     2   512   502 -1.104071857E+02  7.366658975E+01  4.537353778E+02  4.727497289E+02  7.629394531E-06  0.00000E+00  9.000E+00
#rwgt            1           1   2.7676841620838912E-002           8      232507           0
</event>
<event>
      5   9999  3.19816E-02  1.02997E+02 -1.00000E+00  1.23254E-01
      21    -1     0     0   511   501  0.000000000E+00  0.000000000E+00  7.941444782E+02  7.941444782E+02  0.000000000E+00  0.00000E+00  9.000E+00
      21    -1     0     0   501   502  0.000000000E+00  0.000000000E+00 -5.135357353E+02  5.135357353E+02  0.000000000E+00  0.00000E+00  9.000E+00
      25     1     1     2     0     0 -2.408461261E+02 -3.156265134E+02 -2.636314620E+02  4.927002133E+02  1.250000000E+02  0.00000E+00  9.000E+00
      25     1     1     2     0     0  2.152286594E+02  4.153865118E+02  3.581941003E+02  6.023266087E+02  1.250000000E+02  0.00000E+00  9.000E+00
      21     1     1     2   511   502  2.561746675E+01 -9.975999839E+01  1.860461046E+02  2.126533915E+02  3.814697266E-06  0.00000E+00  9.000E+00
#rwgt            2          11   3.6960463703948512E-003           8      232723           0
</event>
<event>
      5   9999  3.19816E-02  1.83070E+01 -1.00000E+00  1.69602E-01
      21    -1     0     0   502   501  0.000000000E+00  0.000000000E+00  8.680676861E+02  8.680676861E+02  0.000000000E+00  0.00000E+00  9.000E+00
      21    -1     0     0   512   502  0.000000000E+00  0.000000000E+00 -1.406340165E+03  1.406340165E+03  0.000000000E+00  0.00000E+00  9.000E+00
      25     1     1     2     0     0  7.176922583E+02  4.097643945E+02  4.730102695E+02  9.603919781E+02  1.250000000E+02  0.00000E+00  9.000E+00
      25     1     1     2     0     0 -7.089324502E+02 -3.936892337E+02 -9.845628561E+02  1.281626096E+03  1.250000000E+02  0.00000E+00  9.000E+00
      21     1     1     2   512   501 -8.759808109E+00 -1.607516076E+01 -2.671989234E+01  3.238977737E+01  0.000000000E+00  0.00000E+00  9.000E+00
#rwgt            1           1   3.7403606427565454E-002           8      232773           0
</event>
<event>
      5   9999  3.19816E-02  2.86240E+01 -1.00000E+00  1.54470E-01
      21    -1     0     0   502   501  0.000000000E+00  0.000000000E+00  2.228760257E+02  2.228760257E+02  0.000000000E+00  0.00000E+00  9.000E+00
       2    -1     0     0   501     0  0.000000000E+00  0.000000000E+00 -1.800912062E+03  1.800912062E+03  0.000000000E+00  0.00000E+00  9.000E+00
      25     1     1     2     0     0 -9.344981255E+00 -4.694204425E+01 -1.660590549E+03  1.665976247E+03  1.250000000E+02  0.00000E+00  9.000E+00
      25     1     1     2     0     0 -4.751423768E+00  2.202974455E+01  2.000026089E+02  2.369259995E+02  1.250000000E+02  0.00000E+00  9.000E+00
       2     1     1     2   502     0  1.409640502E+01  2.491229970E+01 -1.174480963E+02  1.208858413E+02  1.907348633E-06  0.00000E+00  9.000E+00
#rwgt            1           1   2.8246291317448494E-002           8      233018           0
</event>
<event>
      5   9999  3.19816E-02  1.17855E+02 -1.00000E+00  1.20702E-01
      21    -1     0     0   502   501  0.000000000E+00  0.000000000E+00  1.353729508E+02  1.353729508E+02  0.000000000E+00  0.00000E+00  9.000E+00
      21    -1     0     0   511   502  0.000000000E+00  0.000000000E+00 -1.135932105E+03  1.135932105E+03  0.000000000E+00  0.00000E+00  9.000E+00
      25     1     1     2     0     0  8.486020659E+01  7.736804822E+01  6.136876480E+01  1.804943070E+02  1.250000000E+02  0.00000E+00  9.000E+00
      25     1     1     2     0     0  1.793229922E+01 -1.971845958E+01 -4.584574914E+02  4.759397613E+02  1.250000000E+02  0.00000E+00  9.000E+00
      21     1     1     2   511   501 -1.027925058E+02 -5.764958864E+01 -6.034704275E+02  6.148709874E+02  1.078959322E-05  0.00000E+00  9.000E+00
#rwgt            1           1   3.3798871008072766E-002           8      233174           0
</event>
<event>
      5   9999  3.19816E-02  3.46472E+01 -1.00000E+00  1.48819E-01
      21    -1     0     0   512   501  0.000000000E+00  0.000000000E+00  1.903377949E+03  1.903377949E+03  0.000000000E+00  0.00000E+00  9.000E+00
      21    -1     0     0   501   502  0.000000000E+00  0.000000000E+00 -1.691152246E+02  1.691152246E+02  0.000000000E+00  0.00000E+00  9.000E+00
      25     1     1     2     0     0  3.397134919E+01 -5.375410876E+01  1.185925730E+03  1.194189429E+03  1.250000000E+02  0.00000E+00  9.000E+00
      25     1     1     2     0     0 -2.365746410E+01  8.683061528E+01 -1.284940232E+02  2.005865035E+02  1.250000000E+02  0.00000E+00  9.000E+00
      21     1     1     2   512   502 -1.031388508E+01 -3.307650652E+01  6.768310177E+02  6.777172405E+02  0.000000000E+00  0.00000E+00  9.000E+00
#rwgt            1           1   2.9679523677027458E-002           8      233227           0
</event>
<event>
      5   9999  3.19816E-02  1.47567E+01 -1.00000E+00  1.78055E-01
      21    -1     0     0   502   501  0.000000000E+00  0.000000000E+00  6.796178368E+02  6.796178368E+02  0.000000000E+00  0.00000E+00  9.000E+00
      21    -1     0     0   501   511  0.000000000E+00  0.000000000E+00 -2.109201579E+02  2.109201579E+02  0.000000000E+00  0.00000E+00  9.000E+00
      25     1     1     2     0     0  2.378499262E+02 -2.326296075E+01 -3.031223974E+01  2.713993084E+02  1.250000000E+02  0.00000E+00  9.000E+00
      25     1     1     2     0     0 -2.234708808E+02  1.994566478E+01  5.276971716E+02  5.868784959E+02  1.250000000E+02  0.00000E+00  9.000E+00
      21     1     1     2   502   511 -1.437904543E+01  3.317295970E+00 -2.868725295E+01  3.226019036E+01  3.371747881E-07  0.00000E+00  9.000E+00
#rwgt            1           1   1.3094983067247127E-002           8      233381           0
</event>
<event>
      5   9999  3.19816E-02  1.23550E+02 -1.00000E+00  1.19833E-01
      21    -1     0     0   502   501  0.000000000E+00  0.000000000E+00  1.157196514E+03  1.157196514E+03  0.000000000E+00  0.00000E+00  9.000E+00
      21    -1     0     0   501   512  0.000000000E+00  0.000000000E+00 -3.072128285E+02  3.072128285E+02  0.000000000E+00  0.00000E+00  9.000E+00
      25     1     1     2     0     0  3.765949116E+02 -1.534762114E+01  9.000598192E+02  9.837641766E+02  1.250000000E+02  0.00000E+00  9.000E+00
      25     1     1     2     0     0 -3.051944300E+02  1.161776260E+02 -6.789619042E+00  3.497312966E+02  1.250000000E+02  0.00000E+00  9.000E+00
      21     1     1     2   502   512 -7.140048160E+01 -1.008300049E+02 -4.328651521E+01  1.309138689E+02  2.132480600E-06  0.00000E+00  9.000E+00
#rwgt            1           1   2.4258186574027910E-002           8      233581           0
</event>
<event>
      5   9999  3.19816E-02  2.30152E+01 -1.00000E+00  1.61490E-01
      21    -1     0     0   502   501  0.000000000E+00  0.000000000E+00  6.535117056E+02  6.535117056E+02  0.000000000E+00  0.00000E+00  9.000E+00
      21    -1     0     0   511   502  0.000000000E+00  0.000000000E+00 -2.390665576E+02  2.390665576E+02  0.000000000E+00  0.00000E+00  9.000E+00
      25     1     1     2     0     0 -8.575281401E-01 -2.163334454E+02  4.877226470E+02  5.479956892E+02  1.250000000E+02  0.00000E+00  9.000E+00
      25     1     1     2     0     0  2.211873902E+01  2.251458490E+02  9.524145017E+00  2.586418398E+02  1.250000000E+02  0.00000E+00  9.000E+00
      21     1     1     2   511   501 -2.126121088E+01 -8.812403602E+00 -8.280164408E+01  8.594073428E+01  9.536743164E-07  0.00000E+00  9.000E+00
#rwgt            1           1   2.6810652155146497E-002           8      233631           0
</event>
<event>
      5   9999  3.19816E-02  8.44879E+01 -1.00000E+00  1.27213E-01
      21    -1     0     0   502   501  0.000000000E+00  0.000000000E+00  2.303267542E+03  2.303267542E+03  0.000000000E+00  0.00000E+00  9.000E+00
      21    -1     0     0   501   512  0.000000000E+00  0.000000000E+00 -1.723604375E+02  1.723604375E+02  0.000000000E+00  0.00000E+00  9.000E+00
      25     1     1     2     0     0  5.737238419E+02 -1.579856614E+02  1.086853355E+03  1.245388988E+03  1.250000000E+02  0.00000E+00  9.000E+00
      25     1     1     2     0     0 -5.302467826E+02  8.554292073E+01  9.789137226E+02  1.123555214E+03  1.250000000E+02  0.00000E+00  9.000E+00
      21     1     1     2   502   512 -4.347705929E+01  7.244274066E+01  6.514002667E+01  1.066837777E+02  2.132480600E-06  0.00000E+00  9.000E+00
#rwgt            2          11   6.9383508739524298E-003           8      233867           0
</event>
<event>
      5   9999  3.19816E-02  4.69472E+01 -1.00000E+00  1.40655E-01
      21    -1     0     0   502   501  0.000000000E+00  0.000000000E+00  1.797469062E+02  1.797469062E+02  0.000000000E+00  0.00000E+00  9.000E+00
       2    -1     0     0   501     0  0.000000000E+00  0.000000000E+00 -1.147704518E+03  1.147704518E+03  0.000000000E+00  0.00000E+00  9.000E+00
      25     1     1     2     0     0 -2.038078038E+02 -9.902163357E+01 -5.118070285E+01  2.637941795E+02  1.250000000E+02  0.00000E+00  9.000E+00
      25     1     1     2     0     0  1.683412043E+02  1.297814163E+02 -1.362673887E+02  2.817370730E+02  1.250000000E+02  0.00000E+00  9.000E+00
       2     1     1     2   502     0  3.546659949E+01 -3.075978269E+01 -7.805095202E+02  7.819201718E+02  0.000000000E+00  0.00000E+00  9.000E+00
#rwgt            1           1   2.3713446915527178E-002           8      233887           0
</event>
<event>
      5   9999  3.19816E-02  6.09280E+01 -1.00000E+00  1.34348E-01
      21    -1     0     0   502   501  0.000000000E+00  0.000000000E+00  1.408266827E+03  1.408266827E+03  0.000000000E+00  0.00000E+00  9.000E+00
      21    -1     0     0   511   502  0.000000000E+00  0.000000000E+00 -1.487999497E+03  1.487999497E+03  0.000000000E+00  0.00000E+00  9.000E+00
      25     1     1     2     0     0 -4.338527662E+02  8.295118675E+01 -5.099232456E+02  6.861164905E+02  1.250000000E+02  0.00000E+00  9.000E+00
      25     1     1     2     0     0  3.919291458E+02 -3.873990921E+01  1.286729691E+03  1.351446460E+03  1.250000000E+02  0.00000E+00  9.000E+00
      21     1     1     2   511   501  4.192362037E+01 -4.421127754E+01 -8.565391158E+02  8.587033736E+02  0.000000000E+00  0.00000E+00  9.000E+00
#rwgt            1           1   3.2359065986521419E-002           8      233972           0
</event>
<event>
      5   9999  3.19816E-02  8.98526E+01 -1.00000E+00  1.25955E-01
      21    -1     0     0   502   501  0.000000000E+00  0.000000000E+00  2.096920516E+02  2.096920516E+02  0.000000000E+00  0.00000E+00  9.000E+00
       1    -1     0     0   501     0  0.000000000E+00  0.000000000E+00 -2.459887257E+03  2.459887257E+03  0.000000000E+00  0.00000E+00  9.000E+00
      25     1     1     2     0     0 -3.608073132E+02 -5.044672035E+01 -1.374255193E+02  4.089468941E+02  1.250000000E+02  0.00000E+00  9.000E+00
      25     1     1     2     0     0  4.393488700E+02  9.408964269E+01 -6.772148366E+02  8.222683414E+02  1.250000000E+02  0.00000E+00  9.000E+00
       1     1     1     2   502     0 -7.854155684E+01 -4.364292234E+01 -1.435554850E+03  1.438364073E+03  1.525878906E-05  0.00000E+00  9.000E+00
#rwgt            1           1   2.3508171979504392E-002           8      234111           0
</event>
<event>
      5   9999  3.19816E-02  3.33538E+01 -1.00000E+00  1.49910E-01
       2    -1     0     0   502     0  0.000000000E+00  0.000000000E+00  1.398002069E+03  1.398002069E+03  0.000000000E+00  0.00000E+00  9.000E+00
      21    -1     0     0   501   502  0.000000000E+00  0.000000000E+00 -1.111792840E+03  1.111792840E+03  0.000000000E+00  0.00000E+00  9.000E+00
      25     1     1     2     0     0  4.193503435E+02  2.499809585E+02 -8.514930031E+02  9.894496068E+02  1.250000000E+02  0.00000E+00  9.000E+00
      25     1     1     2     0     0 -3.908818182E+02 -2.673595660E+02  1.228726265E+02  5.049677373E+02  1.250000000E+02  0.00000E+00  9.000E+00
       2     1     1     2   501     0 -2.846852527E+01  1.737860751E+01  1.014829605E+03  1.015377566E+03  0.000000000E+00  0.00000E+00  9.000E+00
#rwgt            1           1   2.6691828834852448E-002           8      234158           0
</event>
<event>
      5   9999  3.19816E-02  1.47026E+02 -1.00000E+00  1.16739E-01
      21    -1     0     0   502   501  0.000000000E+00  0.000000000E+00  3.083084634E+02  3.083084634E+02  0.000000000E+00  0.00000E+00  9.000E+00
      21    -1     0     0   501   511  0.000000000E+00  0.000000000E+00 -5.429692995E+02  5.429692995E+02  0.000000000E+00  0.00000E+00  9.000E+00
      25     1     1     2     0     0  1.793198616E+02  1.228490162E+02  1.493413231E+02  2.918481186E+02  1.250000000E+02  0.00000E+00  9.000E+00
      25     1     1     2     0     0 -6.463758224E+01 -2.148524097E+02 -2.110186824E+02  3.324055645E+02  1.250000000E+02  0.00000E+00  9.000E+00
      21     1     1     2   502   511 -1.146822793E+02  9.200339343E+01 -1.729834767E+02  2.270240798E+02  0.000000000E+00  0.00000E+00  9.000E+00
#rwgt            1           1   2.7486995588089664E-002           8      234319           0
</event>
<event>
      5   9999  3.19816E-02  1.86542E+02 -1.00000E+00  1.12761E-01
      21    -1     0     0   512   501  0.000000000E+00  0.000000000E+00  8.797442524E+02  8.797442524E+02  0.000000000E+00  0.00000E+00  9.000E+00
      21    -1     0     0   501   502  0.000000000E+00  0.000000000E+00 -5.624012980E+02  5.624012980E+02  0.000000000E+00  0.00000E+00  9.000E+00
      25     1     1     2     0     0  1.929140048E+02 -3.095610749E+01 -3.106940438E+00  2.319671246E+02  1.250000000E+02  0.00000E+00  9.000E+00
      25     1     1     2     0     0 -2.941058672E+02  1.876661817E+02 -3.527333108E+02  5.116274479E+02  1.250000000E+02  0.00000E+00  9.000E+00
      21     1     1     2   512   502  1.011918624E+02 -1.567100742E+02  6.731832057E+02  6.985509779E+02  7.629394531E-06  0.00000E+00  9.000E+00
#rwgt            2          11   4.4546068288719388E-003           8      234426           0
</event>
<event>
      5   9999  3.30566E-02  2.86754E+02 -1.00000E+00  1.06233E-01
      21    -1     0     0   502   501  0.000000000E+00  0.000000000E+00  1.637269394E+03  1.637269394E+03  0.000000000E+00  0.00000E+00  9.000E+00
       2    -1     0     0   501     0  0.000000000E+00  0.000000000E+00 -1.705748757E+03  1.705748757E+03  0.000000000E+00  0.00000E+00  9.000E+00
      25     1     1     2     0     0  6.165623316E+02  6.054533607E+02  1.326823532E+03  1.588335156E+03  1.250000000E+02  0.00000E+00  9.000E+00
      25     1     1     2     0     0 -6.278375399E+02 -3.189213205E+02 -6.920435978E+02  9.952085844E+02  1.250000000E+02  0.00000E+00  9.000E+00
       2     1     1     2   502     0  1.127520832E+01 -2.865320401E+02 -7.032592977E+02  7.594744105E+02  1.078959322E-05  0.00000E+00  9.000E+00
#rwgt            1           1   7.8194927503801151E-002           8      234446           0
</event>
<event>
      5   9999  3.19816E-02  2.74612E+01 -1.00000E+00  1.55756E-01
      21    -1     0     0   511   501  0.000000000E+00  0.000000000E+00  3.010168702E+02  3.010168702E+02  0.000000000E+00  0.00000E+00  9.000E+00
      21    -1     0     0   501   502  0.000000000E+00  0.000000000E+00 -2.085148307E+02  2.085148307E+02  0.000000000E+00  0.00000E+00  9.000E+00
      25     1     1     2     0     0 -8.666348578E+01  1.108358344E+01  1.573405985E+02  2.191220425E+02  1.250000000E+02  0.00000E+00  9.000E+00
      25     1     1     2     0     0  1.105041073E+02  2.545092680E+00 -1.352766269E+02  2.148078234E+02  1.250000000E+02  0.00000E+00  9.000E+00
      21     1     1     2   511   502 -2.384062151E+01 -1.362867612E+01  7.043806782E+01  7.560183494E+01  9.536743164E-07  0.00000E+00  9.000E+00
#rwgt            1           1   2.5853992752378079E-002           8      234533           0
</event>
<event>
      5   9999  3.19816E-02  3.47506E+02 -1.00000E+00  1.03558E-01
      21    -1     0     0   512   501  0.000000000E+00  0.000000000E+00  3.970869893E+02  3.970869893E+02  0.000000000E+00  0.00000E+00  9.000E+00
      21    -1     0     0   501   502  0.000000000E+00  0.000000000E+00 -1.238859314E+03  1.238859314E+03  0.000000000E+00  0.00000E+00  9.000E+00
      25     1     1     2     0     0 -1.483752176E+02  2.058223889E+02 -3.734272140E+02  4.684559159E+02  1.250000000E+02  0.00000E+00  9.000E+00
      25     1     1     2     0     0  4.599618151E+02 -3.596872783E+02 -5.485523103E+02  8.108479800E+02  1.250000000E+02  0.00000E+00  9.000E+00
      21     1     1     2   512   502 -3.115865975E+02  1.538648894E+02  8.020719962E+01  3.566424075E+02  4.768371582E-06  0.00000E+00  9.000E+00
#rwgt            1           1   2.9760252819891898E-002           8      234598           0
</event>
<event>
      5   9999  3.19816E-02  4.80081E+01 -1.00000E+00  1.40090E-01
      21    -1     0     0   502   501  0.000000000E+00  0.000000000E+00  7.049983648E+02  7.049983648E+02  0.000000000E+00  0.00000E+00  9.000E+00
      21    -1     0     0   501   511  0.000000000E+00  0.000000000E+00 -6.234741673E+02  6.234741673E+02  0.000000000E+00  0.00000E+00  9.000E+00
      25     1     1     2     0     0 -5.193460648E+02 -2.359271538E+02  2.443820824E+02  6.330320364E+02  1.250000000E+02  0.00000E+00  9.000E+00
      25     1     1     2     0     0  5.518666551E+02  2.712427653E+02 -1.436412260E+02  6.437291702E+02  1.250000000E+02  0.00000E+00  9.000E+00
      21     1     1     2   502   511 -3.252059031E+01 -3.531561150E+01 -1.921665892E+01  5.171132554E+01  8.920806376E-07  0.00000E+00  9.000E+00
#rwgt            1           1   3.0674705129583833E-002           8      234684           0
</event>
<event>
      5   9999  3.19816E-02  1.42878E+02 -1.00000E+00  1.17237E-01
       1    -1     0     0   502     0  0.000000000E+00  0.000000000E+00  1.758234828E+03  1.758234828E+03  0.000000000E+00  0.00000E+00  9.000E+00
      21    -1     0     0   501   502  0.000000000E+00  0.000000000E+00 -2.270421707E+02  2.270421707E+02  0.000000000E+00  0.00000E+00  9.000E+00
      25     1     1     2     0     0  4.392425791E+01 -2.716449271E+02 -6.979816479E+01  3.101887984E+02  1.250000000E+02  0.00000E+00  9.000E+00
      25     1     1     2     0     0 -1.355182150E-01  1.356428279E+02  2.216275603E+02  2.883448814E+02  1.250000000E+02  0.00000E+00  9.000E+00
       1     1     1     2   501     0 -4.378873969E+01  1.360020992E+02  1.379363262E+03  1.386743319E+03  1.525878906E-05  0.00000E+00  9.000E+00
#rwgt            1           1   2.6641930522482399E-002           8      234936           0
</event>
<event>
      5   9999  3.19816E-02  3.36340E+01 -1.00000E+00  1.49669E-01
      21    -1     0     0   511   501  0.000000000E+00  0.000000000E+00  4.659831722E+02  4.659831722E+02  0.000000000E+00  0.00000E+00  9.000E+00
      21    -1     0     0   501   502  0.000000000E+00  0.000000000E+00 -3.209417668E+02  3.209417668E+02  0.000000000E+00  0.00000E+00  9.000E+00
      25     1     1     2     0     0  1.703825176E+02 -4.471208692E+01 -2.485803618E+02  3.293122672E+02  1.250000000E+02  0.00000E+00  9.000E+00
      25     1     1     2     0     0 -1.369559839E+02  4.844196251E+01  3.694320011E+02  4.161833355E+02  1.250000000E+02  0.00000E+00  9.000E+00
      21     1     1     2   511   502 -3.342653366E+01 -3.729875595E+00  2.418976612E+01  4.142933633E+01  5.840038640E-07  0.00000E+00  9.000E+00
#rwgt            1           1   3.2163557569082367E-002           8      235014           0
</event>
<event>
      5   9999  3.19816E-02  1.19267E+02 -1.00000E+00  1.20481E-01
      21    -1     0     0   502   501  0.000000000E+00  0.000000000E+00  1.216806713E+03  1.216806713E+03  0.000000000E+00  0.00000E+00  9.000E+00
      21    -1     0     0   512   502  0.000000000E+00  0.000000000E+00 -1.732865251E+02  1.732865251E+02  0.000000000E+00  0.00000E+00  9.000E+00
      25     1     1     2     0     0  2.723084574E+02 -3.106485914E+02  5.266577283E+02  6.809168863E+02  1.250000000E+02  0.00000E+00  9.000E+00
      25     1     1     2     0     0 -2.856555075E+02  1.921308708E+02  3.946751686E+02  5.384299668E+02  1.250000000E+02  0.00000E+00  9.000E+00
      21     1     1     2   512   501  1.334705008E+01  1.185177206E+02  1.221872907E+02  1.707463846E+02  2.336015456E-06  0.00000E+00  9.000E+00
#rwgt            1           1   2.8486352405131827E-002           8      235156           0
</event>
<event>
      5   9999  3.19816E-02  9.59610E+01 -1.00000E+00  1.24639E-01
      21    -1     0     0   502   501  0.000000000E+00  0.000000000E+00  2.288626743E+02  2.288626743E+02  0.000000000E+00  0.00000E+00  9.000E+00
       3    -1     0     0   501     0  0.000000000E+00  0.000000000E+00 -9.249392083E+02  9.249392083E+02  0.000000000E+00  0.00000E+00  9.000E+00
      25     1     1     2     0     0 -8.272112064E+01  2.148555695E+01 -2.893368829E+02  3.265658353E+02  1.250000000E+02  0.00000E+00  9.000E+00
      25     1     1     2     0     0  1.656805090E+02  2.674567262E+01  1.530646340E+02  2.592665506E+02  1.250000000E+02  0.00000E+00  9.000E+00
       3     1     1     2   502     0 -8.295938836E+01 -4.823122958E+01 -5.598042851E+02  5.679694968E+02  0.000000000E+00  0.00000E+00  9.000E+00
#rwgt            1           1   2.7488746074684579E-002           8      235216           0
</event>
<event>
      5   9999  3.19816E-02  2.45349E+02 -1.00000E+00  1.08510E-01
       1    -1     0     0   502     0  0.000000000E+00  0.000000000E+00  2.993732210E+02  2.993732210E+02  0.000000000E+00  0.00000E+00  9.000E+00
      21    -1     0     0   501   502  0.000000000E+00  0.000000000E+00 -2.648353982E+03  2.648353982E+03  0.000000000E+00  0.00000E+00  9.000E+00
      25     1     1     2     0     0 -2.253629344E+02 -2.429190710E+02 -9.708648282E+02  1.033441649E+03  1.250000000E+02  0.00000E+00  9.000E+00
      25     1     1     2     0     0  4.504562622E+02  3.405354431E+02 -1.523161024E+03  1.629269694E+03  1.250000000E+02  0.00000E+00  9.000E+00
       1     1     1     2   501     0 -2.250933278E+02 -9.761637208E+01  1.450450905E+02  2.850158603E+02  1.907348633E-06  0.00000E+00  9.000E+00
#rwgt            2          17   1.3717014637450225E-003           8      235315           0
</event>
<event>
      5   9999  3.19816E-02  5.66580E+01 -1.00000E+00  1.36047E-01
      21    -1     0     0   502   501  0.000000000E+00  0.000000000E+00  4.464927671E+02  4.464927671E+02  0.000000000E+00  0.00000E+00  9.000E+00
      21    -1     0     0   511   502  0.000000000E+00  0.000000000E+00 -7.356962747E+02  7.356962747E+02  0.000000000E+00  0.00000E+00  9.000E+00
      25     1     1     2     0     0  2.211324907E+02  1.244184751E+01  6.666857951E+01  2.629145822E+02  1.250000000E+02  0.00000E+00  9.000E+00
      25     1     1     2     0     0 -2.075636215E+02  4.256733889E+01  2.263535091E+02  3.342985887E+02  1.250000000E+02  0.00000E+00  9.000E+00
      21     1     1     2   511   501 -1.356886925E+01 -5.500918640E+01 -5.822255962E+02  5.849758710E+02  0.000000000E+00  0.00000E+00  9.000E+00
#rwgt            1           1   2.5451844072120960E-002           8      235379           0
</event>
<event>
      5   9999  3.19816E-02  2.13956E+01 -1.00000E+00  1.63988E-01
      21    -1     0     0   502   512  0.000000000E+00  0.000000000E+00  1.378871030E+03  1.378871030E+03  0.000000000E+00  0.00000E+00  9.000E+00
      21    -1     0     0   501   502  0.000000000E+00  0.000000000E+00 -1.248697064E+02  1.248697064E+02  0.000000000E+00  0.00000E+00  9.000E+00
      25     1     1     2     0     0 -2.888061374E+02 -7.697773950E+01  8.645999400E+02  9.233052657E+02  1.250000000E+02  0.00000E+00  9.000E+00
      25     1     1     2     0     0  3.011965346E+02  9.442045127E+01  2.087947854E+02  3.985659751E+02  1.250000000E+02  0.00000E+00  9.000E+00
      21     1     1     2   501   512 -1.239039727E+01 -1.744271177E+01  1.806065977E+02  1.818694951E+02  4.264961200E-06  0.00000E+00  9.000E+00
#rwgt            1           1   2.5304071426265239E-002           8      235474           0
</event>
<event>
      5   9999  3.19816E-02  2.51338E+01 -1.00000E+00  1.58577E-01
      21    -1     0     0   502   511  0.000000000E+00  0.000000000E+00  8.569394067E+02  8.569394067E+02  0.000000000E+00  0.00000E+00  9.000E+00
      21    -1     0     0   501   502  0.000000000E+00  0.000000000E+00 -9.534495008E+01  9.534495008E+01  0.000000000E+00  0.00000E+00  9.000E+00
      25     1     1     2     0     0 -1.379752579E+02  1.874549324E+01  2.788629290E+01  1.891856512E+02  1.250000000E+02  0.00000E+00  9.000E+00
      25     1     1     2     0     0  1.252225117E+02 -4.040365327E+01  6.799651077E+02  7.037689111E+02  1.250000000E+02  0.00000E+00  9.000E+00
      21     1     1     2   501   511  1.275274617E+01  2.165816003E+01  5.374305610E+01  5.932979445E+01  6.743495762E-07  0.00000E+00  9.000E+00
#rwgt            1           1   2.8065081940001204E-002           8      235596           0
</event>
<event>
      5   9999  3.19816E-02  1.25349E+02 -1.00000E+00  1.19570E-01
      21    -1     0     0   502   501  0.000000000E+00  0.000000000E+00  4.186620402E+02  4.186620402E+02  0.000000000E+00  0.00000E+00  9.000E+00
       1    -1     0     0   501     0  0.000000000E+00  0.000000000E+00 -2.213199268E+02  2.213199268E+02  0.000000000E+00  0.00000E+00  9.000E+00
      25     1     1     2     0     0  1.126710197E+02 -9.634855965E+01  2.835132044E+02  3.434858668E+02  1.250000000E+02  0.00000E+00  9.000E+00
      25     1     1     2     0     0 -2.443315932E+01  7.317582885E+00 -1.105359458E+02  1.688008341E+02  1.250000000E+02  0.00000E+00  9.000E+00
       1     1     1     2   502     0 -8.823786038E+01  8.903097677E+01  2.436485465E+01  1.276952660E+02  1.430511475E-06  0.00000E+00  9.000E+00
#rwgt            1           1   3.2709988550590915E-002           8      235756           0
</event>
<event>
      5   9999  3.19816E-02  6.76361E+01 -1.00000E+00  1.31981E-01
      21    -1     0     0   502   511  0.000000000E+00  0.000000000E+00  1.001631636E+02  1.001631636E+02  0.000000000E+00  0.00000E+00  9.000E+00
      21    -1     0     0   501   502  0.000000000E+00  0.000000000E+00 -7.899498671E+02  7.899498671E+02  0.000000000E+00  0.00000E+00  9.000E+00
      25     1     1     2     0     0  1.369659739E+00 -1.042387218E+02 -6.144536108E+02  6.356459918E+02  1.250000000E+02  0.00000E+00  9.000E+00
      25     1     1     2     0     0  6.552210649E+01  9.423236059E+01 -2.819591390E+01  1.720258521E+02  1.250000000E+02  0.00000E+00  9.000E+00
      21     1     1     2   501   511 -6.689176623E+01  1.000636117E+01 -4.713717889E+01  8.244118683E+01  9.536743164E-07  0.00000E+00  9.000E+00
#rwgt            1           1   3.2670449865528861E-002           8      235793           0
</event>
<event>
      5   9999  3.19816E-02  6.48472E+01 -1.00000E+00  1.32925E-01
      21    -1     0     0   502   501  0.000000000E+00  0.000000000E+00  7.383616118E+01  7.383616118E+01  0.000000000E+00  0.00000E+00  9.000E+00
      21    -1     0     0   512   502  0.000000000E+00  0.000000000E+00 -1.789090192E+03  1.789090192E+03  0.000000000E+00  0.00000E+00  9.000E+00
      25     1     1     2     0     0 -1.447148844E+02  2.550251749E+02 -1.083594972E+03  1.129505777E+03  1.250000000E+02  0.00000E+00  9.000E+00
      25     1     1     2     0     0  1.287260591E+02 -1.921799668E+02 -3.155634961E+02  4.107418386E+02  1.250000000E+02  0.00000E+00  9.000E+00
      21     1     1     2   512   501  1.598882528E+01 -6.284520811E+01 -3.160955625E+02  3.226787371E+02  6.607249480E-06  0.00000E+00  9.000E+00
#rwgt            1           1   2.8761074727905275E-002           8      235838           0
</event>
<event>
      5   9999  3.19816E-02  1.45617E+02 -1.00000E+00  1.16906E-01
      21    -1     0     0   502   501  0.000000000E+00  0.000000000E+00  2.111997675E+02  2.111997675E+02  0.000000000E+00  0.00000E+00  9.000E+00
      21    -1     0     0   501   511  0.000000000E+00  0.000000000E+00 -1.009082018E+03  1.009082018E+03  0.000000000E+00  0.00000E+00  9.000E+00
      25     1     1     2     0     0  2.684155181E+02 -1.055851712E+02  1.842534764E+01  3.148961927E+02  1.250000000E+02  0.00000E+00  9.000E+00
      25     1     1     2     0     0 -1.800951683E+02 -1.018924567E+01 -6.407784170E+02  6.773182930E+02  1.250000000E+02  0.00000E+00  9.000E+00
      21     1     1     2   502   511 -8.832034981E+01  1.157744169E+02 -1.755291808E+02  2.280672995E+02  0.000000000E+00  0.00000E+00  9.000E+00
#rwgt            1           1   3.1563899542986697E-002           8      235921           0
</event>
<event>
      5   9999  3.19816E-02  4.22107E+02 -1.00000E+00  1.00987E-01
      21    -1     0     0   502   501  0.000000000E+00  0.000000000E+00  1.206328475E+03  1.206328475E+03  0.000000000E+00  0.00000E+00  9.000E+00
       2    -1     0     0   501     0  0.000000000E+00  0.000000000E+00 -5.186673048E+02  5.186673048E+02  0.000000000E+00  0.00000E+00  9.000E+00
      25     1     1     2     0     0  1.475003661E+02  2.649650694E+02  5.588937640E+02  6.480355587E+02  1.250000000E+02  0.00000E+00  9.000E+00
      25     1     1     2     0     0 -4.722881799E+01  1.450589357E+02  4.856721034E+02  5.241898969E+02  1.250000000E+02  0.00000E+00  9.000E+00
       2     1     1     2   502     0 -1.002715482E+02 -4.100240050E+02 -3.569046973E+02  5.527703239E+02  5.394796609E-06  0.00000E+00  9.000E+00
#rwgt            1           1   2.3536213153159628E-002           8      235981           0
</event>
<event>
      5   9999  3.19816E-02  7.90845E+01 -1.00000E+00  1.28592E-01
      21    -1     0     0   502   501  0.000000000E+00  0.000000000E+00  2.868619904E+02  2.868619904E+02  0.000000000E+00  0.00000E+00  9.000E+00
      21    -1     0     0   511   502  0.000000000E+00  0.000000000E+00 -2.232797395E+03  2.232797395E+03  0.000000000E+00  0.00000E+00  9.000E+00
      25     1     1     2     0     0 -3.193186669E+02 -2.279698430E+02  1.005978200E+02  4.238862840E+02  1.250000000E+02  0.00000E+00  9.000E+00
      25     1     1     2     0     0  2.407402009E+02  2.190376121E+02 -1.871550799E+03  1.903749120E+03  1.250000000E+02  0.00000E+00  9.000E+00
      21     1     1     2   511   501  7.857846602E+01  8.932230907E+00 -1.749824263E+02  1.920239818E+02  1.907348633E-06  0.00000E+00  9.000E+00
#rwgt            1           1   2.9877465768194233E-002           8      236012           0
</event>
<event>
      5   9999  3.19816E-02  1.08061E+01 -1.00000E+00  1.91944E-01
      21    -1     0     0   502   501  0.000000000E+00  0.000000000E+00  5.307090810E+02  5.307090810E+02  0.000000000E+00  0.00000E+00  9.000E+00
      -2    -1     0     0     0   502  0.000000000E+00  0.000000000E+00 -1.177903990E+03  1.177903990E+03  0.000000000E+00  0.00000E+00  9.000E+00
      25     1     1     2     0     0 -2.952864223E+02  1.304920392E+02  3.546812369E+02  4.956268993E+02  1.250000000E+02  0.00000E+00  9.000E+00
      25     1     1     2     0     0  2.852718701E+02 -1.345517297E+02 -1.671987943E+02  3.782388725E+02  1.250000000E+02  0.00000E+00  9.000E+00
      -2     1     1     2     0   501  1.001455222E+01  4.059690487E+00 -8.346773520E+02  8.347472997E+02  1.078959322E-05  0.00000E+00  9.000E+00
#rwgt            1           1   3.0319241267989825E-002           8      236143           0
</event>
<event>
      5   9999  3.19816E-02  1.45448E+02 -1.00000E+00  1.16926E-01
      21    -1     0     0   502   501  0.000000000E+00  0.000000000E+00  3.088938619E+02  3.088938619E+02  0.000000000E+00  0.00000E+00  9.000E+00
      21    -1     0     0   501   511  0.000000000E+00  0.000000000E+00 -9.799868263E+02  9.799868263E+02  0.000000000E+00  0.00000E+00  9.000E+00
      25     1     1     2     0     0 -1.985936206E+02 -1.274048554E+01  1.213613376E+02  2.644906811E+02  1.250000000E+02  0.00000E+00  9.000E+00
      25     1     1     2     0     0  3.403109693E+02 -1.999097597E+01 -2.003854427E+02  4.147173985E+02  1.250000000E+02  0.00000E+00  9.000E+00
      21     1     1     2   502   511 -1.417173487E+02  3.273146151E+01 -5.920688594E+02  6.096726086E+02  1.321449896E-05  0.00000E+00  9.000E+00
#rwgt            1           1   2.8012130827995321E-002           8      236470           0
</event>
<event>
      5   9999  3.19816E-02  1.89300E+01 -1.00000E+00  1.68364E-01
      21    -1     0     0   502   512  0.000000000E+00  0.000000000E+00  6.412026652E+02  6.412026652E+02  0.000000000E+00  0.00000E+00  9.000E+00
      21    -1     0     0   501   502  0.000000000E+00  0.000000000E+00 -3.456997012E+02  3.456997012E+02  0.000000000E+00  0.00000E+00  9.000E+00
      25     1     1     2     0     0  3.336993037E+02 -1.869311391E+02  9.332920489E+01  4.130784629E+02  1.250000000E+02  0.00000E+00  9.000E+00
      25     1     1     2     0     0 -3.151005888E+02  1.904571616E+02  1.859582479E+01  3.892725474E+02  1.250000000E+02  0.00000E+00  9.000E+00
      21     1     1     2   501   512 -1.859871487E+01 -3.526022542E+00  1.835779343E+02  1.845513560E+02  3.814697266E-06  0.00000E+00  9.000E+00
#rwgt            1           1   3.1697215783552002E-002           8      236555           0
</event>
<event>
      5   9999  3.19816E-02  1.25181E+02 -1.00000E+00  1.19594E-01
      21    -1     0     0   502   501  0.000000000E+00  0.000000000E+00  3.708312248E+02  3.708312248E+02  0.000000000E+00  0.00000E+00  9.000E+00
       2    -1     0     0   501     0  0.000000000E+00  0.000000000E+00 -1.262920077E+03  1.262920077E+03  0.000000000E+00  0.00000E+00  9.000E+00
      25     1     1     2     0     0  5.468637581E+01  2.361796183E+01 -3.638980532E+01  1.431699192E+02  1.250000000E+02  0.00000E+00  9.000E+00
      25     1     1     2     0     0 -1.752869513E+02  9.935638865E+00  2.770103777E+02  3.509757564E+02  1.250000000E+02  0.00000E+00  9.000E+00
       2     1     1     2   502     0  1.206005755E+02 -3.355360069E+01 -1.132709425E+03  1.139605627E+03  0.000000000E+00  0.00000E+00  9.000E+00
#rwgt            1           1   3.2575849432807960E-002           8      236707           0
</event>
<event>
      5   9999  3.19816E-02  1.31455E+02 -1.00000E+00  1.18711E-01
      21    -1     0     0   502   511  0.000000000E+00  0.000000000E+00  1.305779315E+03  1.305779315E+03  0.000000000E+00  0.00000E+00  9.000E+00
      21    -1     0     0   501   502  0.000000000E+00  0.000000000E+00 -8.320646919E+01  8.320646919E+01  0.000000000E+00  0.00000E+00  9.000E+00
      25     1     1     2     0     0  9.914496467E+01 -2.317070445E+02  3.271841950E+02  4.315001460E+02  1.250000000E+02  0.00000E+00  9.000E+00
      25     1     1     2     0     0 -6.839052986E+01  1.039000152E+02  3.020508722E+02  3.497602138E+02  1.250000000E+02  0.00000E+00  9.000E+00
      21     1     1     2   501   511 -3.075443481E+01  1.278070293E+02  5.933377782E+02  6.077254241E+02  1.078959322E-05  0.00000E+00  9.000E+00
#rwgt            2          11   1.9156974389717548E-003           8      236867           0
</event>
<event>
      5   9999  3.19816E-02  3.30148E+01 -1.00000E+00  1.50206E-01
      21    -1     0     0   512   501  0.000000000E+00  0.000000000E+00  3.874526487E+02  3.874526487E+02  0.000000000E+00  0.00000E+00  9.000E+00
      21    -1     0     0   501   502  0.000000000E+00  0.000000000E+00 -2.029369432E+02  2.029369432E+02  0.000000000E+00  0.00000E+00  9.000E+00
      25     1     1     2     0     0  1.853875031E+02 -7.552132163E+01  1.340157045E+02  2.713986098E+02  1.250000000E+02  0.00000E+00  9.000E+00
      25     1     1     2     0     0 -1.672891517E+02  1.031334482E+02 -2.727209654E+01  2.345014619E+02  1.250000000E+02  0.00000E+00  9.000E+00
      21     1     1     2   512   502 -1.809835145E+01 -2.761212655E+01  7.777209754E+01  8.448952014E+01  9.536743164E-07  0.00000E+00  9.000E+00
#rwgt            1           1   2.7767802431278972E-002           8      236887           0
</event>
<event>
      5   9999  3.19816E-02  3.26539E+02 -1.00000E+00  1.04409E-01
      21    -1     0     0   502   501  0.000000000E+00  0.000000000E+00  1.499095595E+03  1.499095595E+03  0.000000000E+00  0.00000E+00  9.000E+00
       4    -1     0     0   501     0  0.000000000E+00  0.000000000E+00 -1.430693421E+03  1.430693421E+03  0.000000000E+00  0.00000E+00  9.000E+00
      25     1     1     2     0     0  3.637830209E+02  1.181938793E+02  1.215901853E+03  1.280761569E+03  1.250000000E+02  0.00000E+00  9.000E+00
      25     1     1     2     0     0 -1.904426089E+02 -3.949265208E+02  5.624193513E-02  4.559170399E+02  1.250000000E+02  0.00000E+00  9.000E+00
       4     1     1     2   502     0 -1.733404120E+02  2.767326415E+02 -1.147555921E+03  1.193110408E+03  1.525878906E-05  0.00000E+00  9.000E+00
#rwgt            1           1   3.1411668478567301E-002           8      236983           0
</event>
<event>
      5   9999  3.19816E-02  3.95023E+01 -1.00000E+00  1.45178E-01
      21    -1     0     0   502   501  0.000000000E+00  0.000000000E+00  1.250918425E+03  1.250918425E+03  0.000000000E+00  0.00000E+00  9.000E+00
      21    -1     0     0   511   502  0.000000000E+00  0.000000000E+00 -1.107126287E+02  1.107126287E+02  0.000000000E+00  0.00000E+00  9.000E+00
      25     1     1     2     0     0 -6.195930456E+01  2.181531751E+02  9.466943387E+02  9.814708015E+02  1.250000000E+02  0.00000E+00  9.000E+00
      25     1     1     2     0     0  4.478291834E+01 -2.537256519E+02  1.581192219E+02  3.271221554E+02  1.250000000E+02  0.00000E+00  9.000E+00
      21     1     1     2   511   501  1.717638622E+01  3.557247679E+01  3.539223554E+01  5.303809654E+01  8.259061849E-07  0.00000E+00  9.000E+00
#rwgt            1           1   2.5156865150022991E-002           8      237020           0
</event>
<event>
      5   9999  3.19816E-02  1.91732E+01 -1.00000E+00  1.67896E-01
      21    -1     0     0   512   501  0.000000000E+00  0.000000000E+00  5.658393876E+02  5.658393876E+02  0.000000000E+00  0.00000E+00  9.000E+00
      21    -1     0     0   501   502  0.000000000E+00  0.000000000E+00 -9.764523670E+01  9.764523670E+01  0.000000000E+00  0.00000E+00  9.000E+00
      25     1     1     2     0     0  1.195878295E+02  1.566225743E+01  2.036441678E+02  2.676611708E+02  1.250000000E+02  0.00000E+00  9.000E+00
      25     1     1     2     0     0 -1.381681719E+02 -2.039326088E+01  6.960897697E+01  1.999418378E+02  1.250000000E+02  0.00000E+00  9.000E+00
      21     1     1     2   512   502  1.858034240E+01  4.731003449E+00  1.949410062E+02  1.958816158E+02  2.697398305E-06  0.00000E+00  9.000E+00
#rwgt            1           1   2.1672361666541261E-002           8      237160           0
</event>
<event>
      5   9999  3.19816E-02  1.01307E+02 -1.00000E+00  1.23575E-01
      21    -1     0     0   511   501  0.000000000E+00  0.000000000E+00  3.970537078E+02  3.970537078E+02  0.000000000E+00  0.00000E+00  9.000E+00
      21    -1     0     0   501   502  0.000000000E+00  0.000000000E+00 -3.617395446E+02  3.617395446E+02  0.000000000E+00  0.00000E+00  9.000E+00
      25     1     1     2     0     0 -1.408276385E+02  2.387515602E+02  1.365064238E+02  3.333072682E+02  1.250000000E+02  0.00000E+00  9.000E+00
      25     1     1     2     0     0  4.250263499E+01 -2.631485552E+02 -1.274762867E+02  3.208252480E+02  1.250000000E+02  0.00000E+00  9.000E+00
      21     1     1     2   511   502  9.832500349E+01  2.439699493E+01  2.628402620E+01  1.046607362E+02  7.539457465E-07  0.00000E+00  9.000E+00
#rwgt            1           1   2.6460820644057002E-002           8      237264           0
</event>
<event>
      5   9999  3.19816E-02  8.88037E+01 -1.00000E+00  1.26193E-01
      21    -1     0     0   502   501  0.000000000E+00  0.000000000E+00  9.447746823E+01  9.447746823E+01  0.000000000E+00  0.00000E+00  9.000E+00
      21    -1     0     0   501   512  0.000000000E+00  0.000000000E+00 -1.416722582E+03  1.416722582E+03  0.000000000E+00  0.00000E+00  9.000E+00
      25     1     1     2     0     0  1.196788276E+02  9.747344686E+01 -9.085824790E+02  9.300382873E+02  1.250000000E+02  0.00000E+00  9.000E+00
      25     1     1     2     0     0 -1.104080961E+02 -9.155014909E+00 -9.436025607E+00  1.672955485E+02  1.250000000E+02  0.00000E+00  9.000E+00
      21     1     1     2   502   512 -9.270731531E+00 -8.831843195E+01 -4.042266091E+02  4.138662143E+02  0.000000000E+00  0.00000E+00  9.000E+00
#rwgt            1           1   2.7484666617538959E-002           8      237384           0
</event>
<event>
      5   9999  3.19816E-02  7.64908E+01 -1.00000E+00  1.29300E-01
      21    -1     0     0   502   501  0.000000000E+00  0.000000000E+00  3.275465065E+02  3.275465065E+02  0.000000000E+00  0.00000E+00  9.000E+00
      21    -1     0     0   511   502  0.000000000E+00  0.000000000E+00 -7.248258897E+02  7.248258897E+02  0.000000000E+00  0.00000E+00  9.000E+00
      25     1     1     2     0     0  6.470778899E+00 -2.730567137E+02 -2.078331975E+02  3.652690486E+02  1.250000000E+02  0.00000E+00  9.000E+00
      25     1     1     2     0     0 -3.839142534E+01  2.035447379E+02  1.852320306E+02  3.046970086E+02  1.250000000E+02  0.00000E+00  9.000E+00
      21     1     1     2   511   501  3.192064644E+01  6.951197580E+01 -3.746782162E+02  3.824063390E+02  7.629394531E-06  0.00000E+00  9.000E+00
#rwgt            1           1   2.8073718700430551E-002           8      237455           0
</event>
<event>
      5   9999  3.19816E-02  1.63305E+01 -1.00000E+00  1.73976E-01
      21    -1     0     0   512   501  0.000000000E+00  0.000000000E+00  1.245347304E+03  1.245347304E+03  0.000000000E+00  0.00000E+00  9.000E+00
      21    -1     0     0   501   502  0.000000000E+00  0.000000000E+00 -1.756208581E+03  1.756208581E+03  0.000000000E+00  0.00000E+00  9.000E+00
      25     1     1     2     0     0 -1.229759583E+03 -4.927158545E+02 -8.767717472E+02  1.593559300E+03  1.250000000E+02  0.00000E+00  9.000E+00
      25     1     1     2     0     0  1.244856706E+03  4.864899868E+02  3.555675023E+02  1.388666258E+03  1.250000000E+02  0.00000E+00  9.000E+00
      21     1     1     2   512   502 -1.509712317E+01  6.225867627E+00  1.034296781E+01  1.933032692E+01  3.153981341E-07  0.00000E+00  9.000E+00
#rwgt            1           1   2.0825505769058485E-002           8      237505           0
</event>
<event>
      5   9999  3.19816E-02  5.60369E+01 -1.00000E+00  1.36309E-01
      21    -1     0     0   502   511  0.000000000E+00  0.000000000E+00  1.210743693E+03  1.210743693E+03  0.000000000E+00  0.00000E+00  9.000E+00
      21    -1     0     0   501   502  0.000000000E+00  0.000000000E+00 -4.755249153E+02  4.755249153E+02  0.000000000E+00  0.00000E+00  9.000E+00
      25     1     1     2     0     0  1.933478226E+02  3.010334005E+02 -3.341408726E+02  5.052520277E+02  1.250000000E+02  0.00000E+00  9.000E+00
      25     1     1     2     0     0 -2.031869972E+02 -3.561997661E+02  8.185111394E+02  9.239852350E+02  1.250000000E+02  0.00000E+00  9.000E+00
      21     1     1     2   501   511  9.839174565E+00  5.516636559E+01  2.508485109E+02  2.570313457E+02  3.814697266E-06  0.00000E+00  9.000E+00
#rwgt            1           1   3.1549643848481412E-002           8      237824           0
</event>
<event>
      5   9999  3.19816E-02  4.22631E+01 -1.00000E+00  1.43373E-01
      21    -1     0     0   502   512  0.000000000E+00  0.000000000E+00  2.034181101E+03  2.034181101E+03  0.000000000E+00  0.00000E+00  9.000E+00
      21    -1     0     0   501   502  0.000000000E+00  0.000000000E+00 -9.492012683E+02  9.492012683E+02  0.000000000E+00  0.00000E+00  9.000E+00
      25     1     1     2     0     0  7.259532344E+02  1.397814330E+02 -3.783188160E+02  8.398196676E+02  1.250000000E+02  0.00000E+00  9.000E+00
      25     1     1     2     0     0 -7.643745355E+02 -1.221753780E+02  1.125362501E+02  7.921392940E+02  1.250000000E+02  0.00000E+00  9.000E+00
      21     1     1     2   501   512  3.842130118E+01 -1.760605500E+01  1.350762398E+03  1.351423407E+03  0.000000000E+00  0.00000E+00  9.000E+00
#rwgt            1           1   2.3961527496485693E-002           8      237983           0
</event>
<event>
      5   9999  3.19816E-02  5.17885E+01 -1.00000E+00  1.38210E-01
      21    -1     0     0   502   501  0.000000000E+00  0.000000000E+00  4.690960329E+02  4.690960329E+02  0.000000000E+00  0.00000E+00  9.000E+00
      21    -1     0     0   511   502  0.000000000E+00  0.000000000E+00 -1.881811762E+02  1.881811762E+02  0.000000000E+00  0.00000E+00  9.000E+00
      25     1     1     2     0     0 -1.868803275E+02 -9.360313241E+01  4.002168933E+01  2.468046572E+02  1.250000000E+02  0.00000E+00  9.000E+00
      25     1     1     2     0     0  2.029776111E+02  1.428263836E+02  2.207631343E+02  3.549093517E+02  1.250000000E+02  0.00000E+00  9.000E+00
      21     1     1     2   511   501 -1.609728358E+01 -4.922325120E+01  2.013003301E+01  5.556320029E+01  9.536743164E-07  0.00000E+00  9.000E+00
#rwgt            1           1   2.7114185911920455E-002           8      238155           0
</event>
<event>
      5   9999  3.19816E-02  9.88590E+01 -1.00000E+00  1.24052E-01
      21    -1     0     0   512   501  0.000000000E+00  0.000000000E+00  9.586451879E+02  9.586451879E+02  0.000000000E+00  0.00000E+00  9.000E+00
      21    -1     0     0   501   502  0.000000000E+00  0.000000000E+00 -3.801700302E+02  3.801700302E+02  0.000000000E+00  0.00000E+00  9.000E+00
      25     1     1     2     0     0 -3.037124912E+02 -2.484753719E+02  5.083516167E+02  6.542382241E+02  1.250000000E+02  0.00000E+00  9.000E+00
      25     1     1     2     0     0  4.020164740E+02  2.589365425E+02 -8.412694391E+01  5.013658555E+02  1.250000000E+02  0.00000E+00  9.000E+00
      21     1     1     2   512   502 -9.830398278E+01 -1.046117059E+01  1.542504850E+02  1.832111384E+02  3.303624740E-06  0.00000E+00  9.000E+00
#rwgt            1           1   2.5291488686242768E-002           8      238241           0
</event>
<event>
      5   9999  3.19816E-02  8.49086E+01 -1.00000E+00  1.27110E-01
      21    -1     0     0   502   501  0.000000000E+00  0.000000000E+00  3.038206120E+02  3.038206120E+02  0.000000000E+00  0.00000E+00  9.000E+00
      21    -1     0     0   511   502  0.000000000E+00  0.000000000E+00 -1.273487867E+02  1.273487867E+02  0.000000000E+00  0.00000E+00  9.000E+00
      25     1     1     2     0     0  6.271250604E+01 -3.311830112E+01  1.355626126E+01  1.443552995E+02  1.250000000E+02  0.00000E+00  9.000E+00
      25     1     1     2     0     0  6.273930410E+00 -1.638260991E+01  1.573517867E+02  2.017234168E+02  1.250000000E+02  0.00000E+00  9.000E+00
      21     1     1     2   511   501 -6.898643645E+01  4.950091103E+01  5.563777387E+00  8.509068237E+01  9.329602624E-07  0.00000E+00  9.000E+00
#rwgt            1           1   2.5019980333448655E-002           8      238337           0
</event>
<event>
      5   9999  3.19816E-02  1.79016E+01 -1.00000E+00  1.70441E-01
      21    -1     0     0   502   512  0.000000000E+00  0.000000000E+00  1.721751776E+03  1.721751776E+03  0.000000000E+00  0.00000E+00  9.000E+00
      21    -1     0     0   501   502  0.000000000E+00  0.000000000E+00 -7.355930907E+01  7.355930907E+01  0.000000000E+00  0.00000E+00  9.000E+00
      25     1     1     2     0     0  1.047193613E+01 -2.604494795E+02  1.167366846E+03  1.202627933E+03  1.250000000E+02  0.00000E+00  9.000E+00
      25     1     1     2     0     0  2.409891885E+00  2.480186042E+02  2.919555590E+02  4.029666041E+02  1.250000000E+02  0.00000E+00  9.000E+00
      21     1     1     2   501   512 -1.288182801E+01  1.243087529E+01  1.888700621E+02  1.897165479E+02  0.000000000E+00  0.00000E+00  9.000E+00
#rwgt            1           1   2.9355552925928615E-002           8      238369           0
</event>
<event>
      5   9999  3.19816E-02  4.77190E+01 -1.00000E+00  1.40243E-01
      21    -1     0     0   502   511  0.000000000E+00  0.000000000E+00  2.372506971E+03  2.372506971E+03  0.000000000E+00  0.00000E+00  9.000E+00
      21    -1     0     0   501   502  0.000000000E+00  0.000000000E+00 -2.238960892E+02  2.238960892E+02  0.000000000E+00  0.00000E+00  9.000E+00
      25     1     1     2     0     0 -2.934363117E+02 -6.191290065E+02  9.312041641E+02  1.162837818E+03  1.250000000E+02  0.00000E+00  9.000E+00
      25     1     1     2     0     0  3.258572230E+02  5.841149181E+02  9.905466167E+02  1.201740724E+03  1.250000000E+02  0.00000E+00  9.000E+00
      21     1     1     2   501   511 -3.242091136E+01  3.501408839E+01  2.268601013E+02  2.318245186E+02  2.697398305E-06  0.00000E+00  9.000E+00
#rwgt            1           1   2.9399186695613831E-002           8      238608           0
</event>
<event>
      5   9999  3.19816E-02  5.41133E+01 -1.00000E+00  1.37144E-01
       2    -1     0     0   502     0  0.000000000E+00  0.000000000E+00  2.876189053E+03  2.876189053E+03  0.000000000E+00  0.00000E+00  9.000E+00
      21    -1     0     0   501   502  0.000000000E+00  0.000000000E+00 -5.510693129E+02  5.510693129E+02  0.000000000E+00  0.00000E+00  9.000E+00
      25     1     1     2     0     0  5.862976678E+02  1.041149910E+02 -2.456279864E+02  6.561577511E+02  1.250000000E+02  0.00000E+00  9.000E+00
      25     1     1     2     0     0 -6.324370247E+02 -7.584122984E+01  9.565861359E+02  1.156032230E+03  1.250000000E+02  0.00000E+00  9.000E+00
       2     1     1     2   501     0  4.613935690E+01 -2.827376114E+01  1.614161591E+03  1.615068385E+03  0.000000000E+00  0.00000E+00  9.000E+00
#rwgt            1           1   3.0381351908229187E-002           8      238748           0
</event>
<event>
      5   9999  3.19816E-02  9.79049E+01 -1.00000E+00  1.24243E-01
      21    -1     0     0   502   501  0.000000000E+00  0.000000000E+00  1.482683094E+03  1.482683094E+03  0.000000000E+00  0.00000E+00  9.000E+00
      21    -1     0     0   511   502  0.000000000E+00  0.000000000E+00 -9.398064331E+01  9.398064331E+01  0.000000000E+00  0.00000E+00  9.000E+00
      25     1     1     2     0     0  5.416148554E+01  2.787970270E+02  8.314578946E+02  8.874730865E+02  1.250000000E+02  0.00000E+00  9.000E+00
      25     1     1     2     0     0 -1.444694176E+02 -2.409836756E+02  4.295588169E+02  5.282899977E+02  1.250000000E+02  0.00000E+00  9.000E+00
      21     1     1     2   511   501  9.030793209E+01 -3.781335141E+01  1.276857388E+02  1.609006527E+02  3.814697266E-06  0.00000E+00  9.000E+00
#rwgt            1           1   2.7958481871204387E-002           8      238874           0
</event>
<event>
      5   9999  3.19816E-02  1.00172E+01 -1.00000E+00  1.95671E-01
      21    -1     0     0   502   501  0.000000000E+00  0.000000000E+00  1.671870661E+02  1.671870661E+02  0.000000000E+00  0.00000E+00  9.000E+00
      21    -1     0     0   512   502  0.000000000E+00  0.000000000E+00 -5.540996570E+02  5.540996570E+02  0.000000000E+00  0.00000E+00  9.000E+00
      25     1     1     2     0     0 -9.469153726E+01 -8.304521650E+01 -4.231751450E+02  4.588738373E+02  1.250000000E+02  0.00000E+00  9.000E+00
      25     1     1     2     0     0  9.585343535E+01  9.299482473E+01  9.271539307E+01  2.050781866E+02  1.250000000E+02  0.00000E+00  9.000E+00
      21     1     1     2   512   501 -1.161898088E+00 -9.949608237E+00 -5.645283894E+01  5.733469923E+01  1.168007728E-06  0.00000E+00  9.000E+00
#rwgt            1           1   2.8234475136635236E-002           8      238978           0
</event>
<event>
      5   9999  3.19816E-02  4.47075E+01 -1.00000E+00  1.41906E-01
       2    -1     0     0   502     0  0.000000000E+00  0.000000000E+00  6.755212809E+02  6.755212809E+02  0.000000000E+00  0.00000E+00  9.000E+00
      21    -1     0     0   501   502  0.000000000E+00  0.000000000E+00 -2.948855484E+02  2.948855484E+02  0.000000000E+00  0.00000E+00  9.000E+00
      25     1     1     2     0     0  6.038670564E+00  6.544240197E+01 -2.507958010E+02  2.878240909E+02  1.250000000E+02  0.00000E+00  9.000E+00
      25     1     1     2     0     0 -1.619256011E+01 -2.190321127E+01  1.420679897E+02  1.911812318E+02  1.250000000E+02  0.00000E+00  9.000E+00
       2     1     1     2   501     0  1.015388955E+01 -4.353919069E+01  4.893635438E+02  4.914015065E+02  7.629394531E-06  0.00000E+00  9.000E+00
#rwgt            1           1   2.6565203024907780E-002           8      239242           0
</event>
<event>
      5   9999  3.19816E-02  1.06580E+02 -1.00000E+00  1.22596E-01
      21    -1     0     0   502   501  0.000000000E+00  0.000000000E+00  2.723466777E+02  2.723466777E+02  0.000000000E+00  0.00000E+00  9.000E+00
       2    -1     0     0   501     0  0.000000000E+00  0.000000000E+00 -2.059801881E+03  2.059801881E+03  0.000000000E+00  0.00000E+00  9.000E+00
      25     1     1     2     0     0 -4.109981522E+02  3.185644085E+01 -2.819929075E+02  5.148585377E+02  1.250000000E+02  0.00000E+00  9.000E+00
      25     1     1     2     0     0  3.316143098E+02  3.926013096E+01 -5.247596718E+01  3.603999660E+02  1.250000000E+02  0.00000E+00  9.000E+00
       2     1     1     2   502     0  7.938384243E+01 -7.111657181E+01 -1.452986328E+03  1.456890055E+03  3.051757812E-05  0.00000E+00  9.000E+00
#rwgt            1           1   2.8038766257348278E-002           8      239339           0
</event>
<event>
      5   9999  3.19816E-02  3.70369E+01 -1.00000E+00  1.46944E-01
      21    -1     0     0   502   501  0.000000000E+00  0.000000000E+00  4.420302476E+02  4.420302476E+02  0.000000000E+00  0.00000E+00  9.000E+00
       2    -1     0     0   501     0  0.000000000E+00  0.000000000E+00 -4.809116480E+02  4.809116480E+02  0.000000000E+00  0.00000E+00  9.000E+00
      25     1     1     2     0     0  1.358834535E+02  2.636223994E+02  2.173444665E+02  3.883615577E+02  1.250000000E+02  0.00000E+00  9.000E+00
      25     1     1     2     0     0 -1.718789942E+02 -2.723430750E+02 -8.012111433E+01  3.546230846E+02  1.250000000E+02  0.00000E+00  9.000E+00
       2     1     1     2   502     0  3.599554064E+01  8.720675621E+00 -1.761047525E+02  1.799572533E+02  2.697398305E-06  0.00000E+00  9.000E+00
#rwgt            1           1   2.7494486788295001E-002           8      239408           0
</event>
<event>
      5   9999  3.19816E-02  5.07173E+02 -1.00000E+00  9.86766E-02
      21    -1     0     0   502   501  0.000000000E+00  0.000000000E+00  6.010519783E+02  6.010519783E+02  0.000000000E+00  0.00000E+00  9.000E+00
       1    -1     0     0   501     0  0.000000000E+00  0.000000000E+00 -2.041936097E+03  2.041936097E+03  0.000000000E+00  0.00000E+00  9.000E+00
      25     1     1     2     0     0 -5.027723383E+02 -3.048347423E+02  2.708684738E+02  6.593170515E+02  1.250000000E+02  0.00000E+00  9.000E+00
      25     1     1     2     0     0  2.785006787E+00  2.197634705E+02 -6.567429863E+01  2.612314160E+02  1.250000000E+02  0.00000E+00  9.000E+00
       1     1     1     2   502     0  4.999873315E+02  8.507127179E+01 -1.646078294E+03  1.722439608E+03  3.051757812E-05  0.00000E+00  9.000E+00
#rwgt            2          12   1.0881328931743213E-003           8      239540           0
</event>
<event>
      5   9999  3.19816E-02  4.78912E+01 -1.00000E+00  1.40152E-01
      21    -1     0     0   502   511  0.000000000E+00  0.000000000E+00  5.450524964E+02  5.450524964E+02  0.000000000E+00  0.00000E+00  9.000E+00
      21    -1     0     0   501   502  0.000000000E+00  0.000000000E+00 -5.810038315E+02  5.810038315E+02  0.000000000E+00  0.00000E+00  9.000E+00
      25     1     1     2     0     0 -3.194379474E+02  4.047098327E+02 -2.881541064E+01  5.313059183E+02  1.250000000E+02  0.00000E+00  9.000E+00
      25     1     1     2     0     0  2.723004386E+02 -4.131726715E+02 -7.060823559E+01  5.152375261E+02  1.250000000E+02  0.00000E+00  9.000E+00
      21     1     1     2   501   511  4.713750881E+01  8.462838812E+00  6.347231116E+01  7.951288362E+01  1.168007728E-06  0.00000E+00  9.000E+00
#rwgt            1           1   3.2015927408898782E-002           8      239559           0
</event>
<event>
      5   9999  3.19816E-02  6.20459E+01 -1.00000E+00  1.33930E-01
      21    -1     0     0   512   501  0.000000000E+00  0.000000000E+00  1.567335138E+03  1.567335138E+03  0.000000000E+00  0.00000E+00  9.000E+00
      21    -1     0     0   501   502  0.000000000E+00  0.000000000E+00 -8.914559514E+01  8.914559514E+01  0.000000000E+00  0.00000E+00  9.000E+00
      25     1     1     2     0     0 -2.244977208E+02  1.862639808E+02  8.271820847E+02  8.859733057E+02  1.250000000E+02  0.00000E+00  9.000E+00
      25     1     1     2     0     0  1.723124148E+02 -2.198257570E+02  3.578072346E+02  4.708141341E+02  1.250000000E+02  0.00000E+00  9.000E+00
      21     1     1     2   512   502  5.218530599E+01  3.356177627E+01  2.932002237E+02  2.996932935E+02  0.000000000E+00  0.00000E+00  9.000E+00
#rwgt            2          11   1.8144826203861720E-003           8      239714           0
</event>
<event>
      5   9999  3.19816E-02  3.10916E+01 -1.00000E+00  1.51970E-01
      21    -1     0     0   511   501  0.000000000E+00  0.000000000E+00  4.375416989E+02  4.375416989E+02  0.000000000E+00  0.00000E+00  9.000E+00
      21    -1     0     0   501   502  0.000000000E+00  0.000000000E+00 -3.006563414E+02  3.006563414E+02  0.000000000E+00  0.00000E+00  9.000E+00
      25     1     1     2     0     0  1.743860426E+02 -2.627803324E+01  1.311060118E+02  2.528137916E+02  1.250000000E+02  0.00000E+00  9.000E+00
      25     1     1     2     0     0 -1.996587703E+02  8.167908784E+00 -1.802814538E+02  2.967435625E+02  1.250000000E+02  0.00000E+00  9.000E+00
      21     1     1     2   511   502  2.527272769E+01  1.811012446E+01  1.860607995E+02  1.886406862E+02  3.814697266E-06  0.00000E+00  9.000E+00
#rwgt            1           1   3.1056458453704736E-002           8      239749           0
</event>
<event>
      5   9999  3.19816E-02  4.23280E+01 -1.00000E+00  1.43333E-01
      21    -1     0     0   502   501  0.000000000E+00  0.000000000E+00  1.405069895E+02  1.405069895E+02  0.000000000E+00  0.00000E+00  9.000E+00
      21    -1     0     0   501   512  0.000000000E+00  0.000000000E+00 -1.062142817E+03  1.062142817E+03  0.000000000E+00  0.00000E+00  9.000E+00
      25     1     1     2     0     0  2.590651511E+02  1.689789943E+02 -2.016988683E+02  3.898411041E+02  1.250000000E+02  0.00000E+00  9.000E+00
      25     1     1     2     0     0 -2.568427479E+02 -1.267094129E+02 -5.059168952E+02  5.946430672E+02  1.250000000E+02  0.00000E+00  9.000E+00
      21     1     1     2   502   512 -2.222403236E+00 -4.226958137E+01 -2.140200643E+02  2.181656355E+02  2.697398305E-06  0.00000E+00  9.000E+00
#rwgt            1           1   2.7296207158703078E-002           8      239853           0
</event>
<event>
      5   9999  3.19816E-02  4.48943E+01 -1.00000E+00  1.41798E-01
      21    -1     0     0   511   501  0.000000000E+00  0.000000000E+00  2.474720556E+02  2.474720556E+02  0.000000000E+00  0.00000E+00  9.000E+00
      21    -1     0     0   501   502  0.000000000E+00  0.000000000E+00 -2.190293571E+03  2.190293571E+03  0.000000000E+00  0.00000E+00  9.000E+00
      25     1     1     2     0     0  4.000591367E+02  4.502829464E+02 -6.459970415E+02  8.920421640E+02  1.250000000E+02  0.00000E+00  9.000E+00
      25     1     1     2     0     0 -4.414527223E+02 -4.676630951E+02 -1.334806760E+03  1.486917403E+03  1.250000000E+02  0.00000E+00  9.000E+00
      21     1     1     2   511   502  4.139358556E+01  1.738014865E+01  3.798228674E+01  5.880605920E+01  1.168007728E-06  0.00000E+00  9.000E+00
#rwgt            2          11   4.2374638067335683E-003           8      239907           0
</event>
<event>
      5   9999  3.19816E-02  1.09507E+02 -1.00000E+00  1.22080E-01
       2    -1     0     0   502     0  0.000000000E+00  0.000000000E+00  1.817785576E+03  1.817785576E+03  0.000000000E+00  0.00000E+00  9.000E+00
      21    -1     0     0   501   502  0.000000000E+00  0.000000000E+00 -1.354857910E+02  1.354857910E+02  0.000000000E+00  0.00000E+00  9.000E+00
      25     1     1     2     0     0  3.170918612E+02 -5.099841026E+01  8.740990500E+02  9.395862044E+02  1.250000000E+02  0.00000E+00  9.000E+00
      25     1     1     2     0     0 -3.925631394E+02 -2.834778625E+01  3.461808984E+02  5.388651313E+02  1.250000000E+02  0.00000E+00  9.000E+00
       2     1     1     2   501     0  7.547127819E+01  7.934619650E+01  4.620198369E+02  4.748200316E+02  7.629394531E-06  0.00000E+00  9.000E+00
#rwgt            1           1   3.0132235534717708E-002           8      239927           0
</event>
<event>
      5   9999  3.19816E-02  1.12192E+02 -1.00000E+00  1.21622E-01
      21    -1     0     0   502   511  0.000000000E+00  0.000000000E+00  2.850529566E+02  2.850529566E+02  0.000000000E+00  0.00000E+00  9.000E+00
      21    -1     0     0   501   502  0.000000000E+00  0.000000000E+00 -1.108973611E+03  1.108973611E+03  0.000000000E+00  0.00000E+00  9.000E+00
      25     1     1     2     0     0 -4.692844664E+01 -4.324812571E+02 -4.080858414E+02  6.094270841E+02  1.250000000E+02  0.00000E+00  9.000E+00
      25     1     1     2     0     0  1.384293277E+02  3.675615800E+02 -4.973316508E+02  6.459318577E+02  1.250000000E+02  0.00000E+00  9.000E+00
      21     1     1     2   501   511 -9.150088103E+01  6.491967716E+01  8.149683816E+01  1.386676254E+02  2.336015456E-06  0.00000E+00  9.000E+00
#rwgt            1           1   3.2740519248111416E-002           8      240000           0
</event>
<event>
      5   9999  3.19816E-02  2.23840E+01 -1.00000E+00  1.62432E-01
      21    -1     0     0   502   501  0.000000000E+00  0.000000000E+00  8.722971143E+01  8.722971143E+01  0.000000000E+00  0.00000E+00  9.000E+00
      21    -1     0     0   501   512  0.000000000E+00  0.000000000E+00 -8.938402307E+02  8.938402307E+02  0.000000000E+00  0.00000E+00  9.000E+00
      25     1     1     2     0     0  1.359066067E+02 -3.031602880E+00 -7.026662956E+02  7.265292281E+02  1.250000000E+02  0.00000E+00  9.000E+00
      25     1     1     2     0     0 -1.442130060E+02  2.381729508E+01 -5.392862347E+01  1.997447148E+02  1.250000000E+02  0.00000E+00  9.000E+00
      21     1     1     2   502   512  8.306399259E+00 -2.078569220E+01 -5.001560025E+01  5.479599928E+01  6.743495762E-07  0.00000E+00  9.000E+00
#rwgt            1           1   2.9078494938734007E-002           8      240038           0
</event>
<event>
      5   9999  3.19816E-02  1.07892E+01 -1.00000E+00  1.92019E-01
      21    -1     0     0   511   501  0.000000000E+00  0.000000000E+00  4.119087745E+02  4.119087745E+02  0.000000000E+00  0.00000E+00  9.000E+00
      21    -1     0     0   501   502  0.000000000E+00  0.000000000E+00 -7.648687937E+01  7.648687937E+01  0.000000000E+00  0.00000E+00  9.000E+00
      25     1     1     2     0     0 -1.000055381E+02  7.619639034E-01  6.939703955E+01  1.744781858E+02  1.250000000E+02  0.00000E+00  9.000E+00
      25     1     1     2     0     0  8.980869273E+01  2.763960190E+00  2.337591745E+02  2.798956814E+02  1.250000000E+02  0.00000E+00  9.000E+00
      21     1     1     2   511   502  1.019684532E+01 -3.525924093E+00  3.226568106E+01  3.402178669E+01  0.000000000E+00  0.00000E+00  9.000E+00
#rwgt            1           1   3.4424613383605848E-002           8      240233           0
</event>
<event>
      5   9999  3.19816E-02  2.88256E+01 -1.00000E+00  1.54254E-01
      21    -1     0     0   502   501  0.000000000E+00  0.000000000E+00  6.016788709E+02  6.016788709E+02  0.000000000E+00  0.00000E+00  9.000E+00
      21    -1     0     0   501   512  0.000000000E+00  0.000000000E+00 -1.683823724E+02  1.683823724E+02  0.000000000E+00  0.00000E+00  9.000E+00
      25     1     1     2     0     0  9.444869361E+01 -1.332645404E+02  3.836645511E+02  4.353199756E+02  1.250000000E+02  0.00000E+00  9.000E+00
      25     1     1     2     0     0 -6.644372336E+01  1.264355019E+02  1.426021480E+02  2.374048802E+02  1.250000000E+02  0.00000E+00  9.000E+00
      21     1     1     2   502   512 -2.800497025E+01  6.829038538E+00 -9.297020057E+01  9.733638744E+01  1.907348633E-06  0.00000E+00  9.000E+00
#rwgt            1           1   3.2605860628633201E-002           8      240401           0
</event>
<event>
      5   9999  3.19816E-02  4.31732E+01 -1.00000E+00  1.42814E-01
      21    -1     0     0   511   501  0.000000000E+00  0.000000000E+00  1.725825514E+02  1.725825514E+02  0.000000000E+00  0.00000E+00  9.000E+00
      21    -1     0     0   501   502  0.000000000E+00  0.000000000E+00 -1.750674582E+03  1.750674582E+03  0.000000000E+00  0.00000E+00  9.000E+00
      25     1     1     2     0     0 -3.853144708E+02  1.430264239E+02 -1.373707096E+03  1.439312330E+03  1.250000000E+02  0.00000E+00  9.000E+00
      25     1     1     2     0     0  3.574741909E+02 -1.100288415E+02 -1.733676710E+02  4.307847403E+02  1.250000000E+02  0.00000E+00  9.000E+00
      21     1     1     2   511   502  2.784027991E+01 -3.299758237E+01 -3.101726389E+01  5.316006290E+01  3.371747881E-07  0.00000E+00  9.000E+00
#rwgt            1           1   2.8710489851809410E-002           8      240512           0
</event>
<event>
      5   9999  3.19816E-02  8.32450E+01 -1.00000E+00  1.27519E-01
      21    -1     0     0   512   501  0.000000000E+00  0.000000000E+00  1.480701618E+02  1.480701618E+02  0.000000000E+00  0.00000E+00  9.000E+00
      21    -1     0     0   501   502  0.000000000E+00  0.000000000E+00 -3.322279863E+02  3.322279863E+02  0.000000000E+00  0.00000E+00  9.000E+00
      25     1     1     2     0     0 -1.738634059E+00  5.253655143E+01 -1.600161137E+02  2.097457240E+02  1.250000000E+02  0.00000E+00  9.000E+00
      25     1     1     2     0     0 -7.920837066E+01 -7.196111254E+01 -6.609902292E+01  1.773314651E+02  1.250000000E+02  0.00000E+00  9.000E+00
      21     1     1     2   512   502  8.094700471E+01  1.942456110E+01  4.195731207E+01  9.322095892E+01  1.966049969E-06  0.00000E+00  9.000E+00
#rwgt            1           1   6.0023383619167599E-002           8      240670           0
</event>
<event>
      5   9999  3.19816E-02  2.78865E+02 -1.00000E+00  1.06633E-01
      21    -1     0     0   502   501  0.000000000E+00  0.000000000E+00  1.980056091E+03  1.980056091E+03  0.000000000E+00  0.00000E+00  9.000E+00
       1    -1     0     0   501     0  0.000000000E+00  0.000000000E+00 -5.578448798E+02  5.578448798E+02  0.000000000E+00  0.00000E+00  9.000E+00
      25     1     1     2     0     0  5.808976546E+02 -1.494845152E+02  4.171624742E+02  7.412403358E+02  1.250000000E+02  0.00000E+00  9.000E+00
      25     1     1     2     0     0 -8.559173694E+02  1.956345534E+02  1.527529474E+02  8.999032641E+02  1.250000000E+02  0.00000E+00  9.000E+00
       1     1     1     2   502     0  2.750197148E+02 -4.615003819E+01  8.522957901E+02  8.967573715E+02  0.000000000E+00  0.00000E+00  9.000E+00
#rwgt            2          12   1.1078283882193697E-005           8      240797           0
</event>
<event>
      5   9999  3.19816E-02  5.75550E+00 -1.00000E+00  2.28315E-01
      21    -1     0     0   502   501  0.000000000E+00  0.000000000E+00  7.318102971E+01  7.318102971E+01  0.000000000E+00  0.00000E+00  9.000E+00
      21    -1     0     0   511   502  0.000000000E+00  0.000000000E+00 -1.230765906E+03  1.230765906E+03  0.000000000E+00  0.00000E+00  9.000E+00
      25     1     1     2     0     0  2.236713410E+02 -4.011776382E+01 -2.870026845E+02  3.868253413E+02  1.250000000E+02  0.00000E+00  9.000E+00
      25     1     1     2     0     0 -2.257245849E+02  4.549456722E+01 -7.159928306E+02  7.624251290E+02  1.250000000E+02  0.00000E+00  9.000E+00
      21     1     1     2   511   501  2.053243899E+00 -5.376803404E+00 -1.545893609E+02  1.546964652E+02  1.907348633E-06  0.00000E+00  9.000E+00
#rwgt            1           1   2.9256842365912094E-002           8      240831           0
</event>
<event>
      5   9999  3.19816E-02  1.39425E+02 -1.00000E+00  1.17666E-01
      21    -1     0     0   512   501  0.000000000E+00  0.000000000E+00  1.507441238E+03  1.507441238E+03  0.000000000E+00  0.00000E+00  9.000E+00
      21    -1     0     0   501   502  0.000000000E+00  0.000000000E+00 -1.663046240E+02  1.663046240E+02  0.000000000E+00  0.00000E+00  9.000E+00
      25     1     1     2     0     0 -1.921965414E+01 -1.317031425E+02  7.299368082E+02  7.524279745E+02  1.250000000E+02  0.00000E+00  9.000E+00
      25     1     1     2     0     0 -1.160620805E+02  1.654406397E+02 -5.231175740E+01  2.433157039E+02  1.250000000E+02  0.00000E+00  9.000E+00
      21     1     1     2   512   502  1.352817347E+02 -3.373749726E+01  6.635115629E+02  6.780021833E+02  7.629394531E-06  0.00000E+00  9.000E+00
#rwgt            1           1   2.8927200162075145E-002           8      241164           0
</event>
<event>
      5   9999  3.19816E-02  1.11299E+02 -1.00000E+00  1.21772E-01
      21    -1     0     0   502   501  0.000000000E+00  0.000000000E+00  2.179603020E+02  2.179603020E+02  0.000000000E+00  0.00000E+00  9.000E+00
       1    -1     0     0   501     0  0.000000000E+00  0.000000000E+00 -1.794976232E+03  1.794976232E+03  0.000000000E+00  0.00000E+00  9.000E+00
      25     1     1     2     0     0 -4.341946127E+02  2.251779706E+02 -9.692416635E+02  1.092833236E+03  1.250000000E+02  0.00000E+00  9.000E+00
      25     1     1     2     0     0  3.501454749E+02 -1.522171252E+02 -1.192594107E+02  4.190700584E+02  1.250000000E+02  0.00000E+00  9.000E+00
       1     1     1     2   502     0  8.404913782E+01 -7.296084534E+01 -4.885148556E+02  5.010332390E+02  5.394796609E-06  0.00000E+00  9.000E+00
#rwgt            1           1   2.8472352140518305E-002           8      241214           0
</event>
<event>
      5   9999  3.19816E-02  5.30345E+01 -1.00000E+00  1.37631E-01
      21    -1     0     0   502   511  0.000000000E+00  0.000000000E+00  3.982785754E+02  3.982785754E+02  0.000000000E+00  0.00000E+00  9.000E+00
      21    -1     0     0   501   502  0.000000000E+00  0.000000000E+00 -8.357857637E+02  8.357857637E+02  0.000000000E+00  0.00000E+00  9.000E+00
      25     1     1     2     0     0 -4.679981191E+02  1.026854941E+02 -3.870745286E+02  6.285047660E+02  1.250000000E+02  0.00000E+00  9.000E+00
      25     1     1     2     0     0  4.654197758E+02 -4.971366691E+01 -1.375056400E+02  5.036068083E+02  1.250000000E+02  0.00000E+00  9.000E+00
      21     1     1     2   501   511  2.578343333E+00 -5.297182724E+01  8.707298029E+01  1.019527647E+02  1.348699152E-06  0.00000E+00  9.000E+00
#rwgt            1           1   2.3835768678503667E-002           8      241272           0
</event>
<event>
      5   9999  3.19816E-02  5.29140E+01 -1.00000E+00  1.37686E-01
      21    -1     0     0   502   512  0.000000000E+00  0.000000000E+00  1.314715946E+02  1.314715946E+02  0.000000000E+00  0.00000E+00  9.000E+00
      21    -1     0     0   501   502  0.000000000E+00  0.000000000E+00 -9.448397061E+02  9.448397061E+02  0.000000000E+00  0.00000E+00  9.000E+00
      25     1     1     2     0     0  8.006992209E+01  2.360694242E+02 -1.708480156E+02  3.270382392E+02  1.250000000E+02  0.00000E+00  9.000E+00
      25     1     1     2     0     0 -6.931314228E+01 -2.878784945E+02 -6.027164551E+02  6.830596347E+02  1.250000000E+02  0.00000E+00  9.000E+00
      21     1     1     2   501   512 -1.075677981E+01  5.180907021E+01 -3.980364072E+01  6.621342675E+01  6.743495762E-07  0.00000E+00  9.000E+00
#rwgt            1           1   2.7231153802555527E-002           8      241368           0
</event>
<event>
      5   9999  3.19816E-02  4.86903E+01 -1.00000E+00  1.39736E-01
      21    -1     0     0   502   501  0.000000000E+00  0.000000000E+00  3.293776755E+03  3.293776755E+03  0.000000000E+00  0.00000E+00  9.000E+00
      21    -1     0     0   501   511  0.000000000E+00  0.000000000E+00 -4.039204931E+02  4.039204931E+02  0.000000000E+00  0.00000E+00  9.000E+00
      25     1     1     2     0     0  8.765999517E+00 -9.554028969E+01  1.965635862E+03  1.971941716E+03  1.250000000E+02  0.00000E+00  9.000E+00
      25     1     1     2     0     0 -2.966758450E+01  1.395160569E+02  1.316689035E+03  1.330278132E+03  1.250000000E+02  0.00000E+00  9.000E+00
      21     1     1     2   502   511  2.090158498E+01 -4.397576722E+01 -3.924686347E+02  3.954773996E+02  5.394796609E-06  0.00000E+00  9.000E+00
#rwgt            1           1   1.5779869829112930E-002           8      241440           0
</event>
<event>
      5   9999  3.19816E-02  3.34082E+02 -1.00000E+00  1.04096E-01
      21    -1     0     0   502   501  0.000000000E+00  0.000000000E+00  8.176460339E+02  8.176460339E+02  0.000000000E+00  0.00000E+00  9.000E+00
      21    -1     0     0   512   502  0.000000000E+00  0.000000000E+00 -5.157525672E+02  5.157525672E+02  0.000000000E+00  0.00000E+00  9.000E+00
      25     1     1     2     0     0  4.068147234E+02 -5.930330563E+01  4.968882932E+01  4.325610719E+02  1.250000000E+02  0.00000E+00  9.000E+00
      25     1     1     2     0     0 -1.902876602E+02  3.137180311E+02  3.803093040E+02  5.430364291E+02  1.250000000E+02  0.00000E+00  9.000E+00
      21     1     1     2   512   501 -2.165270631E+02 -2.544147254E+02 -1.281046666E+02  3.578011000E+02  3.814697266E-06  0.00000E+00  9.000E+00
#rwgt            2          11   3.1293789601576048E-003           8      241697           0
</event>
<event>
      5   9999  3.19816E-02  1.87716E+02 -1.00000E+00  1.12659E-01
       2    -1     0     0   502     0  0.000000000E+00  0.000000000E+00  1.002117750E+03  1.002117750E+03  0.000000000E+00  0.00000E+00  9.000E+00
      21    -1     0     0   501   502  0.000000000E+00  0.000000000E+00 -1.512022475E+02  1.512022475E+02  0.000000000E+00  0.00000E+00  9.000E+00
      25     1     1     2     0     0  1.289386682E+02 -1.411722034E+02  1.334982166E+01  2.288186813E+02  1.250000000E+02  0.00000E+00  9.000E+00
      25     1     1     2     0     0 -9.506011899E+01 -4.346173657E+01  1.901180622E+02  2.503901483E+02  1.250000000E+02  0.00000E+00  9.000E+00
       2     1     1     2   501     0 -3.387854924E+01  1.846339400E+02  6.474476183E+02  6.741111677E+02  7.629394531E-06  0.00000E+00  9.000E+00
#rwgt            1           1   2.6733471624745250E-002           8      241717           0
</event>
<event>
      5   9999  3.19816E-02  1.38872E+02 -1.00000E+00  1.17736E-01
      21    -1     0     0   502   511  0.000000000E+00  0.000000000E+00  8.186015252E+02  8.186015252E+02  0.000000000E+00  0.00000E+00  9.000E+00
      21    -1     0     0   501   502  0.000000000E+00  0.000000000E+00 -7.893592228E+02  7.893592228E+02  0.000000000E+00  0.00000E+00  9.000E+00
      25     1     1     2     0     0 -4.610051371E+02 -1.963388165E+02 -1.780875387E+02  5.462735933E+02  1.250000000E+02  0.00000E+00  9.000E+00
      25     1     1     2     0     0  3.638600372E+02  9.710021811E+01 -3.241473949E+02  5.123661900E+02  1.250000000E+02  0.00000E+00  9.000E+00
      21     1     1     2   501   511  9.714509985E+01  9.923859837E+01  5.314772360E+02  5.493209647E+02  7.629394531E-06  0.00000E+00  9.000E+00
#rwgt            1           1   2.9146995460617792E-002           8      241772           0
</event>
<event>
      5   9999  3.19816E-02  2.26226E+02 -1.00000E+00  1.09734E-01
      21    -1     0     0   502   501  0.000000000E+00  0.000000000E+00  1.347229245E+02  1.347229245E+02  0.000000000E+00  0.00000E+00  9.000E+00
       2    -1     0     0   501     0  0.000000000E+00  0.000000000E+00 -3.153799076E+03  3.153799076E+03  0.000000000E+00  0.00000E+00  9.000E+00
      25     1     1     2     0     0  3.320575965E+02  3.186362641E+01 -1.981129880E+02  4.076166019E+02  1.250000000E+02  0.00000E+00  9.000E+00
      25     1     1     2     0     0 -1.411201839E+02 -1.531937115E+02 -2.301951235E+03  2.314732751E+03  1.250000000E+02  0.00000E+00  9.000E+00
       2     1     1     2   502     0 -1.909374127E+02  1.213300851E+02 -5.190119283E+02  5.661726475E+02  0.000000000E+00  0.00000E+00  9.000E+00
#rwgt            1           1   7.9958241533455807E-002           8      241845           0
</event>
<event>
      5   9999  3.19816E-02  2.08394E+01 -1.00000E+00  1.64909E-01
      21    -1     0     0   511   501  0.000000000E+00  0.000000000E+00  6.361907148E+02  6.361907148E+02  0.000000000E+00  0.00000E+00  9.000E+00
      21    -1     0     0   501   502  0.000000000E+00  0.000000000E+00 -1.363889542E+02  1.363889542E+02  0.000000000E+00  0.00000E+00  9.000E+00
      25     1     1     2     0     0 -1.181321071E+02 -9.336253098E+01 -3.607641537E+01  1.989931272E+02  1.250000000E+02  0.00000E+00  9.000E+00
      25     1     1     2     0     0  1.001247820E+02  8.287358182E+01  4.409497243E+02  4.763975880E+02  1.250000000E+02  0.00000E+00  9.000E+00
      21     1     1     2   511   502  1.800732513E+01  1.048894916E+01  9.492845165E+01  9.718895382E+01  1.907348633E-06  0.00000E+00  9.000E+00
#rwgt            1           1   2.9067747562884626E-002           8      241905           0
</event>
<event>
      5   9999  3.19816E-02  1.09114E+02 -1.00000E+00  1.22148E-01
      21    -1     0     0   502   501  0.000000000E+00  0.000000000E+00  2.695818799E+02  2.695818799E+02  0.000000000E+00  0.00000E+00  9.000E+00
      21    -1     0     0   501   512  0.000000000E+00  0.000000000E+00 -1.239547519E+03  1.239547519E+03  0.000000000E+00  0.00000E+00  9.000E+00
      25     1     1     2     0     0 -4.402493791E+02 -1.982492212E+02 -1.406045271E+02  5.181861659E+02  1.250000000E+02  0.00000E+00  9.000E+00
      25     1     1     2     0     0  3.385886816E+02  2.378841075E+02 -6.377467456E+02  7.704395210E+02  1.250000000E+02  0.00000E+00  9.000E+00
      21     1     1     2   502   512  1.016606975E+02 -3.963488630E+01 -1.916143666E+02  2.205037123E+02  2.697398305E-06  0.00000E+00  9.000E+00
#rwgt            1           1   2.3422963937906775E-002           8      242022           0
</event>
<event>
      5   9999  3.19816E-02  2.16590E+02 -1.00000E+00  1.10402E-01
      21    -1     0     0   502   511  0.000000000E+00  0.000000000E+00  2.584682092E+03  2.584682092E+03  0.000000000E+00  0.00000E+00  9.000E+00
      21    -1     0     0   501   502  0.000000000E+00  0.000000000E+00 -1.793013141E+02  1.793013141E+02  0.000000000E+00  0.00000E+00  9.000E+00
      25     1     1     2     0     0  4.256253223E+02 -4.478997861E+02  9.544802413E+02  1.143865667E+03  1.250000000E+02  0.00000E+00  9.000E+00
      25     1     1     2     0     0 -3.928003895E+02  2.338114481E+02  7.560989941E+02  8.923399734E+02  1.250000000E+02  0.00000E+00  9.000E+00
      21     1     1     2   501   511 -3.282493279E+01  2.140883381E+02  6.948015427E+02  7.277777658E+02  7.629394531E-06  0.00000E+00  9.000E+00
#rwgt            1           1   3.2573633900872818E-002           8      242111           0
</event>
<event>
      5   9999  3.19816E-02  1.28087E+02 -1.00000E+00  1.19178E-01
      21    -1     0     0   502   501  0.000000000E+00  0.000000000E+00  1.940089422E+02  1.940089422E+02  0.000000000E+00  0.00000E+00  9.000E+00
       2    -1     0     0   501     0  0.000000000E+00  0.000000000E+00 -1.591689726E+03  1.591689726E+03  0.000000000E+00  0.00000E+00  9.000E+00
      25     1     1     2     0     0  5.233328996E+01 -1.788044645E+02 -1.380763692E+03  1.398872111E+03  1.250000000E+02  0.00000E+00  9.000E+00
      25     1     1     2     0     0  7.434655793E+01  1.977352090E+02 -5.817040033E+01  2.522606173E+02  1.250000000E+02  0.00000E+00  9.000E+00
       2     1     1     2   502     0 -1.266798479E+02 -1.893074450E+01  4.125330790E+01  1.345659406E+02  3.337860107E-06  0.00000E+00  9.000E+00
#rwgt            1           1   3.6072631273656577E-002           8      242155           0
</event>
<event>
      5   9999  3.19816E-02  1.74317E+01 -1.00000E+00  1.71449E-01
      21    -1     0     0   502   501  0.000000000E+00  0.000000000E+00  3.359264968E+02  3.359264968E+02  0.000000000E+00  0.00000E+00  9.000E+00
      21    -1     0     0   501   511  0.000000000E+00  0.000000000E+00 -3.067084829E+02  3.067084829E+02  0.000000000E+00  0.00000E+00  9.000E+00
      25     1     1     2     0     0  1.295755726E+02  5.386967473E+01  1.060830454E+02  2.158017224E+02  1.250000000E+02  0.00000E+00  9.000E+00
      25     1     1     2     0     0 -1.466245898E+02 -5.750236090E+01  1.167000624E+02  2.324848305E+02  1.250000000E+02  0.00000E+00  9.000E+00
      21     1     1     2   502   511  1.704901728E+01  3.632686172E+00 -1.935650939E+02  1.943484268E+02  2.697398305E-06  0.00000E+00  9.000E+00
#rwgt            1           1   2.9443318424054208E-002           8      242293           0
</event>
<event>
      5   9999  3.19816E-02  9.47681E+01 -1.00000E+00  1.24887E-01
      21    -1     0     0   502   512  0.000000000E+00  0.000000000E+00  6.153837557E+01  6.153837557E+01  0.000000000E+00  0.00000E+00  9.000E+00
      21    -1     0     0   501   502  0.000000000E+00  0.000000000E+00 -2.361676404E+03  2.361676404E+03  0.000000000E+00  0.00000E+00  9.000E+00
      25     1     1     2     0     0  8.199221828E+01 -2.445046808E+02 -1.153524598E+03  1.188591293E+03  1.250000000E+02  0.00000E+00  9.000E+00
      25     1     1     2     0     0  1.167137195E+01  2.300783038E+02 -1.096560481E+03  1.127449394E+03  1.250000000E+02  0.00000E+00  9.000E+00
      21     1     1     2   501   512 -9.366359023E+01  1.442637702E+01 -5.005294916E+01  1.071740930E+02  1.348699152E-06  0.00000E+00  9.000E+00
#rwgt            1           1   7.2458696780684007E-002           8      242447           0
</event>
<event>
      5   9999  3.19816E-02  1.20154E+02 -1.00000E+00  1.20345E-01
      21    -1     0     0   511   501  0.000000000E+00  0.000000000E+00  8.954489576E+02  8.954489576E+02  0.000000000E+00  0.00000E+00  9.000E+00
      21    -1     0     0   501   502  0.000000000E+00  0.000000000E+00 -4.208945913E+02  4.208945913E+02  0.000000000E+00  0.00000E+00  9.000E+00
      25     1     1     2     0     0 -2.959201356E+02  3.136826868E+02  1.081555850E+02  4.618313385E+02  1.250000000E+02  0.00000E+00  9.000E+00
      25     1     1     2     0     0  4.156468584E+02 -3.238024117E+02  8.448743977E+01  5.480633542E+02  1.250000000E+02  0.00000E+00  9.000E+00
      21     1     1     2   511   502 -1.197267228E+02  1.011972493E+01  2.819113416E+02  3.064488562E+02  3.814697266E-06  0.00000E+00  9.000E+00
#rwgt            1           1   2.5482598183041202E-002           8      242495           0
</event>
<event>
      5   9999  3.19816E-02  1.66313E+02 -1.00000E+00  1.14644E-01
      21    -1     0     0   512   501  0.000000000E+00  0.000000000E+00  1.156913705E+03  1.156913705E+03  0.000000000E+00  0.00000E+00  9.000E+00
      21    -1     0     0   501   502  0.000000000E+00  0.000000000E+00 -1.012638342E+03  1.012638342E+03  0.000000000E+00  0.00000E+00  9.000E+00
      25     1     1     2     0     0  4.006694348E+02  4.067877323E+02  4.610573369E+02  7.444535735E+02  1.250000000E+02  0.00000E+00  9.000E+00
      25     1     1     2     0     0 -3.557730656E+02 -5.669263730E+02 -7.187677592E+02  9.900667040E+02  1.250000000E+02  0.00000E+00  9.000E+00
      21     1     1     2   512   502 -4.489636925E+01  1.601386407E+02  4.019857858E+02  4.350317692E+02  5.394796609E-06  0.00000E+00  9.000E+00
#rwgt            1           1   2.9501552232243169E-002           8      242549           0
</event>
<event>
      5   9999  3.19816E-02  1.62308E+01 -1.00000E+00  1.74217E-01
      21    -1     0     0   502   511  0.000000000E+00  0.000000000E+00  1.684932059E+02  1.684932059E+02  0.000000000E+00  0.00000E+00  9.000E+00
      21    -1     0     0   501   502  0.000000000E+00  0.000000000E+00 -7.236593292E+02  7.236593292E+02  0.000000000E+00  0.00000E+00  9.000E+00
      25     1     1     2     0     0 -1.915739172E+02 -1.968432215E+02 -6.882603568E+01  3.095316507E+02  1.250000000E+02  0.00000E+00  9.000E+00
      25     1     1     2     0     0  1.968844236E+02  1.815057832E+02 -4.827126438E+02  5.659896837E+02  1.250000000E+02  0.00000E+00  9.000E+00
      21     1     1     2   501   511 -5.310506445E+00  1.533743824E+01 -3.627443834E+00  1.663120077E+01  1.192092896E-07  0.00000E+00  9.000E+00
#rwgt            1           1   2.9646841928681760E-002           8      242645           0
</event>
<event>
      5   9999  3.19816E-02  1.04535E+01 -1.00000E+00  1.93557E-01
      21    -1     0     0   502   512  0.000000000E+00  0.000000000E+00  2.727761155E+02  2.727761155E+02  0.000000000E+00  0.00000E+00  9.000E+00
      21    -1     0     0   501   502  0.000000000E+00  0.000000000E+00 -1.610956658E+02  1.610956658E+02  0.000000000E+00  0.00000E+00  9.000E+00
      25     1     1     2     0     0  1.515681907E+01 -1.490968938E+02 -1.746552585E+01  1.959327882E+02  1.250000000E+02  0.00000E+00  9.000E+00
      25     1     1     2     0     0 -2.112157885E+01  1.405121977E+02  1.242882577E+02  2.264119471E+02  1.250000000E+02  0.00000E+00  9.000E+00
      21     1     1     2   501   512  5.964759780E+00  8.584696118E+00  4.857717800E+00  1.152704597E+01  2.384185791E-07  0.00000E+00  9.000E+00
#rwgt            1           1   2.7919223512919755E-002           8      242816           0
</event>
<event>
      5   9999  3.19816E-02  1.03390E+02 -1.00000E+00  1.23180E-01
      21    -1     0     0   502   501  0.000000000E+00  0.000000000E+00  6.017875713E+02  6.017875713E+02  0.000000000E+00  0.00000E+00  9.000E+00
      21    -1     0     0   511   502  0.000000000E+00  0.000000000E+00 -8.674899791E+02  8.674899791E+02  0.000000000E+00  0.00000E+00  9.000E+00
      25     1     1     2     0     0  4.072164051E+02 -1.387744870E+02  3.766794649E+02  5.853169894E+02  1.250000000E+02  0.00000E+00  9.000E+00
      25     1     1     2     0     0 -4.176907204E+02  2.416325543E+02 -4.837886192E+02  6.946425392E+02  1.250000000E+02  0.00000E+00  9.000E+00
      21     1     1     2   511   501  1.047431529E+01 -1.028580673E+02 -1.585932534E+02  1.893180217E+02  3.303624740E-06  0.00000E+00  9.000E+00
#rwgt            1           1   2.9214173656761794E-002           8      243114           0
</event>
<event>
      5   9999  3.19816E-02  1.46407E+01 -1.00000E+00  1.78381E-01
      21    -1     0     0   502   501  0.000000000E+00  0.000000000E+00  4.403499182E+01  4.403499182E+01  0.000000000E+00  0.00000E+00  9.000E+00
      21    -1     0     0   501   512  0.000000000E+00  0.000000000E+00 -1.744793042E+03  1.744793042E+03  0.000000000E+00  0.00000E+00  9.000E+00
      25     1     1     2     0     0  3.086800435E+01  2.097918690E+02 -4.891262843E+02  5.475718985E+02  1.250000000E+02  0.00000E+00  9.000E+00
      25     1     1     2     0     0 -2.126679880E+01 -2.208448273E+02 -1.157284005E+03  1.184970879E+03  1.250000000E+02  0.00000E+00  9.000E+00
      21     1     1     2   502   512 -9.601205553E+00  1.105295830E+01 -5.434775992E+01  5.628525601E+01  1.168007728E-06  0.00000E+00  9.000E+00
#rwgt            1           1   2.2228384911625005E-002           8      243202           0
</event>
<event>
      5   9999  3.19816E-02  5.13937E+00 -1.00000E+00  2.36449E-01
      21    -1     0     0   502   501  0.000000000E+00  0.000000000E+00  1.382850936E+02  1.382850936E+02  0.000000000E+00  0.00000E+00  9.000E+00
      21    -1     0     0   501   511  0.000000000E+00  0.000000000E+00 -1.851066662E+03  1.851066662E+03  0.000000000E+00  0.00000E+00  9.000E+00
      25     1     1     2     0     0  6.295432660E+01  6.026489209E+01  9.158063997E+01  1.777839084E+02  1.250000000E+02  0.00000E+00  9.000E+00
      25     1     1     2     0     0 -6.668305731E+01 -6.380179670E+01 -1.702317677E+03  1.709393978E+03  1.250000000E+02  0.00000E+00  9.000E+00
      21     1     1     2   502   511  3.728730703E+00  3.536904614E+00 -1.020445316E+02  1.021738692E+02  1.348699152E-06  0.00000E+00  9.000E+00
#rwgt            1           1   3.5352552336827527E-002           8      243339           0
</event>
<event>
      5   9999  3.19816E-02  1.01390E+02 -1.00000E+00  1.23559E-01
      21    -1     0     0   502   512  0.000000000E+00  0.000000000E+00  1.078947528E+03  1.078947528E+03  0.000000000E+00  0.00000E+00  9.000E+00
      21    -1     0     0   501   502  0.000000000E+00  0.000000000E+00 -3.724310488E+02  3.724310488E+02  0.000000000E+00  0.00000E+00  9.000E+00
      25     1     1     2     0     0 -3.832428003E+02  3.752990067E+02  3.328069526E+01  5.517762165E+02  1.250000000E+02  0.00000E+00  9.000E+00
      25     1     1     2     0     0  2.819758821E+02 -3.802898717E+02  6.004715149E+02  7.748043784E+02  1.250000000E+02  0.00000E+00  9.000E+00
      21     1     1     2   501   512  1.012669182E+02  4.990864987E+00  7.276426948E+01  1.247979822E+02  1.348699152E-06  0.00000E+00  9.000E+00
#rwgt            1           1   3.0444952668908461E-002           8      243692           0
</event>
<event>
      5   9999  3.19816E-02  1.44323E+01 -1.00000E+00  1.78977E-01
      21    -1     0     0   502   501  0.000000000E+00  0.000000000E+00  5.681406034E+02  5.681406034E+02  0.000000000E+00  0.00000E+00  9.000E+00
      21    -1     0     0   511   502  0.000000000E+00  0.000000000E+00 -1.042898121E+02  1.042898121E+02  0.000000000E+00  0.00000E+00  9.000E+00
      25     1     1     2     0     0 -5.210639804E+01  1.272048301E+02  1.589008049E+02  2.444802882E+02  1.250000000E+02  0.00000E+00  9.000E+00
      25     1     1     2     0     0  3.781895950E+01 -1.292447081E+02  3.419763820E+02  3.882103993E+02  1.250000000E+02  0.00000E+00  9.000E+00
      21     1     1     2   511   501  1.428743855E+01  2.039877981E+00 -3.702639564E+01  3.973972794E+01  6.743495762E-07  0.00000E+00  9.000E+00
#rwgt            1           1   2.6326365290303390E-002           8      243734           0
</event>
<event>
      5   9999  3.19816E-02  3.42971E+02 -1.00000E+00  1.03737E-01
       2    -1     0     0   502     0  0.000000000E+00  0.000000000E+00  2.852509518E+03  2.852509518E+03  0.000000000E+00  0.00000E+00  9.000E+00
      21    -1     0     0   501   502  0.000000000E+00  0.000000000E+00 -3.200645723E+02  3.200645723E+02  0.000000000E+00  0.00000E+00  9.000E+00
      25     1     1     2     0     0  5.029354828E+02 -1.252513244E+02  6.257939754E+02  8.221162288E+02  1.250000000E+02  0.00000E+00  9.000E+00
      25     1     1     2     0     0 -6.270652185E+02  4.449712886E+02  5.563145175E+02  9.572466132E+02  1.250000000E+02  0.00000E+00  9.000E+00
       2     1     1     2   501     0  1.241297358E+02 -3.197199643E+02  1.350336453E+03  1.393211248E+03  2.642899792E-05  0.00000E+00  9.000E+00
#rwgt            2          18   1.7035688076734510E-003           8      243910           0
</event>
<event>
      5   9999  3.19816E-02  1.29050E+01 -1.00000E+00  1.83768E-01
      21    -1     0     0   502   501  0.000000000E+00  0.000000000E+00  1.820703463E+03  1.820703463E+03  0.000000000E+00  0.00000E+00  9.000E+00
      21    -1     0     0   511   502  0.000000000E+00  0.000000000E+00 -2.298184116E+02  2.298184116E+02  0.000000000E+00  0.00000E+00  9.000E+00
      25     1     1     2     0     0  1.038111324E+02 -7.252213631E+01 -1.758491263E+02  2.501681968E+02  1.250000000E+02  0.00000E+00  9.000E+00
      25     1     1     2     0     0 -9.461795926E+01  6.346538690E+01  1.776272415E+03  1.784306338E+03  1.250000000E+02  0.00000E+00  9.000E+00
      21     1     1     2   511   501 -9.193173160E+00  9.056749413E+00 -9.538237692E+00  1.604734000E+01  0.000000000E+00  0.00000E+00  9.000E+00
#rwgt            1           1   2.9088775598948777E-002           8      243929           0
</event>
<event>
      5   9999  3.19816E-02  1.55457E+01 -1.00000E+00  1.75934E-01
      21    -1     0     0   502   501  0.000000000E+00  0.000000000E+00  3.088261249E+02  3.088261249E+02  0.000000000E+00  0.00000E+00  9.000E+00
      21    -1     0     0   512   502  0.000000000E+00  0.000000000E+00 -8.816621343E+02  8.816621343E+02  0.000000000E+00  0.00000E+00  9.000E+00
      25     1     1     2     0     0 -1.612506384E+02 -2.464266592E+01  2.565353346E+02  3.287010911E+02  1.250000000E+02  0.00000E+00  9.000E+00
      25     1     1     2     0     0  1.733949027E+02  3.434754609E+01 -7.969288221E+02  8.258123840E+02  1.250000000E+02  0.00000E+00  9.000E+00
      21     1     1     2   512   501 -1.214426433E+01 -9.704880170E+00 -3.244252197E+01  3.597478404E+01  4.768371582E-07  0.00000E+00  9.000E+00
#rwgt            1           1   2.5971498891634991E-002           8      244209           0
</event>
<event>
      5   9999  3.19816E-02  2.65574E+01 -1.00000E+00  1.56810E-01
      21    -1     0     0   502   511  0.000000000E+00  0.000000000E+00  2.795415184E+02  2.795415184E+02  0.000000000E+00  0.00000E+00  9.000E+00
      21    -1     0     0   501   502  0.000000000E+00  0.000000000E+00 -1.093840176E+03  1.093840176E+03  0.000000000E+00  0.00000E+00  9.000E+00
      25     1     1     2     0     0  2.730296598E+02  1.005167927E+02  1.236530544E+02  3.399469055E+02  1.250000000E+02  0.00000E+00  9.000E+00
      25     1     1     2     0     0 -2.531259080E+02 -1.180989957E+02 -9.543571700E+02  1.002218891E+03  1.250000000E+02  0.00000E+00  9.000E+00
      21     1     1     2   501   511 -1.990375179E+01  1.758220297E+01  1.640545823E+01  3.121589749E+01  0.000000000E+00  0.00000E+00  9.000E+00
#rwgt            1           1   2.6988867949579450E-002           8      244419           0
</event>
<event>
      5   9999  3.19816E-02  4.00977E+02 -1.00000E+00  1.01654E-01
      -4    -1     0     0     0   501  0.000000000E+00  0.000000000E+00  1.901224665E+03  1.901224665E+03  0.000000000E+00  0.00000E+00  9.000E+00
      21    -1     0     0   501   502  0.000000000E+00  0.000000000E+00 -2.197799269E+03  2.197799269E+03  0.000000000E+00  0.00000E+00  9.000E+00
      25     1     1     2     0     0  1.008212700E+03  7.964701278E+02 -1.715375349E+03  2.146857029E+03  1.250000000E+02  0.00000E+00  9.000E+00
      25     1     1     2     0     0 -6.206752599E+02 -6.935277509E+02  9.622923933E+02  1.344563189E+03  1.250000000E+02  0.00000E+00  9.000E+00
      -4     1     1     2     0   502 -3.875374403E+02 -1.029423769E+02  4.565083517E+02  6.076037161E+02  7.629394531E-06  0.00000E+00  9.000E+00
#rwgt            2           2   2.3004005184015542E-005           8      244551           0
</event>
<event>
      5   9999  3.19816E-02  1.86292E+02 -1.00000E+00  1.12782E-01
      21    -1     0     0   511   501  0.000000000E+00  0.000000000E+00  1.279951191E+03  1.279951191E+03  0.000000000E+00  0.00000E+00  9.000E+00
      21    -1     0     0   501   502  0.000000000E+00  0.000000000E+00 -1.157039336E+02  1.157039336E+02  0.000000000E+00  0.00000E+00  9.000E+00
      25     1     1     2     0     0  5.695697957E+01  2.086307768E+02  2.387923423E+02  3.455686347E+02  1.250000000E+02  0.00000E+00  9.000E+00
      25     1     1     2     0     0  6.818918049E+01 -7.063406585E+01  6.843476696E+01  1.730527461E+02  1.250000000E+02  0.00000E+00  9.000E+00
      21     1     1     2   511   502 -1.251461601E+02 -1.379967109E+02  8.570201480E+02  8.770337437E+02  1.078959322E-05  0.00000E+00  9.000E+00
#rwgt            1           1   2.7286635457646528E-002           8      244570           0
</event>
<event>
      5   9999  3.19816E-02  1.11738E+01 -1.00000E+00  1.90345E-01
      21    -1     0     0   502   501  0.000000000E+00  0.000000000E+00  4.293594288E+02  4.293594288E+02  0.000000000E+00  0.00000E+00  9.000E+00
      21    -1     0     0   512   502  0.000000000E+00  0.000000000E+00 -2.487044240E+02  2.487044240E+02  0.000000000E+00  0.00000E+00  9.000E+00
      25     1     1     2     0     0  2.586434316E+02 -1.298067550E+01  3.027126595E+00  2.875744880E+02  1.250000000E+02  0.00000E+00  9.000E+00
      25     1     1     2     0     0 -2.581540307E+02  2.414379198E+01  2.099613114E+02  3.562796353E+02  1.250000000E+02  0.00000E+00  9.000E+00
      21     1     1     2   512   501 -4.894008861E-01 -1.116311648E+01 -3.233343323E+01  3.420972943E+01  4.768371582E-07  0.00000E+00  9.000E+00
#rwgt            1           1   2.8121858752346185E-002           8      244628           0
</event>
<event>
      5   9999  3.19816E-02  2.70956E+01 -1.00000E+00  1.56176E-01
      21    -1     0     0   502   501  0.000000000E+00  0.000000000E+00  3.597135256E+03  3.597135256E+03  0.000000000E+00  0.00000E+00  9.000E+00
      21    -1     0     0   501   511  0.000000000E+00  0.000000000E+00 -2.641012994E+02  2.641012994E+02  0.000000000E+00  0.00000E+00  9.000E+00
      25     1     1     2     0     0 -1.656516514E+02 -7.371370930E+02  2.799936696E+03  2.902771445E+03  1.250000000E+02  0.00000E+00  9.000E+00
      25     1     1     2     0     0  1.917159834E+02  7.297328945E+02  5.314781452E+02  9.313211768E+02  1.250000000E+02  0.00000E+00  9.000E+00
      21     1     1     2   502   511 -2.606433196E+01  7.404198497E+00  1.619115147E+00  2.714393283E+01  7.263456349E-07  0.00000E+00  9.000E+00
#rwgt            1           1   4.1579036306148759E-002           8      244858           0
</event>
<event>
      5   9999  3.19816E-02  9.83443E+01 -1.00000E+00  1.24155E-01
       3    -1     0     0   502     0  0.000000000E+00  0.000000000E+00  1.476061884E+03  1.476061884E+03  0.000000000E+00  0.00000E+00  9.000E+00
      21    -1     0     0   501   502  0.000000000E+00  0.000000000E+00 -1.596572216E+02  1.596572216E+02  0.000000000E+00  0.00000E+00  9.000E+00
      25     1     1     2     0     0  2.576251779E+02 -1.460493021E+02  1.731496378E+02  3.651122129E+02  1.250000000E+02  0.00000E+00  9.000E+00
      25     1     1     2     0     0 -3.392367099E+02  2.009232444E+02  1.072391541E+03  1.149391279E+03  1.250000000E+02  0.00000E+00  9.000E+00
       3     1     1     2   501     0  8.161153201E+01 -5.487394229E+01  7.086348429E+01  1.212156141E+02  9.536743164E-07  0.00000E+00  9.000E+00
#rwgt            1           1   2.9365178261801662E-002           8      245048           0
</event>
<event>
      5   9999  3.19816E-02  1.00044E+02 -1.00000E+00  1.23819E-01
       2    -1     0     0   502     0  0.000000000E+00  0.000000000E+00  1.607920960E+03  1.607920960E+03  0.000000000E+00  0.00000E+00  9.000E+00
      21    -1     0     0   501   502  0.000000000E+00  0.000000000E+00 -9.149833099E+02  9.149833099E+02  0.000000000E+00  0.00000E+00  9.000E+00
      25     1     1     2     0     0 -6.688630742E+00  3.229823784E+02 -4.924502609E+02  6.020752560E+02  1.250000000E+02  0.00000E+00  9.000E+00
      25     1     1     2     0     0 -3.451689186E+01 -2.318180486E+02 -3.178714828E+02  4.142442553E+02  1.250000000E+02  0.00000E+00  9.000E+00
       2     1     1     2   501     0  4.120552261E+01 -9.116432970E+01  1.503259394E+03  1.506584759E+03  2.157918644E-05  0.00000E+00  9.000E+00
#rwgt            1           1   2.8832859605173070E-002           8      245163           0
</event>
<event>
      5   9999  3.19816E-02  1.89932E+01 -1.00000E+00  1.68241E-01
      21    -1     0     0   511   501  0.000000000E+00  0.000000000E+00  6.529141140E+02  6.529141140E+02  0.000000000E+00  0.00000E+00  9.000E+00
      21    -1     0     0   501   502  0.000000000E+00  0.000000000E+00 -1.889463948E+02  1.889463948E+02  0.000000000E+00  0.00000E+00  9.000E+00
      25     1     1     2     0     0  2.225612884E+02 -1.681386335E+02  6.463454230E+01  3.124207919E+02  1.250000000E+02  0.00000E+00  9.000E+00
      25     1     1     2     0     0 -2.409050776E+02  1.632146408E+02  3.293063298E+02  4.568828452E+02  1.250000000E+02  0.00000E+00  9.000E+00
      21     1     1     2   511   502  1.834378916E+01  4.923992645E+00  7.002684710E+01  7.255687162E+01  1.348699152E-06  0.00000E+00  9.000E+00
#rwgt            1           1   3.2461710718850852E-002           8      245240           0
</event>
<event>
      5   9999  3.19816E-02  1.64748E+02 -1.00000E+00  1.14802E-01
       2    -1     0     0   502     0  0.000000000E+00  0.000000000E+00  1.194927569E+03  1.194927569E+03  0.000000000E+00  0.00000E+00  9.000E+00
      21    -1     0     0   501   502  0.000000000E+00  0.000000000E+00 -1.707866062E+02  1.707866062E+02  0.000000000E+00  0.00000E+00  9.000E+00
      25     1     1     2     0     0 -1.654281672E+02 -1.764851685E+02  1.407721412E+01  2.726475035E+02  1.250000000E+02  0.00000E+00  9.000E+00
      25     1     1     2     0     0  5.677381885E+01  5.264609834E+01  8.525473339E+02  8.651339981E+02  1.250000000E+02  0.00000E+00  9.000E+00
       2     1     1     2   501     0  1.086543483E+02  1.238390702E+02  1.575164143E+02  2.279326732E+02  2.697398305E-06  0.00000E+00  9.000E+00
#rwgt            1           1   2.8656423883362737E-002           8      245422           0
</event>
<event>
      5   9999  3.19816E-02  8.46557E+01 -1.00000E+00  1.27172E-01
      21    -1     0     0   511   501  0.000000000E+00  0.000000000E+00  1.293696887E+03  1.293696887E+03  0.000000000E+00  0.00000E+00  9.000E+00
      21    -1     0     0   501   502  0.000000000E+00  0.000000000E+00 -3.869495092E+02  3.869495092E+02  0.000000000E+00  0.00000E+00  9.000E+00
      25     1     1     2     0     0  4.867264010E+02 -4.661999867E+02  4.808885350E+02  8.373313562E+02  1.250000000E+02  0.00000E+00  9.000E+00
      25     1     1     2     0     0 -4.986960460E+02  3.823948141E+02  3.525390496E+02  7.313223104E+02  1.250000000E+02  0.00000E+00  9.000E+00
      21     1     1     2   511   502  1.196964502E+01  8.380517260E+01  7.331979276E+01  1.119927291E+02  1.651812370E-06  0.00000E+00  9.000E+00
#rwgt            1           1   2.0959163710893527E-002           8      245474           0
</event>
<event>
      5   9999  3.19816E-02  6.17050E+01 -1.00000E+00  1.34056E-01
      21    -1     0     0   502   512  0.000000000E+00  0.000000000E+00  2.038125110E+02  2.038125110E+02  0.000000000E+00  0.00000E+00  9.000E+00
      21    -1     0     0   501   502  0.000000000E+00  0.000000000E+00 -1.570165562E+03  1.570165562E+03  0.000000000E+00  0.00000E+00  9.000E+00
      25     1     1     2     0     0 -2.894564676E+02  1.010913063E+02 -1.271793079E+03  1.314186872E+03  1.250000000E+02  0.00000E+00  9.000E+00
      25     1     1     2     0     0  3.505114792E+02 -1.100237299E+02 -7.683448906E+01  3.955907695E+02  1.250000000E+02  0.00000E+00  9.000E+00
      21     1     1     2   501   512 -6.105501164E+01  8.932423611E+00 -1.772548264E+01  6.420043125E+01  2.384185791E-07  0.00000E+00  9.000E+00
#rwgt            1           1   3.0087573655513612E-002           8      245558           0
</event>
<event>
      5   9999  3.19816E-02  2.54198E+01 -1.00000E+00  1.58211E-01
      21    -1     0     0   502   501  0.000000000E+00  0.000000000E+00  9.896591915E+01  9.896591915E+01  0.000000000E+00  0.00000E+00  9.000E+00
      21    -1     0     0   511   502  0.000000000E+00  0.000000000E+00 -7.974311297E+02  7.974311297E+02  0.000000000E+00  0.00000E+00  9.000E+00
      25     1     1     2     0     0 -1.968917762E+02 -1.028439875E+02 -2.599325856E+02  3.640511040E+02  1.250000000E+02  0.00000E+00  9.000E+00
      25     1     1     2     0     0  2.147361542E+02  1.209477083E+02 -4.037995641E+02  4.893046617E+02  1.250000000E+02  0.00000E+00  9.000E+00
      21     1     1     2   511   501 -1.784437799E+01 -1.810372084E+01 -3.473306087E+01  4.304128311E+01  4.768371582E-07  0.00000E+00  9.000E+00
#rwgt            1           1   3.4410473201422376E-002           8      245623           0
</event>
<event>
      5   9999  3.19816E-02  1.08195E+02 -1.00000E+00  1.22309E-01
      21    -1     0     0   512   501  0.000000000E+00  0.000000000E+00  6.200980816E+02  6.200980816E+02  0.000000000E+00  0.00000E+00  9.000E+00
      21    -1     0     0   501   502  0.000000000E+00  0.000000000E+00 -5.192122439E+02  5.192122439E+02  0.000000000E+00  0.00000E+00  9.000E+00
      25     1     1     2     0     0 -1.302226363E+02  2.396571107E+02  1.516906000E+02  3.361971205E+02  1.250000000E+02  0.00000E+00  9.000E+00
      25     1     1     2     0     0  2.365384699E+01 -2.209699140E+02 -3.794259507E+02  4.571392123E+02  1.250000000E+02  0.00000E+00  9.000E+00
      21     1     1     2   512   502  1.065687893E+02 -1.868719667E+01  3.286211884E+02  3.459739927E+02  0.000000000E+00  0.00000E+00  9.000E+00
#rwgt            1           1   2.9212674205367786E-002           8      245749           0
</event>
<event>
      5   9999  3.19816E-02  4.88474E+01 -1.00000E+00  1.39656E-01
      21    -1     0     0   502   501  0.000000000E+00  0.000000000E+00  1.931437733E+02  1.931437733E+02  0.000000000E+00  0.00000E+00  9.000E+00
      21    -1     0     0   501   511  0.000000000E+00  0.000000000E+00 -7.527135328E+02  7.527135328E+02  0.000000000E+00  0.00000E+00  9.000E+00
      25     1     1     2     0     0  5.874510892E+01 -1.855180442E+01  1.469560669E+02  2.025246722E+02  1.250000000E+02  0.00000E+00  9.000E+00
      25     1     1     2     0     0 -8.094062179E+01  6.206531958E+01 -3.750655408E+02  4.082923561E+02  1.250000000E+02  0.00000E+00  9.000E+00
      21     1     1     2   502   511  2.219551287E+01 -4.351351516E+01 -3.314602856E+02  3.350402778E+02  3.814697266E-06  0.00000E+00  9.000E+00
#rwgt            1           1   3.1253790774815687E-002           8      245826           0
</event>
<event>
      5   9999  3.19816E-02  6.40651E+02 -1.00000E+00  9.58870E-02
       1    -1     0     0   502     0  0.000000000E+00  0.000000000E+00  7.207563150E+02  7.207563150E+02  0.000000000E+00  0.00000E+00  9.000E+00
      21    -1     0     0   501   502  0.000000000E+00  0.000000000E+00 -9.619245355E+02  9.619245355E+02  0.000000000E+00  0.00000E+00  9.000E+00
      25     1     1     2     0     0  5.654476755E+02  1.146744577E+02 -5.445986487E+02  8.031774356E+02  1.250000000E+02  0.00000E+00  9.000E+00
      25     1     1     2     0     0  7.177193008E+01 -4.845252976E+01 -3.341702702E+01  1.556937869E+02  1.250000000E+02  0.00000E+00  9.000E+00
       1     1     1     2   501     0 -6.372196056E+02 -6.622192798E+01  3.368474551E+02  7.238096279E+02  2.320389759E-05  0.00000E+00  9.000E+00
#rwgt            2          17   9.7298491231178653E-004           8      245915           0
</event>
<event>
      5   9999  3.19816E-02  1.58054E+02 -1.00000E+00  1.15500E-01
      21    -1     0     0   511   501  0.000000000E+00  0.000000000E+00  1.853895324E+03  1.853895324E+03  0.000000000E+00  0.00000E+00  9.000E+00
      21    -1     0     0   501   502  0.000000000E+00  0.000000000E+00 -8.817083176E+02  8.817083176E+02  0.000000000E+00  0.00000E+00  9.000E+00
      25     1     1     2     0     0  2.602821134E+02  1.093160604E+03  6.781954279E+02  1.318453989E+03  1.250000000E+02  0.00000E+00  9.000E+00
      25     1     1     2     0     0 -4.087030941E+02 -1.038826124E+03  4.746941282E+01  1.124311469E+03  1.250000000E+02  0.00000E+00  9.000E+00
      21     1     1     2   511   502  1.484209807E+02 -5.433447986E+01  2.465221656E+02  2.928381828E+02  5.394796609E-06  0.00000E+00  9.000E+00
#rwgt            1           1   7.1386264023039755E-002           8      245934           0
</event>
<event>
      5   9999  3.19816E-02  8.30864E+01 -1.00000E+00  1.27559E-01
      21    -1     0     0   502   512  0.000000000E+00  0.000000000E+00  1.943723081E+03  1.943723081E+03  0.000000000E+00  0.00000E+00  9.000E+00
      21    -1     0     0   501   502  0.000000000E+00  0.000000000E+00 -5.723691578E+02  5.723691578E+02  0.000000000E+00  0.00000E+00  9.000E+00
      25     1     1     2     0     0  5.398241280E+02  7.308595868E+02  9.663014926E+01  9.222408636E+02  1.250000000E+02  0.00000E+00  9.000E+00
      25     1     1     2     0     0 -5.564461597E+02 -6.494527962E+02  1.088401632E+03  1.389843292E+03  1.250000000E+02  0.00000E+00  9.000E+00
      21     1     1     2   501   512  1.662203170E+01 -8.140679062E+01  1.863221422E+02  2.040080836E+02  0.000000000E+00  0.00000E+00  9.000E+00
#rwgt            1           1   3.4606858851259158E-002           8      246034           0
</event>
<event>
      5   9999  3.19816E-02  1.79482E+01 -1.00000E+00  1.70343E-01
      21    -1     0     0   502   501  0.000000000E+00  0.000000000E+00  3.783939035E+02  3.783939035E+02  0.000000000E+00  0.00000E+00  9.000E+00
      21    -1     0     0   511   502  0.000000000E+00  0.000000000E+00 -4.942233647E+02  4.942233647E+02  0.000000000E+00  0.00000E+00  9.000E+00
      25     1     1     2     0     0  1.463922883E+02  7.880468333E+01 -1.863629413E+02  2.792794766E+02  1.250000000E+02  0.00000E+00  9.000E+00
      25     1     1     2     0     0 -1.643402193E+02 -7.890253550E+01  2.947391748E+02  3.684148463E+02  1.250000000E+02  0.00000E+00  9.000E+00
      21     1     1     2   511   501  1.794793102E+01  9.785216480E-02 -2.242056947E+02  2.249229453E+02  2.697398305E-06  0.00000E+00  9.000E+00
#rwgt            1           1   2.5144758281730070E-002           8      246175           0
</event>
<event>
      5   9999  3.19816E-02  3.19115E+01 -1.00000E+00  1.51200E-01
      -2    -1     0     0     0   501  0.000000000E+00  0.000000000E+00  8.537026481E+02  8.537026481E+02  0.000000000E+00  0.00000E+00  9.000E+00
      21    -1     0     0   501   502  0.000000000E+00  0.000000000E+00 -3.911710091E+02  3.911710091E+02  0.000000000E+00  0.00000E+00  9.000E+00
      25     1     1     2     0     0 -4.635530305E+02 -1.479777760E+02  2.993517743E+02  5.848207581E+02  1.250000000E+02  0.00000E+00  9.000E+00
      25     1     1     2     0     0  4.344611165E+02  1.348628062E+02 -2.186259583E+01  4.722789550E+02  1.250000000E+02  0.00000E+00  9.000E+00
      -2     1     1     2     0   502  2.909191402E+01  1.311496972E+01  1.850424605E+02  1.877739441E+02  0.000000000E+00  0.00000E+00  9.000E+00
#rwgt            1           1   3.1201771033752632E-002           8      246380           0
</event>
<event>
      5   9999  3.19816E-02  4.34040E+01 -1.00000E+00  1.42674E-01
      21    -1     0     0   511   501  0.000000000E+00  0.000000000E+00  1.575565256E+02  1.575565256E+02  0.000000000E+00  0.00000E+00  9.000E+00
      21    -1     0     0   501   502  0.000000000E+00  0.000000000E+00 -1.267946485E+03  1.267946485E+03  0.000000000E+00  0.00000E+00  9.000E+00
      25     1     1     2     0     0 -2.466622888E+02  1.039417482E+02 -9.752058493E+02  1.018968900E+03  1.250000000E+02  0.00000E+00  9.000E+00
      25     1     1     2     0     0  2.833797713E+02 -1.270876187E+02 -1.399715533E+02  3.628669086E+02  1.250000000E+02  0.00000E+00  9.000E+00
      21     1     1     2   511   502 -3.671748252E+01  2.314587047E+01  4.787443545E+00  4.366720117E+01  2.457562462E-07  0.00000E+00  9.000E+00
#rwgt            1           1   3.0220577140208243E-002           8      246539           0
</event>
<event>
      5   9999  3.19816E-02  1.98219E+01 -1.00000E+00  1.66690E-01
      21    -1     0     0   502   501  0.000000000E+00  0.000000000E+00  1.236459261E+02  1.236459261E+02  0.000000000E+00  0.00000E+00  9.000E+00
      21    -1     0     0   501   512  0.000000000E+00  0.000000000E+00 -7.528433999E+02  7.528433999E+02  0.000000000E+00  0.00000E+00  9.000E+00
      25     1     1     2     0     0  9.938698365E+01 -1.066850610E+02 -4.453998686E+02  4.850417690E+02  1.250000000E+02  0.00000E+00  9.000E+00
      25     1     1     2     0     0 -8.200579256E+01  1.162139679E+02  1.659071021E+01  1.900812669E+02  1.250000000E+02  0.00000E+00  9.000E+00
      21     1     1     2   502   512 -1.738119109E+01 -9.528906866E+00 -2.003883154E+02  2.013662901E+02  2.697398305E-06  0.00000E+00  9.000E+00
#rwgt            1           1   3.0881267306132804E-002           8      246688           0
</event>
<event>
      5   9999  3.19816E-02  1.78362E+01 -1.00000E+00  1.70579E-01
      21    -1     0     0   502   511  0.000000000E+00  0.000000000E+00  4.385952950E+02  4.385952950E+02  0.000000000E+00  0.00000E+00  9.000E+00
      21    -1     0     0   501   502  0.000000000E+00  0.000000000E+00 -2.284211048E+02  2.284211048E+02  0.000000000E+00  0.00000E+00  9.000E+00
      25     1     1     2     0     0 -4.008236482E+01  1.752821264E+02 -1.289973268E+02  2.541569007E+02  1.250000000E+02  0.00000E+00  9.000E+00
      25     1     1     2     0     0  5.549426381E+01 -1.663042203E+02  2.949884600E+02  3.652121281E+02  1.250000000E+02  0.00000E+00  9.000E+00
      21     1     1     2   501   511 -1.541189899E+01 -8.977906151E+00  4.418305707E+01  4.764737098E+01  8.259061849E-07  0.00000E+00  9.000E+00
#rwgt            1           1   2.6469698716246260E-002           8      246850           0
</event>
<event>
      5   9999  3.19816E-02  3.90835E+01 -1.00000E+00  1.45467E-01
       2    -1     0     0   502     0  0.000000000E+00  0.000000000E+00  1.588436383E+03  1.588436383E+03  0.000000000E+00  0.00000E+00  9.000E+00
      21    -1     0     0   501   502  0.000000000E+00  0.000000000E+00 -1.686397938E+03  1.686397938E+03  0.000000000E+00  0.00000E+00  9.000E+00
      25     1     1     2     0     0 -2.741482708E+02 -6.977506685E+00 -1.655257299E+03  1.682470709E+03  1.250000000E+02  0.00000E+00  9.000E+00
      25     1     1     2     0     0  2.367363381E+02  1.828526099E+01  1.056456887E+03  1.090002109E+03  1.250000000E+02  0.00000E+00  9.000E+00
       2     1     1     2   501     0  3.741193265E+01 -1.130775430E+01  5.008388574E+02  5.023615024E+02  9.344061824E-06  0.00000E+00  9.000E+00
#rwgt            1           1   3.4285823379635108E-002           8      247049           0
</event>
<event>
      5   9999  3.19816E-02  1.56652E+01 -1.00000E+00  1.75626E-01
      21    -1     0     0   502   501  0.000000000E+00  0.000000000E+00  7.944516670E+01  7.944516670E+01  0.000000000E+00  0.00000E+00  9.000E+00
       1    -1     0     0   501     0  0.000000000E+00  0.000000000E+00 -5.211768316E+02  5.211768316E+02  0.000000000E+00  0.00000E+00  9.000E+00
      25     1     1     2     0     0  1.237098343E+01 -2.163885326E+01  7.232261170E+00  1.276659187E+02  1.250000000E+02  0.00000E+00  9.000E+00
      25     1     1     2     0     0 -2.772922838E+01  1.855277339E+01 -3.581552007E+02  3.808060705E+02  1.250000000E+02  0.00000E+00  9.000E+00
       1     1     1     2   502     0  1.535824495E+01  3.086079876E+00 -9.080872531E+01  9.215000905E+01  1.907348633E-06  0.00000E+00  9.000E+00
#rwgt            1           1   2.8846667321536169E-002           8      247170           0
</event>
<event>
      5   9999  3.19816E-02  6.21656E+01 -1.00000E+00  1.33886E-01
      21    -1     0     0   502   501  0.000000000E+00  0.000000000E+00  7.054569911E+02  7.054569911E+02  0.000000000E+00  0.00000E+00  9.000E+00
      21    -1     0     0   511   502  0.000000000E+00  0.000000000E+00 -1.311725078E+02  1.311725078E+02  0.000000000E+00  0.00000E+00  9.000E+00
      25     1     1     2     0     0 -2.089712958E+02  6.367217580E+01  3.301259815E+02  4.151280671E+02  1.250000000E+02  0.00000E+00  9.000E+00
      25     1     1     2     0     0  2.498461476E+02 -1.683402090E+01  2.145118095E+02  3.526284137E+02  1.250000000E+02  0.00000E+00  9.000E+00
      21     1     1     2   511   501 -4.087485183E+01 -4.683815489E+01  2.964669235E+01  6.887301818E+01  8.259061849E-07  0.00000E+00  9.000E+00
#rwgt            1           1   2.6991531610740811E-002           8      247415           0
</event>
<event>
      5   9999  3.19816E-02  3.57185E+01 -1.00000E+00  1.47957E-01
      21    -1     0     0   502   512  0.000000000E+00  0.000000000E+00  2.773868833E+02  2.773868833E+02  0.000000000E+00  0.00000E+00  9.000E+00
      21    -1     0     0   501   502  0.000000000E+00  0.000000000E+00 -6.054023968E+02  6.054023968E+02  0.000000000E+00  0.00000E+00  9.000E+00
      25     1     1     2     0     0  9.527742474E+01 -1.135159118E+02 -5.355130546E+02  5.695286486E+02  1.250000000E+02  0.00000E+00  9.000E+00
      25     1     1     2     0     0 -7.017633226E+01  8.810432663E+01  2.185978233E+02  2.758570251E+02  1.250000000E+02  0.00000E+00  9.000E+00
      21     1     1     2   501   512 -2.510109248E+01  2.541158519E+01 -1.110028213E+01  3.740360637E+01  6.307962682E-07  0.00000E+00  9.000E+00
#rwgt            1           1   2.4933733830043998E-002           8      247465           0
</event>
<event>
      5   9999  3.19816E-02  3.79298E+01 -1.00000E+00  1.46286E-01
      21    -1     0     0   502   511  0.000000000E+00  0.000000000E+00  1.964260715E+02  1.964260715E+02  0.000000000E+00  0.00000E+00  9.000E+00
      21    -1     0     0   501   502  0.000000000E+00  0.000000000E+00 -7.343809607E+02  7.343809607E+02  0.000000000E+00  0.00000E+00  9.000E+00
      25     1     1     2     0     0 -1.241226404E+02  2.969188269E+02 -1.554728486E+02  3.786344230E+02  1.250000000E+02  0.00000E+00  9.000E+00
      25     1     1     2     0     0  1.344640930E+02 -2.604260309E+02 -3.991577863E+02  5.107389238E+02  1.250000000E+02  0.00000E+00  9.000E+00
      21     1     1     2   501   511 -1.034145255E+01 -3.649279600E+01  1.667574567E+01  4.143368550E+01  1.092571186E-06  0.00000E+00  9.000E+00
#rwgt            1           1   2.6502650249997491E-002           8      247639           0
</event>
<event>
      5   9999  3.19816E-02  2.05101E+01 -1.00000E+00  1.65472E-01
      21    -1     0     0   502   512  0.000000000E+00  0.000000000E+00  2.582980545E+02  2.582980545E+02  0.000000000E+00  0.00000E+00  9.000E+00
      21    -1     0     0   501   502  0.000000000E+00  0.000000000E+00 -1.375912020E+03  1.375912020E+03  0.000000000E+00  0.00000E+00  9.000E+00
      25     1     1     2     0     0  4.353994193E+02  2.287262890E+02 -3.443332512E+02  6.132526049E+02  1.250000000E+02  0.00000E+00  9.000E+00
      25     1     1     2     0     0 -4.148942504E+02 -2.291739822E+02 -8.281674026E+02  9.623638605E+02  1.250000000E+02  0.00000E+00  9.000E+00
      21     1     1     2   501   512 -2.050516887E+01  4.476932104E-01  5.488668872E+01  5.859360868E+01  9.536743164E-07  0.00000E+00  9.000E+00
#rwgt            1           1   3.4024750888438447E-002           8      247733           0
</event>
<event>
      5   9999  3.19816E-02  6.59538E+01 -1.00000E+00  1.32544E-01
      21    -1     0     0   502   501  0.000000000E+00  0.000000000E+00  3.657849935E+02  3.657849935E+02  0.000000000E+00  0.00000E+00  9.000E+00
      21    -1     0     0   501   511  0.000000000E+00  0.000000000E+00 -1.927541302E+02  1.927541302E+02  0.000000000E+00  0.00000E+00  9.000E+00
      25     1     1     2     0     0 -1.176097275E+02  1.741159235E+02  1.346423629E+02  2.791092415E+02  1.250000000E+02  0.00000E+00  9.000E+00
      25     1     1     2     0     0  5.315012474E+01 -1.601567390E+02  3.836578955E+01  2.134761125E+02  1.250000000E+02  0.00000E+00  9.000E+00
      21     1     1     2   502   511  6.445960279E+01 -1.395918445E+01  2.271084914E-02  6.595376970E+01  1.010217686E-06  0.00000E+00  9.000E+00
#rwgt            1           1   3.0446381608120715E-002           8      247980           0
</event>
<event>
      5   9999  3.19816E-02  3.99315E+01 -1.00000E+00  1.44886E-01
      21    -1     0     0   502   501  0.000000000E+00  0.000000000E+00  2.614070518E+02  2.614070518E+02  0.000000000E+00  0.00000E+00  9.000E+00
      21    -1     0     0   501   512  0.000000000E+00  0.000000000E+00 -1.475490520E+03  1.475490520E+03  0.000000000E+00  0.00000E+00  9.000E+00
      25     1     1     2     0     0 -1.795453375E+02 -2.489441287E+02  9.840597992E+01  3.457143970E+02  1.250000000E+02  0.00000E+00  9.000E+00
      25     1     1     2     0     0  2.176672574E+02  2.370593894E+02 -7.321540132E+02  8.094755637E+02  1.250000000E+02  0.00000E+00  9.000E+00
      21     1     1     2   502   512 -3.812191998E+01  1.188473931E+01 -5.803354350E+02  5.817076112E+02  0.000000000E+00  0.00000E+00  9.000E+00
#rwgt            1           1   2.7277590496592209E-002           8      248036           0
</event>
<event>
      5   9999  3.19816E-02  3.00945E+01 -1.00000E+00  1.52945E-01
      21    -1     0     0   511   501  0.000000000E+00  0.000000000E+00  1.212777528E+02  1.212777528E+02  0.000000000E+00  0.00000E+00  9.000E+00
      21    -1     0     0   501   502  0.000000000E+00  0.000000000E+00 -1.034685219E+03  1.034685219E+03  0.000000000E+00  0.00000E+00  9.000E+00
      25     1     1     2     0     0 -1.093767515E+02  8.535683704E+01 -2.090338622E+02  2.803020138E+02  1.250000000E+02  0.00000E+00  9.000E+00
      25     1     1     2     0     0  1.191585991E+02 -1.138172124E+02 -7.732837123E+02  8.004660075E+02  1.250000000E+02  0.00000E+00  9.000E+00
      21     1     1     2   511   502 -9.781847600E+00  2.846037534E+01  6.891010841E+01  7.519495028E+01  3.015782986E-06  0.00000E+00  9.000E+00
#rwgt            1           1   2.9481493265647446E-002           8      248189           0
</event>
<event>
      5   9999  3.19816E-02  4.65845E+01 -1.00000E+00  1.40852E-01
      21    -1     0     0   512   501  0.000000000E+00  0.000000000E+00  3.654933223E+02  3.654933223E+02  0.000000000E+00  0.00000E+00  9.000E+00
      21    -1     0     0   501   502  0.000000000E+00  0.000000000E+00 -1.974462614E+02  1.974462614E+02  0.000000000E+00  0.00000E+00  9.000E+00
      25     1     1     2     0     0  1.903321220E+02 -4.958570115E+01  1.089381523E+02  2.572500330E+02  1.250000000E+02  0.00000E+00  9.000E+00
      25     1     1     2     0     0 -1.955400340E+02  9.587821487E+01  3.594689099E+01  2.536645737E+02  1.250000000E+02  0.00000E+00  9.000E+00
      21     1     1     2   512   502  5.207912038E+00 -4.629251373E+01  2.316201756E+01  5.202497700E+01  8.920806376E-07  0.00000E+00  9.000E+00
#rwgt            1           1   2.8928106764509229E-002           8      248314           0
</event>
<event>
      5   9999  3.19816E-02  1.30554E+02 -1.00000E+00  1.18835E-01
      21    -1     0     0   502   501  0.000000000E+00  0.000000000E+00  4.412335580E+02  4.412335580E+02  0.000000000E+00  0.00000E+00  9.000E+00
      21    -1     0     0   511   502  0.000000000E+00  0.000000000E+00 -3.818509860E+02  3.818509860E+02  0.000000000E+00  0.00000E+00  9.000E+00
      25     1     1     2     0     0 -3.788638201E+01  1.510026085E+02  2.507216703E+02  3.205051040E+02  1.250000000E+02  0.00000E+00  9.000E+00
      25     1     1     2     0     0  5.160832186E+01 -2.808334923E+02 -6.005468132E+01  3.174309910E+02  1.250000000E+02  0.00000E+00  9.000E+00
      21     1     1     2   511   501 -1.372193985E+01  1.298308838E+02 -1.312844170E+02  1.851484490E+02  0.000000000E+00  0.00000E+00  9.000E+00
#rwgt            2          11   3.0434538166310430E-003           8      248418           0
</event>
<event>
      5   9999  3.19816E-02  1.11705E+01 -1.00000E+00  1.90359E-01
      21    -1     0     0   502   501  0.000000000E+00  0.000000000E+00  6.162471541E+02  6.162471541E+02  0.000000000E+00  0.00000E+00  9.000E+00
      21    -1     0     0   501   512  0.000000000E+00  0.000000000E+00 -1.070712648E+03  1.070712648E+03  0.000000000E+00  0.00000E+00  9.000E+00
      25     1     1     2     0     0  4.276524202E+02  1.624679974E+02 -7.283424337E+02  8.691318331E+02  1.250000000E+02  0.00000E+00  9.000E+00
      25     1     1     2     0     0 -4.260808671E+02 -1.735273642E+02  4.415363250E+02  6.497968742E+02  1.250000000E+02  0.00000E+00  9.000E+00
      21     1     1     2   502   512 -1.571553176E+00  1.105936681E+01 -1.676593855E+02  1.680310951E+02  0.000000000E+00  0.00000E+00  9.000E+00
#rwgt            1           1   2.0766436569856876E-002           8      248438           0
</event>
<event>
      5   9999  3.19816E-02  8.30023E+01 -1.00000E+00  1.27580E-01
      21    -1     0     0   502   511  0.000000000E+00  0.000000000E+00  1.338707887E+03  1.338707887E+03  0.000000000E+00  0.00000E+00  9.000E+00
      21    -1     0     0   501   502  0.000000000E+00  0.000000000E+00 -1.104654171E+02  1.104654171E+02  0.000000000E+00  0.00000E+00  9.000E+00
      25     1     1     2     0     0  1.101026485E+02  2.884930829E+02  4.302665897E+02  5.441554836E+02  1.250000000E+02  0.00000E+00  9.000E+00
      25     1     1     2     0     0 -2.725110470E+01 -2.834926409E+02  4.483063299E+02  5.456319873E+02  1.250000000E+02  0.00000E+00  9.000E+00
      21     1     1     2   501   511 -8.285154383E+01 -5.000441990E+00  3.496695499E+02  3.593858328E+02  5.394796609E-06  0.00000E+00  9.000E+00
#rwgt            1           1   2.6069054944883548E-002           8      248849           0
</event>
<event>
      5   9999  3.19816E-02  1.91065E+01 -1.00000E+00  1.68024E-01
      21    -1     0     0   502   501  0.000000000E+00  0.000000000E+00  7.049913044E+02  7.049913044E+02  0.000000000E+00  0.00000E+00  9.000E+00
      21    -1     0     0   512   502  0.000000000E+00  0.000000000E+00 -1.842834270E+02  1.842834270E+02  0.000000000E+00  0.00000E+00  9.000E+00
      25     1     1     2     0     0 -2.153300242E+02  5.711937002E+01  1.476205395E+02  2.950363799E+02  1.250000000E+02  0.00000E+00  9.000E+00
      25     1     1     2     0     0  2.341550097E+02 -6.038709916E+01  4.439963671E+02  5.208002922E+02  1.250000000E+02  0.00000E+00  9.000E+00
      21     1     1     2   512   501 -1.882498545E+01  3.267729143E+00 -7.090902928E+01  7.343805937E+01  2.132480600E-06  0.00000E+00  9.000E+00
#rwgt            1           1   2.7140158900216489E-002           8      248947           0
</event>
<event>
      5   9999  3.27075E-02  8.82389E+01 -1.00000E+00  1.26322E-01
      21    -1     0     0   511   501  0.000000000E+00  0.000000000E+00  1.399285174E+03  1.399285174E+03  0.000000000E+00  0.00000E+00  9.000E+00
      21    -1     0     0   501   502  0.000000000E+00  0.000000000E+00 -5.636220932E+02  5.636220932E+02  0.000000000E+00  0.00000E+00  9.000E+00
      25     1     1     2     0     0 -5.203025423E+01 -1.296919144E+02 -2.917443217E+02  3.467951691E+02  1.250000000E+02  0.00000E+00  9.000E+00
      25     1     1     2     0     0  7.714877984E+00  2.059956026E+02 -1.830433918E+02  3.026938898E+02  1.250000000E+02  0.00000E+00  9.000E+00
      21     1     1     2   511   502  4.431537624E+01 -7.630368816E+01  1.310450795E+03  1.313418209E+03  1.525878906E-05  0.00000E+00  9.000E+00
#rwgt            1           1   2.6967577911780671E-002           8      249124           0
</event>
<event>
      5   9999  3.19816E-02  3.23552E+01 -1.00000E+00  1.50794E-01
      21    -1     0     0   502   501  0.000000000E+00  0.000000000E+00  4.008665273E+01  4.008665273E+01  0.000000000E+00  0.00000E+00  9.000E+00
      21    -1     0     0   501   512  0.000000000E+00  0.000000000E+00 -1.704842808E+03  1.704842808E+03  0.000000000E+00  0.00000E+00  9.000E+00
      25     1     1     2     0     0 -2.838203653E+01  1.299879373E+02 -1.038727010E+03  1.054647432E+03  1.250000000E+02  0.00000E+00  9.000E+00
      25     1     1     2     0     0  5.824019075E+01 -1.424519684E+02 -2.819299868E+02  3.446650556E+02  1.250000000E+02  0.00000E+00  9.000E+00
      21     1     1     2   502   512 -2.985815422E+01  1.246403115E+01 -3.440991579E+02  3.456169729E+02  0.000000000E+00  0.00000E+00  9.000E+00
#rwgt            1           1   3.5615598854368095E-002           8      249185           0
</event>
<event>
      5   9999  3.19816E-02  4.47776E+01 -1.00000E+00  1.41865E-01
      21    -1     0     0   502   501  0.000000000E+00  0.000000000E+00  2.211428856E+03  2.211428856E+03  0.000000000E+00  0.00000E+00  9.000E+00
      21    -1     0     0   511   502  0.000000000E+00  0.000000000E+00 -2.207142377E+03  2.207142377E+03  0.000000000E+00  0.00000E+00  9.000E+00
      25     1     1     2     0     0 -1.535550617E+03 -5.654224895E+02 -1.076577373E+03  1.962718046E+03  1.250000000E+02  0.00000E+00  9.000E+00
      25     1     1     2     0     0  1.551568441E+03  6.072371390E+02  1.371583807E+03  2.161705047E+03  1.250000000E+02  0.00000E+00  9.000E+00
      21     1     1     2   511   501 -1.601782442E+01 -4.181464947E+01 -2.907199560E+02  2.941481403E+02  3.814697266E-06  0.00000E+00  9.000E+00
#rwgt            1           1   1.4420474409525428E-002           8      249338           0
</event>
<event>
      5   9999  3.19816E-02  6.91879E+02 -1.00000E+00  9.50033E-02
      21    -1     0     0   502   501  0.000000000E+00  0.000000000E+00  1.883207599E+03  1.883207599E+03  0.000000000E+00  0.00000E+00  9.000E+00
       1    -1     0     0   501     0  0.000000000E+00  0.000000000E+00 -1.006154733E+03  1.006154733E+03  0.000000000E+00  0.00000E+00  9.000E+00
      25     1     1     2     0     0  8.471275119E+02  1.446925846E+02  2.009105005E+02  8.913758997E+02  1.250000000E+02  0.00000E+00  9.000E+00
      25     1     1     2     0     0 -1.801803244E+02  3.936885245E+01  1.142231832E+03  1.163758314E+03  1.250000000E+02  0.00000E+00  9.000E+00
       1     1     1     2   502     0 -6.669471874E+02 -1.840614370E+02 -4.660894666E+02  8.342281189E+02  1.078959322E-05  0.00000E+00  9.000E+00
#rwgt            2          12   4.0203657867353670E-004           8      249865           0
</event>
<event>
      5   9999  3.19816E-02  5.94119E+01 -1.00000E+00  1.34932E-01
      21    -1     0     0   511   501  0.000000000E+00  0.000000000E+00  1.505057371E+02  1.505057371E+02  0.000000000E+00  0.00000E+00  9.000E+00
      21    -1     0     0   501   502  0.000000000E+00  0.000000000E+00 -5.027370037E+02  5.027370037E+02  0.000000000E+00  0.00000E+00  9.000E+00
      25     1     1     2     0     0  1.581604437E+02  1.140759012E+02 -1.021851448E+02  2.531695894E+02  1.250000000E+02  0.00000E+00  9.000E+00
      25     1     1     2     0     0 -1.053386796E+02 -8.687972743E+01 -2.783312745E+02  3.342717799E+02  1.250000000E+02  0.00000E+00  9.000E+00
      21     1     1     2   511   502 -5.282176411E+01 -2.719617379E+01  2.828515268E+01  6.580137153E+01  1.719260824E-06  0.00000E+00  9.000E+00
#rwgt            1           1   2.4243745588315872E-002           8      249884           0
</event>
<event>
      5   9999  3.19816E-02  1.41765E+02 -1.00000E+00  1.17374E-01
      21    -1     0     0   502   512  0.000000000E+00  0.000000000E+00  1.606151814E+02  1.606151814E+02  0.000000000E+00  0.00000E+00  9.000E+00
      21    -1     0     0   501   502  0.000000000E+00  0.000000000E+00 -1.787591474E+03  1.787591474E+03  0.000000000E+00  0.00000E+00  9.000E+00
      25     1     1     2     0     0  2.807334893E+02  3.656657819E+02 -6.246598213E+02  7.863508431E+02  1.250000000E+02  0.00000E+00  9.000E+00
      25     1     1     2     0     0 -1.392509167E+02 -3.746121038E+02 -8.802598255E+02  9.747858260E+02  1.250000000E+02  0.00000E+00  9.000E+00
      21     1     1     2   501   512 -1.414825726E+02  8.946321879E+00 -1.220566462E+02  1.870699866E+02  2.697398305E-06  0.00000E+00  9.000E+00
#rwgt            1           1   2.8161862322909618E-002           8      249965           0
</event>
<event>
      5   9999  3.19816E-02  1.21880E+01 -1.00000E+00  1.86321E-01
      21    -1     0     0   502   511  0.000000000E+00  0.000000000E+00  4.473868029E+02  4.473868029E+02  0.000000000E+00  0.00000E+00  9.000E+00
      21    -1     0     0   501   502  0.000000000E+00  0.000000000E+00 -7.458374102E+01  7.458374102E+01  0.000000000E+00  0.00000E+00  9.000E+00
      25     1     1     2     0     0 -8.797584497E+01 -3.937042453E+01  2.668489801E+02  3.100373490E+02  1.250000000E+02  0.00000E+00  9.000E+00
      25     1     1     2     0     0  9.936715584E+01  4.370474472E+01  8.132286207E+01  1.844514686E+02  1.250000000E+02  0.00000E+00  9.000E+00
      21     1     1     2   501   511 -1.139131087E+01 -4.334320193E+00  2.463121977E+01  2.748172633E+01  0.000000000E+00  0.00000E+00  9.000E+00
#rwgt            1           1   3.5695419152461334E-002           8      250050           0
</event>
<event>
      5   9999  3.19816E-02  9.42002E+01 -1.00000E+00  1.25006E-01
      21    -1     0     0   502   501  0.000000000E+00  0.000000000E+00  9.805748615E+02  9.805748615E+02  0.000000000E+00  0.00000E+00  9.000E+00
      21    -1     0     0   501   512  0.000000000E+00  0.000000000E+00 -9.645266666E+01  9.645266666E+01  0.000000000E+00  0.00000E+00  9.000E+00
      25     1     1     2     0     0 -1.630817720E+02 -3.856565215E+01  1.523182725E+02  2.586674120E+02  1.250000000E+02  0.00000E+00  9.000E+00
      25     1     1     2     0     0  1.574218407E+02 -5.546431431E+01  6.791524075E+02  7.104441700E+02  1.250000000E+02  0.00000E+00  9.000E+00
      21     1     1     2   502   512  5.659931324E+00  9.402996645E+01  5.265151482E+01  1.079159461E+02  6.743495762E-07  0.00000E+00  9.000E+00
#rwgt            1           1   2.7106548615222825E-002           8      250238           0
</event>
<event>
      5   9999  3.86674E-02  8.85649E+01 -1.00000E+00  1.26247E-01
       1    -1     0     0   502     0  0.000000000E+00  0.000000000E+00  2.679329486E+03  2.679329486E+03  0.000000000E+00  0.00000E+00  9.000E+00
      21    -1     0     0   501   502  0.000000000E+00  0.000000000E+00 -5.750449680E+01  5.750449680E+01  0.000000000E+00  0.00000E+00  9.000E+00
      25     1     1     2     0     0 -8.154117994E+01 -2.146089165E+02  1.580791647E+03  1.602258776E+03  1.250000000E+02  0.00000E+00  9.000E+00
      25     1     1     2     0     0  7.010163315E+01  3.024319531E+02  6.223633077E+02  7.066402281E+02  1.250000000E+02  0.00000E+00  9.000E+00
       1     1     1     2   501     0  1.143954679E+01 -8.782303657E+01  4.186700336E+02  4.279349788E+02  9.344061824E-06  0.00000E+00  9.000E+00
#rwgt            1           1  0.11184990602294929                8      250303           0
</event>
<event>
      5   9999  3.19816E-02  4.71765E+00 -1.00000E+00  2.47653E-01
      21    -1     0     0   502   511  0.000000000E+00  0.000000000E+00  3.716561930E+02  3.716561930E+02  0.000000000E+00  0.00000E+00  9.000E+00
      21    -1     0     0   501   502  0.000000000E+00  0.000000000E+00 -1.637774125E+02  1.637774125E+02  0.000000000E+00  0.00000E+00  9.000E+00
      25     1     1     2     0     0  1.186498876E+02 -1.256146681E+02  2.574263564E+01  2.148127649E+02  1.250000000E+02  0.00000E+00  9.000E+00
      25     1     1     2     0     0 -1.157223129E+02  1.219152765E+02  8.938390396E+01  2.277487006E+02  1.250000000E+02  0.00000E+00  9.000E+00
      21     1     1     2   501   511 -2.927574682E+00  3.699391552E+00  9.275224093E+01  9.287214001E+01  0.000000000E+00  0.00000E+00  9.000E+00
#rwgt            1           1   3.0635352404507103E-002           8      250376           0
</event>
<event>
      5   9999  3.19816E-02  1.69102E+02 -1.00000E+00  1.14367E-01
      21    -1     0     0   502   512  0.000000000E+00  0.000000000E+00  9.459509372E+02  9.459509372E+02  0.000000000E+00  0.00000E+00  9.000E+00
      21    -1     0     0   501   502  0.000000000E+00  0.000000000E+00 -1.573248154E+03  1.573248154E+03  0.000000000E+00  0.00000E+00  9.000E+00
      25     1     1     2     0     0 -8.495611126E+02  4.443450477E+02 -6.695487458E+02  1.176060002E+03  1.250000000E+02  0.00000E+00  9.000E+00
      25     1     1     2     0     0  8.041584269E+02 -6.072377213E+02 -2.124768400E+02  1.037390878E+03  1.250000000E+02  0.00000E+00  9.000E+00
      21     1     1     2   501   512  4.540268571E+01  1.628926736E+02  2.547283688E+02  3.057482116E+02  5.394796609E-06  0.00000E+00  9.000E+00
#rwgt            1           1   2.4825970795371053E-002           8      250689           0
</event>
<event>
      5   9999  3.19816E-02  3.11772E+01 -1.00000E+00  1.51888E-01
      21    -1     0     0   502   501  0.000000000E+00  0.000000000E+00  1.101898756E+03  1.101898756E+03  0.000000000E+00  0.00000E+00  9.000E+00
      21    -1     0     0   511   502  0.000000000E+00  0.000000000E+00 -9.092085060E+01  9.092085060E+01  0.000000000E+00  0.00000E+00  9.000E+00
      25     1     1     2     0     0 -1.326388870E+02  1.024302761E+02  7.110566351E+02  7.411555667E+02  1.250000000E+02  0.00000E+00  9.000E+00
      25     1     1     2     0     0  1.253081285E+02 -7.212721297E+01  3.464398821E+02  3.956640669E+02  1.250000000E+02  0.00000E+00  9.000E+00
      21     1     1     2   511   501  7.330758518E+00 -3.030306316E+01 -4.651861214E+01  5.599997261E+01  0.000000000E+00  0.00000E+00  9.000E+00
#rwgt            1           1   2.9021911682900664E-002           8      250774           0
</event>
<event>
      5   9999  3.19816E-02  3.37163E+01 -1.00000E+00  1.49599E-01
      21    -1     0     0   502   501  0.000000000E+00  0.000000000E+00  6.063060922E+02  6.063060922E+02  0.000000000E+00  0.00000E+00  9.000E+00
      21    -1     0     0   512   502  0.000000000E+00  0.000000000E+00 -7.827056601E+02  7.827056601E+02  0.000000000E+00  0.00000E+00  9.000E+00
      25     1     1     2     0     0  2.800494194E+01 -4.994722872E+02 -1.031082725E+02  5.258451847E+02  1.250000000E+02  0.00000E+00  9.000E+00
      25     1     1     2     0     0 -6.041538715E+01  5.087649025E+02  2.174771323E+02  5.704498647E+02  1.250000000E+02  0.00000E+00  9.000E+00
      21     1     1     2   512   501  3.241044521E+01 -9.292615323E+00 -2.907684276E+02  2.927167029E+02  5.394796609E-06  0.00000E+00  9.000E+00
#rwgt            1           1   3.0081337764365459E-002           8      250899           0
</event>
<event>
      5   9999  3.19816E-02  7.17962E+01 -1.00000E+00  1.30666E-01
      21    -1     0     0   502   501  0.000000000E+00  0.000000000E+00  2.312970670E+03  2.312970670E+03  0.000000000E+00  0.00000E+00  9.000E+00
       1    -1     0     0   501     0  0.000000000E+00  0.000000000E+00 -2.432498317E+02  2.432498317E+02  0.000000000E+00  0.00000E+00  9.000E+00
      25     1     1     2     0     0 -1.120962336E+02  8.172909333E+01  2.209733277E+03  2.217609381E+03  1.250000000E+02  0.00000E+00  9.000E+00
      25     1     1     2     0     0  1.835742150E+02 -7.497649134E+01 -8.989092809E+01  2.510504842E+02  1.250000000E+02  0.00000E+00  9.000E+00
       1     1     1     2   502     0 -7.147798132E+01 -6.752601992E+00 -5.012151006E+01  8.756063738E+01  2.780414531E-06  0.00000E+00  9.000E+00
#rwgt            1           1   2.3269980553290690E-002           8      251066           0
</event>
<event>
      5   9999  3.19816E-02  6.48752E+01 -1.00000E+00  1.32915E-01
       2    -1     0     0   502     0  0.000000000E+00  0.000000000E+00  2.813868738E+03  2.813868738E+03  0.000000000E+00  0.00000E+00  9.000E+00
      21    -1     0     0   501   502  0.000000000E+00  0.000000000E+00 -7.450286595E+01  7.450286595E+01  0.000000000E+00  0.00000E+00  9.000E+00
      25     1     1     2     0     0 -3.043891559E+02 -1.604970199E+02  6.794312234E+02  7.717926140E+02  1.250000000E+02  0.00000E+00  9.000E+00
      25     1     1     2     0     0  3.244843553E+02  9.881249589E+01  1.176966975E+03  1.231231199E+03  1.250000000E+02  0.00000E+00  9.000E+00
       2     1     1     2   501     0 -2.009519933E+01  6.168452403E+01  8.829676741E+02  8.853477910E+02  1.078959322E-05  0.00000E+00  9.000E+00
#rwgt            1           1   3.0491594902740084E-002           8      251181           0
</event>
<event>
      5   9999  3.19816E-02  7.22770E+02 -1.00000E+00  9.45088E-02
      21    -1     0     0   511   501  0.000000000E+00  0.000000000E+00  1.399411039E+03  1.399411039E+03  0.000000000E+00  0.00000E+00  9.000E+00
      21    -1     0     0   501   502  0.000000000E+00  0.000000000E+00 -1.390832886E+03  1.390832886E+03  0.000000000E+00  0.00000E+00  9.000E+00
      25     1     1     2     0     0  6.472525320E+02  6.670028312E+02 -6.201129264E+02  1.124274725E+03  1.250000000E+02  0.00000E+00  9.000E+00
      25     1     1     2     0     0  6.752136070E+01 -7.742135157E+02  4.980876015E+02  9.314944770E+02  1.250000000E+02  0.00000E+00  9.000E+00
      21     1     1     2   511   502 -7.147738927E+02  1.072106845E+02  1.306034780E+02  7.344747218E+02  9.725607898E-06  0.00000E+00  9.000E+00
#rwgt            2          11   1.8262312323683314E-003           8      251257           0
</event>
<event>
      5   9999  3.19816E-02  2.47077E+02 -1.00000E+00  1.08405E-01
      21    -1     0     0   502   501  0.000000000E+00  0.000000000E+00  2.166185291E+02  2.166185291E+02  0.000000000E+00  0.00000E+00  9.000E+00
      21    -1     0     0   501   512  0.000000000E+00  0.000000000E+00 -1.887715926E+03  1.887715926E+03  0.000000000E+00  0.00000E+00  9.000E+00
      25     1     1     2     0     0 -1.358603818E+02 -1.389327287E+00 -1.139882977E+03  1.154737275E+03  1.250000000E+02  0.00000E+00  9.000E+00
      25     1     1     2     0     0  3.166456292E+02 -1.670257679E+02 -1.754964661E+01  3.795985402E+02  1.250000000E+02  0.00000E+00  9.000E+00
      21     1     1     2   502   512 -1.807852473E+02  1.684150952E+02 -5.136647729E+02  5.699986393E+02  1.078959322E-05  0.00000E+00  9.000E+00
#rwgt            2          11   2.7215779051156189E-003           8      251412           0
</event>
<event>
      5   9999  3.19816E-02  3.69073E+01 -1.00000E+00  1.47041E-01
      21    -1     0     0   502   501  0.000000000E+00  0.000000000E+00  5.954978969E+02  5.954978969E+02  0.000000000E+00  0.00000E+00  9.000E+00
      21    -1     0     0   501   511  0.000000000E+00  0.000000000E+00 -5.198803714E+02  5.198803714E+02  0.000000000E+00  0.00000E+00  9.000E+00
      25     1     1     2     0     0  2.771585429E+02  2.244507160E+02  3.426973144E+02  5.101582413E+02  1.250000000E+02  0.00000E+00  9.000E+00
      25     1     1     2     0     0 -2.507242960E+02 -1.986945139E+02 -8.033155016E+00  3.435574392E+02  1.250000000E+02  0.00000E+00  9.000E+00
      21     1     1     2   502   511 -2.643424687E+01 -2.575620207E+01 -2.590466339E+02  2.616625878E+02  3.814697266E-06  0.00000E+00  9.000E+00
#rwgt            1           1   2.7304073135869411E-002           8      251432           0
</event>
<event>
      5   9999  3.19816E-02  7.02969E+01 -1.00000E+00  1.31128E-01
      -1    -1     0     0     0   501  0.000000000E+00  0.000000000E+00  1.398450779E+02  1.398450779E+02  0.000000000E+00  0.00000E+00  9.000E+00
      21    -1     0     0   501   502  0.000000000E+00  0.000000000E+00 -2.596574120E+03  2.596574120E+03  0.000000000E+00  0.00000E+00  9.000E+00
      25     1     1     2     0     0 -4.786097598E+01  2.725716279E+02 -1.836791468E+02  3.548929336E+02  1.250000000E+02  0.00000E+00  9.000E+00
      25     1     1     2     0     0  3.988476916E+01 -2.027287337E+02 -2.295164178E+03  2.307833040E+03  1.250000000E+02  0.00000E+00  9.000E+00
      -1     1     1     2     0   502  7.976206819E+00 -6.984289420E+01  2.211428350E+01  7.369322411E+01  2.172096629E-06  0.00000E+00  9.000E+00
#rwgt            1           1   8.0970963725806047E-002           8      251550           0
</event>
<event>
      5   9999  3.19816E-02  9.52905E+01 -1.00000E+00  1.24778E-01
       1    -1     0     0   502     0  0.000000000E+00  0.000000000E+00  1.726269509E+03  1.726269509E+03  0.000000000E+00  0.00000E+00  9.000E+00
      21    -1     0     0   501   502  0.000000000E+00  0.000000000E+00 -4.014836391E+02  4.014836391E+02  0.000000000E+00  0.00000E+00  9.000E+00
      25     1     1     2     0     0 -8.633001764E+01 -2.962390244E+02 -2.360477931E+02  4.081102696E+02  1.250000000E+02  0.00000E+00  9.000E+00
      25     1     1     2     0     0 -1.293709313E+00  2.587908152E+02  1.878285146E+02  3.433349831E+02  1.250000000E+02  0.00000E+00  9.000E+00
       1     1     1     2   501     0  8.762372695E+01  3.744820927E+01  1.373005148E+03  1.376307895E+03  1.525878906E-05  0.00000E+00  9.000E+00
#rwgt            1           1   3.0173133130477307E-002           8      251614           0
</event>
<event>
      5   9999  3.19816E-02  1.35354E+01 -1.00000E+00  1.81693E-01
      21    -1     0     0   502   511  0.000000000E+00  0.000000000E+00  1.287996204E+03  1.287996204E+03  0.000000000E+00  0.00000E+00  9.000E+00
      21    -1     0     0   501   502  0.000000000E+00  0.000000000E+00 -7.600682719E+02  7.600682719E+02  0.000000000E+00  0.00000E+00  9.000E+00
      25     1     1     2     0     0  1.999015105E+02 -5.366492256E+01  5.158322437E+02  5.696915318E+02  1.250000000E+02  0.00000E+00  9.000E+00
      25     1     1     2     0     0 -2.045653474E+02  4.095835450E+01 -7.129037391E+02  7.532471768E+02  1.250000000E+02  0.00000E+00  9.000E+00
      21     1     1     2   501   511  4.663836896E+00  1.270656806E+01  7.249994274E+02  7.251257670E+02  0.000000000E+00  0.00000E+00  9.000E+00
#rwgt            1           1   2.8060594773534869E-002           8      251725           0
</event>
<event>
      5   9999  3.19816E-02  6.61285E+01 -1.00000E+00  1.32484E-01
      21    -1     0     0   502   501  0.000000000E+00  0.000000000E+00  1.728322620E+02  1.728322620E+02  0.000000000E+00  0.00000E+00  9.000E+00
       2    -1     0     0   501     0  0.000000000E+00  0.000000000E+00 -2.103872433E+03  2.103872433E+03  0.000000000E+00  0.00000E+00  9.000E+00
      25     1     1     2     0     0 -1.507255717E+01  1.268940860E+02 -1.011242504E+03  1.026920490E+03  1.250000000E+02  0.00000E+00  9.000E+00
      25     1     1     2     0     0  6.593007115E+01 -1.691610750E+02  8.980570694E+01  2.380174543E+02  1.250000000E+02  0.00000E+00  9.000E+00
       2     1     1     2   502     0 -5.085751398E+01  4.226698894E+01 -1.009603374E+03  1.011766751E+03  1.078959322E-05  0.00000E+00  9.000E+00
#rwgt            1           1   2.7777515983694455E-002           8      251939           0
</event>
<event>
      5   9999  3.19816E-02  5.46046E+02 -1.00000E+00  9.77771E-02
       2    -1     0     0   502     0  0.000000000E+00  0.000000000E+00  1.927609103E+03  1.927609103E+03  0.000000000E+00  0.00000E+00  9.000E+00
      21    -1     0     0   501   502  0.000000000E+00  0.000000000E+00 -6.726196992E+02  6.726196992E+02  0.000000000E+00  0.00000E+00  9.000E+00
      25     1     1     2     0     0 -1.737065803E+02 -4.092834379E+02  3.823895749E+02  5.996112870E+02  1.250000000E+02  0.00000E+00  9.000E+00
      25     1     1     2     0     0 -3.708353524E+02  4.497812830E+02 -3.288704749E+02  6.808838744E+02  1.250000000E+02  0.00000E+00  9.000E+00
       2     1     1     2   501     0  5.445419326E+02 -4.049784515E+01  1.201470304E+03  1.319733641E+03  3.411968960E-05  0.00000E+00  9.000E+00
#rwgt            2          18   1.5185453847472447E-003           8      252104           0
</event>
<event>
      5   9999  3.19816E-02  6.90418E+01 -1.00000E+00  1.31525E-01
      21    -1     0     0   511   501  0.000000000E+00  0.000000000E+00  5.832561337E+02  5.832561337E+02  0.000000000E+00  0.00000E+00  9.000E+00
      21    -1     0     0   501   502  0.000000000E+00  0.000000000E+00 -8.751154173E+02  8.751154173E+02  0.000000000E+00  0.00000E+00  9.000E+00
      25     1     1     2     0     0 -3.534993800E+02 -5.345436647E+02 -3.110593276E+02  7.232438361E+02  1.250000000E+02  0.00000E+00  9.000E+00
      25     1     1     2     0     0  4.136902346E+02  5.007231642E+02 -6.491281639E+00  6.614608334E+02  1.250000000E+02  0.00000E+00  9.000E+00
      21     1     1     2   511   502 -6.019085454E+01  3.382050055E+01  2.569132562E+01  7.366688157E+01  1.685873940E-06  0.00000E+00  9.000E+00
#rwgt            1           1   2.5765982186788515E-002           8      252123           0
</event>
<event>
      5   9999  3.19816E-02  4.14805E+01 -1.00000E+00  1.43868E-01
      21    -1     0     0   502   501  0.000000000E+00  0.000000000E+00  7.137387011E+02  7.137387011E+02  0.000000000E+00  0.00000E+00  9.000E+00
      21    -1     0     0   512   502  0.000000000E+00  0.000000000E+00 -3.325192669E+02  3.325192669E+02  0.000000000E+00  0.00000E+00  9.000E+00
      25     1     1     2     0     0 -6.979624282E+01 -1.075691506E+02  5.097686987E+01  1.861888260E+02  1.250000000E+02  0.00000E+00  9.000E+00
      25     1     1     2     0     0  1.059390668E+02  8.721417173E+01  5.789232201E+02  6.079527057E+02  1.250000000E+02  0.00000E+00  9.000E+00
      21     1     1     2   512   501 -3.614282402E+01  2.035497882E+01 -2.486806558E+02  2.521164363E+02  0.000000000E+00  0.00000E+00  9.000E+00
#rwgt            1           1   2.8144408181673280E-002           8      252272           0
</event>
<event>
      5   9999  3.19816E-02  3.00025E+01 -1.00000E+00  1.53037E-01
      21    -1     0     0   502   511  0.000000000E+00  0.000000000E+00  2.766014527E+02  2.766014527E+02  0.000000000E+00  0.00000E+00  9.000E+00
      21    -1     0     0   501   502  0.000000000E+00  0.000000000E+00 -2.367561449E+02  2.367561449E+02  0.000000000E+00  0.00000E+00  9.000E+00
      25     1     1     2     0     0 -1.129379960E+02 -6.321261390E+01  1.535775317E+02  2.365626423E+02  1.250000000E+02  0.00000E+00  9.000E+00
      25     1     1     2     0     0  1.423792487E+02  6.898863957E+01 -1.326232730E+02  2.413404554E+02  1.250000000E+02  0.00000E+00  9.000E+00
      21     1     1     2   501   511 -2.944125264E+01 -5.776025672E+00  1.889104908E+01  3.545449993E+01  2.384185791E-07  0.00000E+00  9.000E+00
#rwgt            1           1   2.6331168615024814E-002           8      252402           0
</event>
<event>
      5   9999  3.19816E-02  9.23568E+01 -1.00000E+00  1.25401E-01
      21    -1     0     0   502   501  0.000000000E+00  0.000000000E+00  3.567959548E+02  3.567959548E+02  0.000000000E+00  0.00000E+00  9.000E+00
       1    -1     0     0   501     0  0.000000000E+00  0.000000000E+00 -1.851231997E+03  1.851231997E+03  0.000000000E+00  0.00000E+00  9.000E+00
      25     1     1     2     0     0 -1.094621038E+02 -2.504102440E+02  2.077203643E+01  3.012369830E+02  1.250000000E+02  0.00000E+00  9.000E+00
      25     1     1     2     0     0  1.733210042E+01  2.439416058E+02  9.749795089E+01  2.914425487E+02  1.250000000E+02  0.00000E+00  9.000E+00
       1     1     1     2   502     0  9.213000335E+01  6.468638175E+00 -1.612706029E+03  1.615348420E+03  2.157918644E-05  0.00000E+00  9.000E+00
#rwgt            1           1   3.0977901267153048E-002           8      252522           0
</event>
<event>
      5   9999  3.19816E-02  1.64679E+01 -1.00000E+00  1.73647E-01
      21    -1     0     0   511   501  0.000000000E+00  0.000000000E+00  2.405532200E+02  2.405532200E+02  0.000000000E+00  0.00000E+00  9.000E+00
      21    -1     0     0   501   502  0.000000000E+00  0.000000000E+00 -1.176366416E+03  1.176366416E+03  0.000000000E+00  0.00000E+00  9.000E+00
      25     1     1     2     0     0  8.139669506E+01  9.001159443E+01 -2.885845942E+02  3.370957981E+02  1.250000000E+02  0.00000E+00  9.000E+00
      25     1     1     2     0     0 -9.297308576E+01 -1.017239230E+02 -8.531718047E+02  8.732232702E+02  1.250000000E+02  0.00000E+00  9.000E+00
      21     1     1     2   511   502  1.157639070E+01  1.171232857E+01  2.059432032E+02  2.066005673E+02  2.697398305E-06  0.00000E+00  9.000E+00
#rwgt            1           1   2.5416738660197728E-002           8      252581           0
</event>
<event>
      5   9999  3.19816E-02  9.68043E+00 -1.00000E+00  1.97402E-01
      21    -1     0     0   512   501  0.000000000E+00  0.000000000E+00  5.332389713E+01  5.332389713E+01  0.000000000E+00  0.00000E+00  9.000E+00
      21    -1     0     0   501   502  0.000000000E+00  0.000000000E+00 -1.567526801E+03  1.567526801E+03  0.000000000E+00  0.00000E+00  9.000E+00
      25     1     1     2     0     0  1.069917653E+02 -1.858990907E+02 -5.639092475E+02  6.161366319E+02  1.250000000E+02  0.00000E+00  9.000E+00
      25     1     1     2     0     0 -1.142637733E+02  1.922888174E+02 -9.584160963E+02  9.920774228E+02  1.250000000E+02  0.00000E+00  9.000E+00
      21     1     1     2   512   502  7.272008034E+00 -6.389726788E+00  8.122440342E+00  1.263664300E+01  5.331201500E-07  0.00000E+00  9.000E+00
#rwgt            1           1   3.3692533877512511E-002           8      252695           0
</event>
<event>
      5   9999  3.19816E-02  1.82909E+02 -1.00000E+00  1.13079E-01
       2    -1     0     0   502     0  0.000000000E+00  0.000000000E+00  1.336531050E+03  1.336531050E+03  0.000000000E+00  0.00000E+00  9.000E+00
      21    -1     0     0   501   502  0.000000000E+00  0.000000000E+00 -6.530201058E+02  6.530201058E+02  0.000000000E+00  0.00000E+00  9.000E+00
      25     1     1     2     0     0  2.379766753E+02  2.276574108E+02 -4.872387761E+02  6.012382387E+02  1.250000000E+02  0.00000E+00  9.000E+00
      25     1     1     2     0     0 -3.704326324E+02 -3.537962708E+02  6.535876443E+02  8.397582659E+02  1.250000000E+02  0.00000E+00  9.000E+00
       2     1     1     2   501     0  1.324559571E+02  1.261388600E+02  5.171620756E+02  5.485546509E+02  1.525878906E-05  0.00000E+00  9.000E+00
#rwgt            1           1   3.0132733936694307E-002           8      252905           0
</event>
<event>
      5   9999  3.19816E-02  1.74336E+01 -1.00000E+00  1.71445E-01
      21    -1     0     0   511   501  0.000000000E+00  0.000000000E+00  6.149938425E+01  6.149938425E+01  0.000000000E+00  0.00000E+00  9.000E+00
      21    -1     0     0   501   502  0.000000000E+00  0.000000000E+00 -9.568285250E+02  9.568285250E+02  0.000000000E+00  0.00000E+00  9.000E+00
      25     1     1     2     0     0  1.828097258E+02 -1.934954018E+01 -4.018674268E+02  4.592561695E+02  1.250000000E+02  0.00000E+00  9.000E+00
      25     1     1     2     0     0 -1.979488416E+02  2.799467430E+01 -4.858687411E+02  5.400563668E+02  1.250000000E+02  0.00000E+00  9.000E+00
      21     1     1     2   511   502  1.513911582E+01 -8.645134117E+00 -7.592972888E+00  1.901537297E+01  4.460403188E-07  0.00000E+00  9.000E+00
#rwgt            1           1   2.7124899867129210E-002           8      253020           0
</event>
<event>
      5   9999  3.19816E-02  1.20485E+01 -1.00000E+00  1.86844E-01
      21    -1     0     0   502   501  0.000000000E+00  0.000000000E+00  2.182888822E+02  2.182888822E+02  0.000000000E+00  0.00000E+00  9.000E+00
      21    -1     0     0   512   502  0.000000000E+00  0.000000000E+00 -1.682124437E+03  1.682124437E+03  0.000000000E+00  0.00000E+00  9.000E+00
      25     1     1     2     0     0  1.010471955E+02  1.359231103E+02  1.299986791E+02  2.474071224E+02  1.250000000E+02  0.00000E+00  9.000E+00
      25     1     1     2     0     0 -1.006722462E+02 -1.479658109E+02 -3.735208954E+02  4.326333802E+02  1.250000000E+02  0.00000E+00  9.000E+00
      21     1     1     2   512   501 -3.749492936E-01  1.204270064E+01 -1.220313338E+03  1.220372816E+03  2.157918644E-05  0.00000E+00  9.000E+00
#rwgt            1           1   2.7773398881285011E-002           8      253200           0
</event>
<event>
      5   9999  3.19816E-02  3.59485E+01 -1.00000E+00  1.47776E-01
      21    -1     0     0   511   501  0.000000000E+00  0.000000000E+00  1.272617384E+02  1.272617384E+02  0.000000000E+00  0.00000E+00  9.000E+00
      21    -1     0     0   501   502  0.000000000E+00  0.000000000E+00 -4.549852110E+02  4.549852110E+02  0.000000000E+00  0.00000E+00  9.000E+00
      25     1     1     2     0     0  1.295315068E+02  9.618301679E+01 -2.611336185E+02  3.314292544E+02  1.250000000E+02  0.00000E+00  9.000E+00
      25     1     1     2     0     0 -1.489538505E+02 -6.593289706E+01 -6.254565413E+01  2.146423894E+02  1.250000000E+02  0.00000E+00  9.000E+00
      21     1     1     2   511   502  1.942234371E+01 -3.025011973E+01 -4.044199963E+00  3.617530556E+01  6.419616708E-07  0.00000E+00  9.000E+00
#rwgt            1           1   3.0537948530408941E-002           8      253411           0
</event>
<event>
      5   9999  3.19816E-02  1.49625E+02 -1.00000E+00  1.16437E-01
      21    -1     0     0   502   501  0.000000000E+00  0.000000000E+00  1.128450394E+03  1.128450394E+03  0.000000000E+00  0.00000E+00  9.000E+00
      21    -1     0     0   501   512  0.000000000E+00  0.000000000E+00 -4.016871190E+02  4.016871190E+02  0.000000000E+00  0.00000E+00  9.000E+00
      25     1     1     2     0     0  1.592836090E+02 -4.347236829E+02  7.981873544E+02  9.311734539E+02  1.250000000E+02  0.00000E+00  9.000E+00
      25     1     1     2     0     0 -2.296670672E+02  3.026870147E+02  5.413655092E+01  4.036361688E+02  1.250000000E+02  0.00000E+00  9.000E+00
      21     1     1     2   502   512  7.038345825E+01  1.320366682E+02 -1.255606301E+02  1.953278904E+02  3.303624740E-06  0.00000E+00  9.000E+00
#rwgt            1           1   2.6587655106275018E-002           8      253569           0
</event>
<event>
      5   9999  3.19816E-02  1.99436E+02 -1.00000E+00  1.11693E-01
       1    -1     0     0   502     0  0.000000000E+00  0.000000000E+00  3.167583583E+03  3.167583583E+03  0.000000000E+00  0.00000E+00  9.000E+00
      21    -1     0     0   501   502  0.000000000E+00  0.000000000E+00 -1.262786449E+02  1.262786449E+02  0.000000000E+00  0.00000E+00  9.000E+00
      25     1     1     2     0     0  3.007187702E+02  3.391933745E+02  7.563995918E+02  8.906454213E+02  1.250000000E+02  0.00000E+00  9.000E+00
      25     1     1     2     0     0 -3.404054777E+02 -1.437463773E+02  6.641191843E+02  7.702065964E+02  1.250000000E+02  0.00000E+00  9.000E+00
       1     1     1     2   501     0  3.968670753E+01 -1.954469972E+02  1.620786162E+03  1.633010211E+03  2.157918644E-05  0.00000E+00  9.000E+00
#rwgt            1           1   2.9788997107492662E-002           8      253682           0
</event>
<event>
      5   9999  3.19816E-02  6.69781E+01 -1.00000E+00  1.32199E-01
      21    -1     0     0   502   501  0.000000000E+00  0.000000000E+00  1.816645902E+02  1.816645902E+02  0.000000000E+00  0.00000E+00  9.000E+00
      21    -1     0     0   511   502  0.000000000E+00  0.000000000E+00 -2.483041979E+02  2.483041979E+02  0.000000000E+00  0.00000E+00  9.000E+00
      25     1     1     2     0     0 -9.511287525E+01  2.711929099E+01 -2.290483601E+01  1.610327498E+02  1.250000000E+02  0.00000E+00  9.000E+00
      25     1     1     2     0     0  1.539590590E+02  4.868082920E+00 -3.202276018E+01  2.009416514E+02  1.250000000E+02  0.00000E+00  9.000E+00
      21     1     1     2   511   501 -5.884618378E+01 -3.198737391E+01 -1.171201153E+01  6.799438690E+01  1.180111758E-06  0.00000E+00  9.000E+00
#rwgt            1           1   2.8688833410760367E-002           8      253763           0
</event>
<event>
      5   9999  3.19816E-02  1.80026E+02 -1.00000E+00  1.13337E-01
      21    -1     0     0   502   501  0.000000000E+00  0.000000000E+00  1.014384606E+03  1.014384606E+03  0.000000000E+00  0.00000E+00  9.000E+00
      21    -1     0     0   512   502  0.000000000E+00  0.000000000E+00 -5.298642980E+02  5.298642980E+02  0.000000000E+00  0.00000E+00  9.000E+00
      25     1     1     2     0     0  2.364094071E+02  1.597996866E+02  9.096918325E+02  9.615558110E+02  1.250000000E+02  0.00000E+00  9.000E+00
      25     1     1     2     0     0 -5.679754624E+01 -1.475954478E+02 -1.399196052E+02  2.453831155E+02  1.250000000E+02  0.00000E+00  9.000E+00
      21     1     1     2   512   501 -1.796118608E+02 -1.220423883E+01 -2.852519188E+02  3.373099779E+02  3.814697266E-06  0.00000E+00  9.000E+00
#rwgt            1           1   2.9926854923703835E-002           8      253827           0
</event>
<event>
      5   9999  3.19816E-02  7.04780E+01 -1.00000E+00  1.31071E-01
      21    -1     0     0   502   501  0.000000000E+00  0.000000000E+00  9.695824309E+01  9.695824309E+01  0.000000000E+00  0.00000E+00  9.000E+00
       2    -1     0     0   501     0  0.000000000E+00  0.000000000E+00 -1.432002222E+03  1.432002222E+03  0.000000000E+00  0.00000E+00  9.000E+00
      25     1     1     2     0     0 -2.086308384E+02  2.248340782E+02 -5.762882373E+02  6.646881388E+02  1.250000000E+02  0.00000E+00  9.000E+00
      25     1     1     2     0     0  1.406597508E+02 -2.434639966E+02 -4.343644588E+02  5.323132219E+02  1.250000000E+02  0.00000E+00  9.000E+00
       2     1     1     2   502     0  6.797108764E+01  1.862991839E+01 -3.243912830E+02  3.319591046E+02  5.394796609E-06  0.00000E+00  9.000E+00
#rwgt            1           1   2.8355094204297403E-002           8      253888           0
</event>
<event>
      5   9999  3.19816E-02  3.40359E+02 -1.00000E+00  1.03841E-01
      -2    -1     0     0     0   501  0.000000000E+00  0.000000000E+00  1.184325655E+03  1.184325655E+03  0.000000000E+00  0.00000E+00  9.000E+00
      21    -1     0     0   501   502  0.000000000E+00  0.000000000E+00 -1.410994802E+03  1.410994802E+03  0.000000000E+00  0.00000E+00  9.000E+00
      25     1     1     2     0     0  6.178593858E+02  7.719574871E+01 -9.079100488E+02  1.107986941E+03  1.250000000E+02  0.00000E+00  9.000E+00
      25     1     1     2     0     0 -9.487647146E+02 -1.568577054E+02  4.131766611E+02  1.054086703E+03  1.250000000E+02  0.00000E+00  9.000E+00
      -2     1     1     2     0   502  3.309053288E+02  7.966195664E+01  2.680642407E+02  4.332468131E+02  6.607249480E-06  0.00000E+00  9.000E+00
#rwgt            2           4   6.7584133987830957E-005           8      253976           0
</event>
<event>
      5   9999  3.19816E-02  1.12830E+02 -1.00000E+00  1.21515E-01
      21    -1     0     0   502   511  0.000000000E+00  0.000000000E+00  4.703647220E+02  4.703647220E+02  0.000000000E+00  0.00000E+00  9.000E+00
      21    -1     0     0   501   502  0.000000000E+00  0.000000000E+00 -1.532985966E+03  1.532985966E+03  0.000000000E+00  0.00000E+00  9.000E+00
      25     1     1     2     0     0  3.141531914E+02  7.402297858E+02 -4.180835917E+02  9.149050514E+02  1.250000000E+02  0.00000E+00  9.000E+00
      25     1     1     2     0     0 -2.102658593E+02 -6.962062016E+02 -6.378902421E+02  9.754197905E+02  1.250000000E+02  0.00000E+00  9.000E+00
      21     1     1     2   501   511 -1.038873321E+02 -4.402358423E+01 -6.647409670E+00  1.130258457E+02  2.122461058E-06  0.00000E+00  9.000E+00
#rwgt            1           1   2.0813322442356626E-002           8      254070           0
</event>
<event>
      5   9999  3.19816E-02  3.91959E+01 -1.00000E+00  1.45389E-01
      21    -1     0     0   502   501  0.000000000E+00  0.000000000E+00  2.886779157E+02  2.886779157E+02  0.000000000E+00  0.00000E+00  9.000E+00
      21    -1     0     0   501   512  0.000000000E+00  0.000000000E+00 -6.896730487E+02  6.896730487E+02  0.000000000E+00  0.00000E+00  9.000E+00
      25     1     1     2     0     0  2.113155713E+02 -2.109024113E+02 -1.486762857E+02  3.561793589E+02  1.250000000E+02  0.00000E+00  9.000E+00
      25     1     1     2     0     0 -1.726824761E+02  2.175205699E+02  5.744783368E+01  3.099349762E+02  1.250000000E+02  0.00000E+00  9.000E+00
      21     1     1     2   502   512 -3.863309522E+01 -6.618158550E+00 -3.097666810E+02  3.122366294E+02  3.814697266E-06  0.00000E+00  9.000E+00
#rwgt            1           1   2.7016200259635886E-002           8      254176           0
</event>
<event>
      5   9999  3.19816E-02  2.91275E+01 -1.00000E+00  1.53936E-01
      21    -1     0     0   511   501  0.000000000E+00  0.000000000E+00  2.286690930E+03  2.286690930E+03  0.000000000E+00  0.00000E+00  9.000E+00
      21    -1     0     0   501   502  0.000000000E+00  0.000000000E+00 -1.749726773E+03  1.749726773E+03  0.000000000E+00  0.00000E+00  9.000E+00
      25     1     1     2     0     0 -4.249590437E+02 -2.749138672E+01 -2.152718902E+02  4.932676270E+02  1.250000000E+02  0.00000E+00  9.000E+00
      25     1     1     2     0     0  4.461035884E+02  4.752430980E+01 -1.356496837E+03  1.434216037E+03  1.250000000E+02  0.00000E+00  9.000E+00
      21     1     1     2   511   502 -2.114454469E+01 -2.003292308E+01  2.108732883E+03  2.108934039E+03  4.315837288E-05  0.00000E+00  9.000E+00
#rwgt            1           1   2.8210813089419702E-002           8      254306           0
</event>
<event>
      5   9999  3.19816E-02  3.18550E+01 -1.00000E+00  1.51252E-01
      21    -1     0     0   502   512  0.000000000E+00  0.000000000E+00  4.737707158E+02  4.737707158E+02  0.000000000E+00  0.00000E+00  9.000E+00
      21    -1     0     0   501   502  0.000000000E+00  0.000000000E+00 -1.819014434E+03  1.819014434E+03  0.000000000E+00  0.00000E+00  9.000E+00
      25     1     1     2     0     0  1.268837546E+02  1.027116244E+02 -1.777740467E+03  1.789590828E+03  1.250000000E+02  0.00000E+00  9.000E+00
      25     1     1     2     0     0 -1.061198662E+02 -1.268694881E+02  4.210870026E+02  4.693576001E+02  1.250000000E+02  0.00000E+00  9.000E+00
      21     1     1     2   501   512 -2.076388837E+01  2.415786362E+01  1.140974586E+01  3.383672170E+01  6.078504936E-07  0.00000E+00  9.000E+00
#rwgt            1           1   3.1560043268865717E-002           8      254445           0
</event>
<event>
      5   9999  3.19816E-02  3.65110E+01 -1.00000E+00  1.47342E-01
      21    -1     0     0   511   501  0.000000000E+00  0.000000000E+00  1.398900886E+03  1.398900886E+03  0.000000000E+00  0.00000E+00  9.000E+00
      21    -1     0     0   501   502  0.000000000E+00  0.000000000E+00 -1.097845602E+02  1.097845602E+02  0.000000000E+00  0.00000E+00  9.000E+00
      25     1     1     2     0     0 -3.017184342E+02  2.023635875E+02  6.007963101E+02  7.131383045E+02  1.250000000E+02  0.00000E+00  9.000E+00
      25     1     1     2     0     0  2.859513823E+02 -1.694325899E+02  5.685483375E+02  6.703341015E+02  1.250000000E+02  0.00000E+00  9.000E+00
      21     1     1     2   511   502  1.576705193E+01 -3.293099760E+01  1.197716783E+02  1.252130403E+02  1.907348633E-06  0.00000E+00  9.000E+00
#rwgt            1           1   2.7742708496508721E-002           8      254614           0
</event>
<event>
      5   9999  3.19816E-02  2.84760E+01 -1.00000E+00  1.54629E-01
      21    -1     0     0   502   501  0.000000000E+00  0.000000000E+00  2.137926469E+03  2.137926469E+03  0.000000000E+00  0.00000E+00  9.000E+00
       2    -1     0     0   501     0  0.000000000E+00  0.000000000E+00 -1.710696956E+03  1.710696956E+03  0.000000000E+00  0.00000E+00  9.000E+00
      25     1     1     2     0     0  3.104205040E+02 -1.795772788E+00  1.916314608E+03  1.945315088E+03  1.250000000E+02  0.00000E+00  9.000E+00
      25     1     1     2     0     0 -3.387046433E+02 -1.504528290E+00  4.953933308E+01  3.644204228E+02  1.250000000E+02  0.00000E+00  9.000E+00
       2     1     1     2   502     0  2.828413927E+01  3.300301078E+00 -1.538624428E+03  1.538887915E+03  2.157918644E-05  0.00000E+00  9.000E+00
#rwgt            1           1   2.8149213790378370E-002           8      254785           0
</event>
<event>
      5   9999  3.19816E-02  2.47248E+02 -1.00000E+00  1.08395E-01
      21    -1     0     0   502   501  0.000000000E+00  0.000000000E+00  1.378144170E+02  1.378144170E+02  0.000000000E+00  0.00000E+00  9.000E+00
      21    -1     0     0   501   511  0.000000000E+00  0.000000000E+00 -2.468851231E+03  2.468851231E+03  0.000000000E+00  0.00000E+00  9.000E+00
      25     1     1     2     0     0  3.596502941E+02  2.793944283E+02 -7.355963343E+02  8.741490420E+02  1.250000000E+02  0.00000E+00  9.000E+00
      25     1     1     2     0     0 -3.928222470E+02 -3.438158238E+01 -8.170011937E+02  9.157550772E+02  1.250000000E+02  0.00000E+00  9.000E+00
      21     1     1     2   502   511  3.317195287E+01 -2.450128459E+02 -7.784392862E+02  8.167615290E+02  0.000000000E+00  0.00000E+00  9.000E+00
#rwgt            2          11   1.7909172804121667E-003           8      254969           0
</event>
<event>
      5   9999  3.19816E-02  7.84422E+02 -1.00000E+00  9.35961E-02
       1    -1     0     0   502     0  0.000000000E+00  0.000000000E+00  2.135601072E+03  2.135601072E+03  0.000000000E+00  0.00000E+00  9.000E+00
      21    -1     0     0   501   502  0.000000000E+00  0.000000000E+00 -5.668888191E+02  5.668888191E+02  0.000000000E+00  0.00000E+00  9.000E+00
      25     1     1     2     0     0 -2.058591665E+02  9.516093679E+02  2.488520226E+02  1.012665154E+03  1.250000000E+02  0.00000E+00  9.000E+00
      25     1     1     2     0     0  1.464350382E+02 -1.694411343E+02  4.543369439E+02  5.217284514E+02  1.250000000E+02  0.00000E+00  9.000E+00
       1     1     1     2   501     0  5.942412834E+01 -7.821682337E+02  8.655232864E+02  1.168096285E+03  1.078959322E-05  0.00000E+00  9.000E+00
#rwgt            2          17   3.7012935877586304E-004           8      254989           0
</event>
<event>
      5   9999  3.19816E-02  1.07516E+02 -1.00000E+00  1.22429E-01
       2    -1     0     0   502     0  0.000000000E+00  0.000000000E+00  2.048913351E+03  2.048913351E+03  0.000000000E+00  0.00000E+00  9.000E+00
      21    -1     0     0   501   502  0.000000000E+00  0.000000000E+00 -2.492242623E+02  2.492242623E+02  0.000000000E+00  0.00000E+00  9.000E+00
      25     1     1     2     0     0 -2.183279872E+02  4.233437238E+01  1.780406576E+02  3.110993167E+02  1.250000000E+02  0.00000E+00  9.000E+00
      25     1     1     2     0     0  3.108435493E+02  1.244229491E+01 -2.563959941E+01  3.362453151E+02  1.250000000E+02  0.00000E+00  9.000E+00
       2     1     1     2   501     0 -9.251556209E+01 -5.477666729E+01  1.647288030E+03  1.650792981E+03  2.157918644E-05  0.00000E+00  9.000E+00
#rwgt            1           1   2.9952907569105652E-002           8      255008           0
</event>
<event>
      5   9999  3.19816E-02  6.43716E+01 -1.00000E+00  1.33091E-01
      21    -1     0     0   502   501  0.000000000E+00  0.000000000E+00  3.765075232E+02  3.765075232E+02  0.000000000E+00  0.00000E+00  9.000E+00
       2    -1     0     0   501     0  0.000000000E+00  0.000000000E+00 -4.405299371E+02  4.405299371E+02  0.000000000E+00  0.00000E+00  9.000E+00
      25     1     1     2     0     0  3.036347393E+02  1.222082334E+02  1.652299523E+02  3.873691319E+02  1.250000000E+02  0.00000E+00  9.000E+00
      25     1     1     2     0     0 -2.585206950E+02 -7.629069063E+01 -1.707605971E+02  3.426914075E+02  1.250000000E+02  0.00000E+00  9.000E+00
       2     1     1     2   502     0 -4.511404428E+01 -4.591754274E+01 -5.849176914E+01  8.697692096E+01  9.536743164E-07  0.00000E+00  9.000E+00
#rwgt            1           1   2.8568685323689485E-002           8      255088           0
</event>
<event>
      5   9999  3.19816E-02  2.51369E+02 -1.00000E+00  1.08149E-01
      21    -1     0     0   502   501  0.000000000E+00  0.000000000E+00  9.391547794E+01  9.391547794E+01  0.000000000E+00  0.00000E+00  9.000E+00
       2    -1     0     0   501     0  0.000000000E+00  0.000000000E+00 -2.033393484E+03  2.033393484E+03  0.000000000E+00  0.00000E+00  9.000E+00
      25     1     1     2     0     0 -1.808024115E+02  1.048069100E+02 -8.071934169E+02  8.431252651E+02  1.250000000E+02  0.00000E+00  9.000E+00
      25     1     1     2     0     0 -5.576369675E+01 -1.982010173E+01 -1.516324591E+01  1.391306952E+02  1.250000000E+02  0.00000E+00  9.000E+00
       2     1     1     2   502     0  2.365661082E+02 -8.498680824E+01 -1.117121343E+03  1.145053002E+03  1.525878906E-05  0.00000E+00  9.000E+00
#rwgt            1           1   2.9651609916570617E-002           8      255184           0
</event>
<event>
      5   9999  3.19816E-02  2.87580E+02 -1.00000E+00  1.06192E-01
      21    -1     0     0   502   501  0.000000000E+00  0.000000000E+00  2.879171576E+02  2.879171576E+02  0.000000000E+00  0.00000E+00  9.000E+00
      21    -1     0     0   501   511  0.000000000E+00  0.000000000E+00 -2.142082476E+03  2.142082476E+03  0.000000000E+00  0.00000E+00  9.000E+00
      25     1     1     2     0     0  4.938317912E+02 -1.893808019E+02 -1.188643870E+03  1.306994329E+03  1.250000000E+02  0.00000E+00  9.000E+00
      25     1     1     2     0     0 -5.471382948E+02 -9.321541057E+01 -2.591411962E+02  6.251628475E+02  1.250000000E+02  0.00000E+00  9.000E+00
      21     1     1     2   502   511  5.330650359E+01  2.825962125E+02 -4.063802522E+02  4.978424570E+02  0.000000000E+00  0.00000E+00  9.000E+00
#rwgt            1           1   2.6750884120734616E-002           8      255213           0
</event>
<event>
      5   9999  3.19816E-02  4.72482E+01 -1.00000E+00  1.40493E-01
      21    -1     0     0   502   501  0.000000000E+00  0.000000000E+00  3.397428049E+02  3.397428049E+02  0.000000000E+00  0.00000E+00  9.000E+00
      21    -1     0     0   501   512  0.000000000E+00  0.000000000E+00 -4.886401118E+02  4.886401118E+02  0.000000000E+00  0.00000E+00  9.000E+00
      25     1     1     2     0     0  3.372179853E+01  2.704016453E+01  1.994786870E+02  2.393430107E+02  1.250000000E+02  0.00000E+00  9.000E+00
      25     1     1     2     0     0 -4.649017286E+01  1.845002087E+01  8.096610383E+01  1.571058542E+02  1.250000000E+02  0.00000E+00  9.000E+00
      21     1     1     2   502   512  1.276837433E+01 -4.549018540E+01 -4.293420977E+02  4.319340519E+02  7.629394531E-06  0.00000E+00  9.000E+00
#rwgt            1           1   1.2870890951804619E-002           8      255279           0
</event>
<event>
      5   9999  3.19816E-02  1.95860E+02 -1.00000E+00  1.11980E-01
      21    -1     0     0   502   501  0.000000000E+00  0.000000000E+00  1.630618657E+03  1.630618657E+03  0.000000000E+00  0.00000E+00  9.000E+00
      21    -1     0     0   501   511  0.000000000E+00  0.000000000E+00 -1.879342774E+02  1.879342774E+02  0.000000000E+00  0.00000E+00  9.000E+00
      25     1     1     2     0     0  1.565233160E+02 -2.957691548E+02  4.542449824E+02  5.778775349E+02  1.250000000E+02  0.00000E+00  9.000E+00
      25     1     1     2     0     0 -7.195742371E+01  4.724316387E+02  8.981177876E+02  1.024992724E+03  1.250000000E+02  0.00000E+00  9.000E+00
      21     1     1     2   502   511 -8.456589224E+01 -1.766624839E+02  9.032160975E+01  2.156826755E+02  3.303624740E-06  0.00000E+00  9.000E+00
#rwgt            1           1   2.7301251010583116E-002           8      255355           0
</event>
<event>
      5   9999  3.19816E-02  1.01626E+02 -1.00000E+00  1.23514E-01
      21    -1     0     0   502   501  0.000000000E+00  0.000000000E+00  1.199543148E+03  1.199543148E+03  0.000000000E+00  0.00000E+00  9.000E+00
      21    -1     0     0   512   502  0.000000000E+00  0.000000000E+00 -8.682599650E+01  8.682599650E+01  0.000000000E+00  0.00000E+00  9.000E+00
      25     1     1     2     0     0 -1.192500296E+02 -2.313903366E+02  7.035360612E+02  7.604932918E+02  1.250000000E+02  0.00000E+00  9.000E+00
      25     1     1     2     0     0  2.881367893E+01  1.850312462E+02  3.159421093E+02  3.879577382E+02  1.250000000E+02  0.00000E+00  9.000E+00
      21     1     1     2   512   501  9.043635065E+01  4.635909035E+01  9.323898129E+01  1.379181149E+02  1.348699152E-06  0.00000E+00  9.000E+00
#rwgt            1           1   2.7988784697328593E-002           8      255439           0
</event>
<event>
      5   9999  3.19816E-02  6.10548E+01 -1.00000E+00  1.34300E-01
      21    -1     0     0   502   501  0.000000000E+00  0.000000000E+00  3.438355124E+02  3.438355124E+02  0.000000000E+00  0.00000E+00  9.000E+00
      21    -1     0     0   511   502  0.000000000E+00  0.000000000E+00 -1.086536381E+03  1.086536381E+03  0.000000000E+00  0.00000E+00  9.000E+00
      25     1     1     2     0     0 -4.854466997E+02 -2.690555793E+02 -2.284774671E+02  6.130875598E+02  1.250000000E+02  0.00000E+00  9.000E+00
      25     1     1     2     0     0  4.254849105E+02  2.575543929E+02 -2.991363783E+02  5.936996270E+02  1.250000000E+02  0.00000E+00  9.000E+00
      21     1     1     2   511   501  5.996178923E+01  1.150118642E+01 -2.150870227E+02  2.235847061E+02  2.697398305E-06  0.00000E+00  9.000E+00
#rwgt            1           1   3.0098210290111491E-002           8      255487           0
</event>
<event>
      5   9999  3.19816E-02  2.88387E+02 -1.00000E+00  1.06152E-01
      21    -1     0     0   502   501  0.000000000E+00  0.000000000E+00  1.689562508E+03  1.689562508E+03  0.000000000E+00  0.00000E+00  9.000E+00
       2    -1     0     0   501     0  0.000000000E+00  0.000000000E+00 -1.015038257E+03  1.015038257E+03  0.000000000E+00  0.00000E+00  9.000E+00
      25     1     1     2     0     0 -7.376649547E+02  1.568048797E+02  1.015984257E+03  1.271450497E+03  1.250000000E+02  0.00000E+00  9.000E+00
      25     1     1     2     0     0  8.565477234E+02  1.059379806E+02  1.287667893E+02  8.815343126E+02  1.250000000E+02  0.00000E+00  9.000E+00
       2     1     1     2   502     0 -1.188827687E+02 -2.627428603E+02 -4.702267953E+02  5.516159554E+02  5.394796609E-06  0.00000E+00  9.000E+00
#rwgt            1           1   3.0045004353116057E-002           8      255615           0
</event>
<event>
      5   9999  3.19816E-02  3.33234E+01 -1.00000E+00  1.49937E-01
      21    -1     0     0   502   511  0.000000000E+00  0.000000000E+00  3.703568745E+02  3.703568745E+02  0.000000000E+00  0.00000E+00  9.000E+00
      21    -1     0     0   501   502  0.000000000E+00  0.000000000E+00 -3.780219668E+02  3.780219668E+02  0.000000000E+00  0.00000E+00  9.000E+00
      25     1     1     2     0     0  1.314653637E+02  6.080123857E+01 -3.072183795E+02  3.619227337E+02  1.250000000E+02  0.00000E+00  9.000E+00
      25     1     1     2     0     0 -1.151505141E+02 -8.985769129E+01  2.959888793E+02  3.529425764E+02  1.250000000E+02  0.00000E+00  9.000E+00
      21     1     1     2   501   511 -1.631484967E+01  2.905645271E+01  3.564407879E+00  3.351353111E+01  4.318766816E-07  0.00000E+00  9.000E+00
#rwgt            1           1   2.7840977038392150E-002           8      255677           0
</event>
<event>
      5   9999  3.19816E-02  1.85958E+01 -1.00000E+00  1.69021E-01
      21    -1     0     0   502   512  0.000000000E+00  0.000000000E+00  1.219365253E+03  1.219365253E+03  0.000000000E+00  0.00000E+00  9.000E+00
      21    -1     0     0   501   502  0.000000000E+00  0.000000000E+00 -2.251265005E+02  2.251265005E+02  0.000000000E+00  0.00000E+00  9.000E+00
      25     1     1     2     0     0 -8.836986429E+01 -3.189034295E+02 -3.364321344E+01  3.553385654E+02  1.250000000E+02  0.00000E+00  9.000E+00
      25     1     1     2     0     0  7.230783609E+01  3.095324573E+02  9.743032937E+02  1.032439186E+03  1.250000000E+02  0.00000E+00  9.000E+00
      21     1     1     2   501   512  1.606202820E+01  9.370972268E+00  5.357867211E+01  5.671400159E+01  0.000000000E+00  0.00000E+00  9.000E+00
#rwgt            1           1   2.6868746198156785E-002           8      255841           0
</event>
<event>
      5   9999  3.19816E-02  3.84196E+01 -1.00000E+00  1.45934E-01
      21    -1     0     0   511   501  0.000000000E+00  0.000000000E+00  5.069070281E+02  5.069070281E+02  0.000000000E+00  0.00000E+00  9.000E+00
      21    -1     0     0   501   502  0.000000000E+00  0.000000000E+00 -1.420691737E+03  1.420691737E+03  0.000000000E+00  0.00000E+00  9.000E+00
      25     1     1     2     0     0  4.826653630E+02 -6.611078594E+02 -5.732506300E+02  1.007110093E+03  1.250000000E+02  0.00000E+00  9.000E+00
      25     1     1     2     0     0 -4.459864129E+02  6.725411190E+02 -3.288578358E+02  8.803339784E+02  1.250000000E+02  0.00000E+00  9.000E+00
      21     1     1     2   511   502 -3.667895008E+01 -1.143325959E+01 -1.167624344E+01  4.015469418E+01  2.384185791E-07  0.00000E+00  9.000E+00
#rwgt            1           1   2.8082413561634687E-002           8      256057           0
</event>
<event>
      5   9999  3.24485E-02  4.91757E+01 -1.00000E+00  1.39489E-01
      21    -1     0     0   502   501  0.000000000E+00  0.000000000E+00  5.274381046E+02  5.274381046E+02  0.000000000E+00  0.00000E+00  9.000E+00
      21    -1     0     0   512   502  0.000000000E+00  0.000000000E+00 -7.180292763E+02  7.180292763E+02  0.000000000E+00  0.00000E+00  9.000E+00
      25     1     1     2     0     0 -5.624893012E+00  4.027134364E+02 -3.499614370E+02  5.480034294E+02  1.250000000E+02  0.00000E+00  9.000E+00
      25     1     1     2     0     0  1.664736019E+01 -3.547890031E+02  3.417943383E+02  5.085280140E+02  1.250000000E+02  0.00000E+00  9.000E+00
      21     1     1     2   512   501 -1.102246717E+01 -4.792443330E+01 -1.824240730E+02  1.889359375E+02  2.697398305E-06  0.00000E+00  9.000E+00
#rwgt            1           1   3.1119574559401699E-002           8      256251           0
</event>
<event>
      5   9999  3.19816E-02  8.37582E+01 -1.00000E+00  1.27392E-01
      21    -1     0     0   511   501  0.000000000E+00  0.000000000E+00  5.956203900E+02  5.956203900E+02  0.000000000E+00  0.00000E+00  9.000E+00
      21    -1     0     0   501   502  0.000000000E+00  0.000000000E+00 -1.124321692E+02  1.124321692E+02  0.000000000E+00  0.00000E+00  9.000E+00
      25     1     1     2     0     0  2.027099529E+01 -1.332983341E+02  2.293324683E+01  1.852843570E+02  1.250000000E+02  0.00000E+00  9.000E+00
      25     1     1     2     0     0  3.005921442E+01  6.634828921E+01  3.806475932E+02  4.072140003E+02  1.250000000E+02  0.00000E+00  9.000E+00
      21     1     1     2   511   502 -5.033020971E+01  6.695004489E+01  7.960738074E+01  1.155542020E+02  9.536743164E-07  0.00000E+00  9.000E+00
#rwgt            1           1   2.7837831465869024E-002           8      256405           0
</event>
<event>
      5   9999  3.19816E-02  6.07322E+01 -1.00000E+00  1.34423E-01
      21    -1     0     0   502   501  0.000000000E+00  0.000000000E+00  2.192537334E+03  2.192537334E+03  0.000000000E+00  0.00000E+00  9.000E+00
      21    -1     0     0   501   512  0.000000000E+00  0.000000000E+00 -1.043719867E+02  1.043719867E+02  0.000000000E+00  0.00000E+00  9.000E+00
      25     1     1     2     0     0  4.299550664E+02  5.569211998E+01  1.144495067E+03  1.230226373E+03  1.250000000E+02  0.00000E+00  9.000E+00
      25     1     1     2     0     0 -3.856315831E+02 -1.417312727E+01  9.121107444E+02  9.982402544E+02  1.250000000E+02  0.00000E+00  9.000E+00
      21     1     1     2   502   512 -4.432348326E+01 -4.151899271E+01  3.155953608E+01  6.844269312E+01  1.469710828E-06  0.00000E+00  9.000E+00
#rwgt            2          11   1.4638137325878575E-002           8      256458           0
</event>
<event>
      5   9999  3.19816E-02  1.19793E+02 -1.00000E+00  1.20400E-01
       2    -1     0     0   502     0  0.000000000E+00  0.000000000E+00  1.810181473E+03  1.810181473E+03  0.000000000E+00  0.00000E+00  9.000E+00
      21    -1     0     0   501   502  0.000000000E+00  0.000000000E+00 -5.196442252E+02  5.196442252E+02  0.000000000E+00  0.00000E+00  9.000E+00
      25     1     1     2     0     0 -2.217686679E+02 -2.150500752E+02 -4.223585280E+02  5.379959136E+02  1.250000000E+02  0.00000E+00  9.000E+00
      25     1     1     2     0     0  1.745776498E+02  1.049434453E+02  3.507717886E+02  4.244482657E+02  1.250000000E+02  0.00000E+00  9.000E+00
       2     1     1     2   501     0  4.719101816E+01  1.101066298E+02  1.362123987E+03  1.367381519E+03  2.157918644E-05  0.00000E+00  9.000E+00
#rwgt            1           1   3.0323709126869831E-002           8      256478           0
</event>
<event>
      5   9999  3.19816E-02  8.32837E+01 -1.00000E+00  1.27510E-01
      21    -1     0     0   511   501  0.000000000E+00  0.000000000E+00  7.804232171E+02  7.804232171E+02  0.000000000E+00  0.00000E+00  9.000E+00
      21    -1     0     0   501   502  0.000000000E+00  0.000000000E+00 -6.865980744E+02  6.865980744E+02  0.000000000E+00  0.00000E+00  9.000E+00
      25     1     1     2     0     0  4.077125143E+02 -8.179128662E+01  3.390521551E+02  5.509089514E+02  1.250000000E+02  0.00000E+00  9.000E+00
      25     1     1     2     0     0 -4.869472558E+02  5.613908181E+01 -4.612586850E+02  6.845829394E+02  1.250000000E+02  0.00000E+00  9.000E+00
      21     1     1     2   511   502  7.923474151E+01  2.565220482E+01  2.160316726E+02  2.315294008E+02  3.814697266E-06  0.00000E+00  9.000E+00
#rwgt            1           1   3.0983298183284151E-002           8      256584           0
</event>
<event>
      5   9999  3.19816E-02  4.64849E+01 -1.00000E+00  1.40906E-01
      21    -1     0     0   502   512  0.000000000E+00  0.000000000E+00  5.653451350E+02  5.653451350E+02  0.000000000E+00  0.00000E+00  9.000E+00
      21    -1     0     0   501   502  0.000000000E+00  0.000000000E+00 -3.271832233E+02  3.271832233E+02  0.000000000E+00  0.00000E+00  9.000E+00
      25     1     1     2     0     0 -8.244723576E+01 -1.027072966E+02 -2.646490832E+02  3.209524462E+02  1.250000000E+02  0.00000E+00  9.000E+00
      25     1     1     2     0     0  1.248779688E+02  1.216935365E+02  4.633150258E+02  5.105777483E+02  1.250000000E+02  0.00000E+00  9.000E+00
      21     1     1     2   501   512 -4.243073303E+01 -1.898623983E+01  3.949596917E+01  6.099816382E+01  9.536743164E-07  0.00000E+00  9.000E+00
#rwgt            1           1   3.0549591664016915E-002           8      256659           0
</event>
<event>
      5   9999  3.19816E-02  1.10872E+01 -1.00000E+00  1.90714E-01
      21    -1     0     0   502   501  0.000000000E+00  0.000000000E+00  6.698986921E+02  6.698986921E+02  0.000000000E+00  0.00000E+00  9.000E+00
      21    -1     0     0   511   502  0.000000000E+00  0.000000000E+00 -2.311746214E+02  2.311746214E+02  0.000000000E+00  0.00000E+00  9.000E+00
      25     1     1     2     0     0 -1.623050560E+02 -1.016805537E+02  5.306216156E+02  5.778115308E+02  1.250000000E+02  0.00000E+00  9.000E+00
      25     1     1     2     0     0  1.719078633E+02  9.613860483E+01 -2.617067860E+00  2.332955075E+02  1.250000000E+02  0.00000E+00  9.000E+00
      21     1     1     2   511   501 -9.602807283E+00  5.541948854E+00 -8.928047701E+01  8.996627524E+01  1.348699152E-06  0.00000E+00  9.000E+00
#rwgt            1           1   2.8044239487656792E-002           8      256768           0
</event>
<event>
      5   9999  3.19816E-02  7.83452E+01 -1.00000E+00  1.28790E-01
       2    -1     0     0   502     0  0.000000000E+00  0.000000000E+00  7.839048085E+02  7.839048085E+02  0.000000000E+00  0.00000E+00  9.000E+00
      21    -1     0     0   501   502  0.000000000E+00  0.000000000E+00 -3.285186204E+02  3.285186204E+02  0.000000000E+00  0.00000E+00  9.000E+00
      25     1     1     2     0     0 -6.174433706E+01 -9.492332863E+01 -6.352035743E+01  1.802294018E+02  1.250000000E+02  0.00000E+00  9.000E+00
      25     1     1     2     0     0  5.675761209E+00  1.496433277E+02 -1.578410928E+02  2.509265836E+02  1.250000000E+02  0.00000E+00  9.000E+00
       2     1     1     2   501     0  5.606857585E+01 -5.471999902E+01  6.767476384E+02  6.812674435E+02  7.629394531E-06  0.00000E+00  9.000E+00
#rwgt            1           1   2.5682285596979736E-002           8      256941           0
</event>
<event>
      5   9999  3.19816E-02  4.61915E+02 -1.00000E+00  9.98394E-02
       4    -1     0     0   502     0  0.000000000E+00  0.000000000E+00  6.667209514E+02  6.667209514E+02  0.000000000E+00  0.00000E+00  9.000E+00
      21    -1     0     0   501   502  0.000000000E+00  0.000000000E+00 -1.099421239E+03  1.099421239E+03  0.000000000E+00  0.00000E+00  9.000E+00
      25     1     1     2     0     0  3.794395270E+02 -4.056679215E+02 -4.056320474E+02  6.990730828E+02  1.250000000E+02  0.00000E+00  9.000E+00
      25     1     1     2     0     0  4.405573201E+01  5.901059225E+02 -1.388562773E+01  6.049658816E+02  1.250000000E+02  0.00000E+00  9.000E+00
       4     1     1     2   501     0 -4.234952590E+02 -1.844380009E+02 -1.318261294E+01  4.621032264E+02  7.657283236E-06  0.00000E+00  9.000E+00
#rwgt            2          20   2.0644062072191650E-005           8      257049           0
</event>
<event>
      5   9999  3.19816E-02  6.06964E+01 -1.00000E+00  1.34436E-01
      21    -1     0     0   502   501  0.000000000E+00  0.000000000E+00  2.805847911E+02  2.805847911E+02  0.000000000E+00  0.00000E+00  9.000E+00
      21    -1     0     0   501   511  0.000000000E+00  0.000000000E+00 -1.240651066E+03  1.240651066E+03  0.000000000E+00  0.00000E+00  9.000E+00
      25     1     1     2     0     0 -4.965199416E+02 -1.588220728E+02 -2.035314548E+02  5.734165644E+02  1.250000000E+02  0.00000E+00  9.000E+00
      25     1     1     2     0     0  4.364498401E+02  1.501253373E+02 -5.324033104E+02  7.156146761E+02  1.250000000E+02  0.00000E+00  9.000E+00
      21     1     1     2   502   511  6.007010149E+01  8.696735550E+00 -2.241315102E+02  2.322046170E+02  3.814697266E-06  0.00000E+00  9.000E+00
#rwgt            1           1   3.4751659119741887E-002           8      257068           0
</event>
<event>
      5   9999  3.19816E-02  4.35709E+01 -1.00000E+00  1.42574E-01
      21    -1     0     0   512   501  0.000000000E+00  0.000000000E+00  6.833508138E+02  6.833508138E+02  0.000000000E+00  0.00000E+00  9.000E+00
      21    -1     0     0   501   502  0.000000000E+00  0.000000000E+00 -1.009869747E+03  1.009869747E+03  0.000000000E+00  0.00000E+00  9.000E+00
      25     1     1     2     0     0 -2.577613032E+02  6.509749825E+02 -4.541509564E+01  7.126688208E+02  1.250000000E+02  0.00000E+00  9.000E+00
      25     1     1     2     0     0  2.141910934E+02 -6.507342621E+02 -4.346783493E+02  8.209160564E+02  1.250000000E+02  0.00000E+00  9.000E+00
      21     1     1     2   512   502  4.357020984E+01 -2.407203925E-01  1.535745113E+02  1.596356841E+02  1.907348633E-06  0.00000E+00  9.000E+00
#rwgt            1           1   2.2813064919016184E-002           8      257235           0
</event>
<event>
      5   9999  3.19816E-02  1.96295E+01 -1.00000E+00  1.67042E-01
      21    -1     0     0   502   511  0.000000000E+00  0.000000000E+00  2.487378555E+03  2.487378555E+03  0.000000000E+00  0.00000E+00  9.000E+00
      21    -1     0     0   501   502  0.000000000E+00  0.000000000E+00 -3.723915509E+01  3.723915509E+01  0.000000000E+00  0.00000E+00  9.000E+00
      25     1     1     2     0     0 -8.079477085E+01 -1.355872703E+02  1.129657340E+03  1.147459110E+03  1.250000000E+02  0.00000E+00  9.000E+00
      25     1     1     2     0     0  9.988602787E+01  1.401525111E+02  3.723499114E+02  4.288232753E+02  1.250000000E+02  0.00000E+00  9.000E+00
      21     1     1     2   501   511 -1.909125703E+01 -4.565240778E+00  9.481321488E+02  9.483353252E+02  1.078959322E-05  0.00000E+00  9.000E+00
#rwgt            1           1   3.7850961638399523E-002           8      257360           0
</event>
<event>
      5   9999  3.19816E-02  1.52850E+01 -1.00000E+00  1.76617E-01
      21    -1     0     0   502   501  0.000000000E+00  0.000000000E+00  4.736791090E+02  4.736791090E+02  0.000000000E+00  0.00000E+00  9.000E+00
      21    -1     0     0   512   502  0.000000000E+00  0.000000000E+00 -1.221330818E+03  1.221330818E+03  0.000000000E+00  0.00000E+00  9.000E+00
      25     1     1     2     0     0 -2.523618335E+02 -5.704691485E+02 -7.954885170E+02  1.018601259E+03  1.250000000E+02  0.00000E+00  9.000E+00
      25     1     1     2     0     0  2.549173651E+02  5.553992664E+02  9.123563480E+01  6.303968188E+02  1.250000000E+02  0.00000E+00  9.000E+00
      21     1     1     2   512   501 -2.555531620E+00  1.506988210E+01 -4.339882679E+01  4.601184907E+01  8.259061849E-07  0.00000E+00  9.000E+00
#rwgt            1           1   3.2777581042517802E-002           8      257540           0
</event>
<event>
      5   9999  3.19816E-02  7.46325E+01 -1.00000E+00  1.29827E-01
      21    -1     0     0   502   501  0.000000000E+00  0.000000000E+00  5.467690003E+02  5.467690003E+02  0.000000000E+00  0.00000E+00  9.000E+00
      21    -1     0     0   501   511  0.000000000E+00  0.000000000E+00 -1.327010606E+02  1.327010606E+02  0.000000000E+00  0.00000E+00  9.000E+00
      25     1     1     2     0     0  1.074135637E+02  7.696459104E+01  1.190322714E+02  2.173819302E+02  1.250000000E+02  0.00000E+00  9.000E+00
      25     1     1     2     0     0 -1.761905395E+02 -4.798645048E+01  3.148786725E+02  3.848628120E+02  1.250000000E+02  0.00000E+00  9.000E+00
      21     1     1     2   502   511  6.877697577E+01 -2.897814056E+01 -1.984300427E+01  7.722531868E+01  1.118282261E-06  0.00000E+00  9.000E+00
#rwgt            1           1   2.6946828500133583E-002           8      257843           0
</event>
<event>
      5   9999  3.19816E-02  1.24873E+02 -1.00000E+00  1.19639E-01
      21    -1     0     0   502   512  0.000000000E+00  0.000000000E+00  7.910387541E+02  7.910387541E+02  0.000000000E+00  0.00000E+00  9.000E+00
      21    -1     0     0   501   502  0.000000000E+00  0.000000000E+00 -3.228945519E+02  3.228945519E+02  0.000000000E+00  0.00000E+00  9.000E+00
      25     1     1     2     0     0 -4.207933971E+01  4.323830993E+02  3.148828394E+02  5.509101723E+02  1.250000000E+02  0.00000E+00  9.000E+00
      25     1     1     2     0     0 -2.679528990E+01 -3.282222771E+02 -1.609516448E+01  3.526072958E+02  1.250000000E+02  0.00000E+00  9.000E+00
      21     1     1     2   501   512  6.887462961E+01 -1.041608222E+02  1.693565273E+02  2.104158379E+02  0.000000000E+00  0.00000E+00  9.000E+00
#rwgt            1           1   2.9093219824568466E-002           8      257944           0
</event>
<event>
      5   9999  3.19816E-02  4.70962E+01 -1.00000E+00  1.40574E-01
      21    -1     0     0   502   511  0.000000000E+00  0.000000000E+00  1.003334401E+03  1.003334401E+03  0.000000000E+00  0.00000E+00  9.000E+00
      21    -1     0     0   501   502  0.000000000E+00  0.000000000E+00 -1.828086090E+02  1.828086090E+02  0.000000000E+00  0.00000E+00  9.000E+00
      25     1     1     2     0     0 -1.139918998E+02 -3.780741116E+02  5.048350760E+02  6.530066164E+02  1.250000000E+02  0.00000E+00  9.000E+00
      25     1     1     2     0     0  1.099891921E+02  3.311483308E+02  2.324904987E+02  4.375313375E+02  1.250000000E+02  0.00000E+00  9.000E+00
      21     1     1     2   501   511  4.002707688E+00  4.692578076E+01  8.320021729E+01  9.560505596E+01  9.536743164E-07  0.00000E+00  9.000E+00
#rwgt            1           1   3.3281436501642621E-002           8      257989           0
</event>
<event>
      5   9999  3.19816E-02  2.24085E+01 -1.00000E+00  1.62395E-01
      21    -1     0     0   512   501  0.000000000E+00  0.000000000E+00  7.297647149E+02  7.297647149E+02  0.000000000E+00  0.00000E+00  9.000E+00
      21    -1     0     0   501   502  0.000000000E+00  0.000000000E+00 -9.398439251E+01  9.398439251E+01  0.000000000E+00  0.00000E+00  9.000E+00
      25     1     1     2     0     0 -7.675243912E+01  1.716671117E+02  2.426060447E+02  3.314260507E+02  1.250000000E+02  0.00000E+00  9.000E+00
      25     1     1     2     0     0  6.065046100E+01 -1.872512982E+02  2.296480793E+02  3.272686472E+02  1.250000000E+02  0.00000E+00  9.000E+00
      21     1     1     2   512   502  1.610197812E+01  1.558418644E+01  1.635261983E+02  1.650544095E+02  0.000000000E+00  0.00000E+00  9.000E+00
#rwgt            1           1   2.7861531572516793E-002           8      258087           0
</event>
<event>
      5   9999  3.19816E-02  3.62674E+00 -1.00000E+00  2.73915E-01
      21    -1     0     0   502   501  0.000000000E+00  0.000000000E+00  7.053982058E+02  7.053982058E+02  0.000000000E+00  0.00000E+00  9.000E+00
      21    -1     0     0   511   502  0.000000000E+00  0.000000000E+00 -2.160637830E+02  2.160637830E+02  0.000000000E+00  0.00000E+00  9.000E+00
      25     1     1     2     0     0  1.091765190E+02  3.205864074E+02  4.081550919E+02  5.448951606E+02  1.250000000E+02  0.00000E+00  9.000E+00
      25     1     1     2     0     0 -1.124547985E+02 -3.190352462E+02  8.579598203E+01  3.706959948E+02  1.250000000E+02  0.00000E+00  9.000E+00
      21     1     1     2   511   501  3.278279534E+00 -1.551161251E+00 -4.616651140E+00  5.870833473E+00  5.960464478E-08  0.00000E+00  9.000E+00
#rwgt            1           1   2.3989560917572254E-002           8      258243           0
</event>
<event>
      5   9999  3.19816E-02  2.71265E+01 -1.00000E+00  1.56140E-01
      21    -1     0     0   512   501  0.000000000E+00  0.000000000E+00  1.992742360E+02  1.992742360E+02  0.000000000E+00  0.00000E+00  9.000E+00
      21    -1     0     0   501   502  0.000000000E+00  0.000000000E+00 -2.574221837E+02  2.574221837E+02  0.000000000E+00  0.00000E+00  9.000E+00
      25     1     1     2     0     0 -1.598483109E+02  5.415718917E+01 -9.149553963E+01  2.290871393E+02  1.250000000E+02  0.00000E+00  9.000E+00
      25     1     1     2     0     0  1.371847955E+02 -6.906392598E+01  2.924884826E+01  2.001748963E+02  1.250000000E+02  0.00000E+00  9.000E+00
      21     1     1     2   512   502  2.266351540E+01  1.490673681E+01  4.098743673E+00  2.743438412E+01  4.655271575E-07  0.00000E+00  9.000E+00
#rwgt            1           1   2.5041686083815150E-002           8      258636           0
</event>
<event>
      5   9999  3.19816E-02  9.52595E+01 -1.00000E+00  1.24784E-01
      21    -1     0     0   502   501  0.000000000E+00  0.000000000E+00  4.298506749E+02  4.298506749E+02  0.000000000E+00  0.00000E+00  9.000E+00
      21    -1     0     0   501   511  0.000000000E+00  0.000000000E+00 -4.153882715E+02  4.153882715E+02  0.000000000E+00  0.00000E+00  9.000E+00
      25     1     1     2     0     0  6.120002622E+01 -9.488875562E+01  4.824554241E+01  1.752197235E+02  1.250000000E+02  0.00000E+00  9.000E+00
      25     1     1     2     0     0  2.762648014E+01  6.047620183E+01  2.952673117E+02  3.274574457E+02  1.250000000E+02  0.00000E+00  9.000E+00
      21     1     1     2   502   511 -8.882650636E+01  3.441255379E+01 -3.290504507E+02  3.425617772E+02  6.607249480E-06  0.00000E+00  9.000E+00
#rwgt            1           1   3.0062521289911694E-002           8      258748           0
</event>
<event>
      5   9999  3.19816E-02  2.33796E+01 -1.00000E+00  1.60962E-01
      21    -1     0     0   502   501  0.000000000E+00  0.000000000E+00  1.130874885E+02  1.130874885E+02  0.000000000E+00  0.00000E+00  9.000E+00
      21    -1     0     0   512   502  0.000000000E+00  0.000000000E+00 -3.099676966E+02  3.099676966E+02  0.000000000E+00  0.00000E+00  9.000E+00
      25     1     1     2     0     0 -8.648125335E+01  8.175769422E+01 -3.747483594E+01  1.766145268E+02  1.250000000E+02  0.00000E+00  9.000E+00
      25     1     1     2     0     0  7.603913140E+01 -6.083957579E+01 -1.134590706E+02  1.948880812E+02  1.250000000E+02  0.00000E+00  9.000E+00
      21     1     1     2   512   501  1.044212196E+01 -2.091811843E+01 -4.594630153E+01  5.155257718E+01  6.743495762E-07  0.00000E+00  9.000E+00
#rwgt            1           1   2.9542955821098050E-002           8      258809           0
</event>
<event>
      5   9999  3.19816E-02  3.31037E+01 -1.00000E+00  1.50128E-01
      21    -1     0     0   502   511  0.000000000E+00  0.000000000E+00  3.842636606E+02  3.842636606E+02  0.000000000E+00  0.00000E+00  9.000E+00
      21    -1     0     0   501   502  0.000000000E+00  0.000000000E+00 -2.204218378E+03  2.204218378E+03  0.000000000E+00  0.00000E+00  9.000E+00
      25     1     1     2     0     0  7.171342749E+02 -2.924741311E+02 -9.004411540E+02  1.194253724E+03  1.250000000E+02  0.00000E+00  9.000E+00
      25     1     1     2     0     0 -7.425281282E+02  2.712372566E+02 -1.015337862E+03  1.292847108E+03  1.250000000E+02  0.00000E+00  9.000E+00
      21     1     1     2   501   511  2.539385328E+01  2.123687450E+01  9.582429923E+01  1.013812061E+02  0.000000000E+00  0.00000E+00  9.000E+00
#rwgt            1           1   2.5789530363838329E-002           8      258927           0
</event>
<event>
      5   9999  3.19816E-02  2.50862E+02 -1.00000E+00  1.08179E-01
      21    -1     0     0   502   501  0.000000000E+00  0.000000000E+00  2.144684255E+02  2.144684255E+02  0.000000000E+00  0.00000E+00  9.000E+00
       1    -1     0     0   501     0  0.000000000E+00  0.000000000E+00 -1.019712903E+03  1.019712903E+03  0.000000000E+00  0.00000E+00  9.000E+00
      25     1     1     2     0     0 -2.317335747E+02 -6.852141135E+01 -2.551347634E+02  3.729804029E+02  1.250000000E+02  0.00000E+00  9.000E+00
      25     1     1     2     0     0  2.344355884E+01  2.083328353E+02  1.331978884E+01  2.444475148E+02  1.250000000E+02  0.00000E+00  9.000E+00
       1     1     1     2   502     0  2.082900159E+02 -1.398114239E+02 -5.634295032E+02  6.167534111E+02  7.629394531E-06  0.00000E+00  9.000E+00
#rwgt            1           1   2.7478839432765381E-002           8      259025           0
</event>
<event>
      5   9999  3.19816E-02  8.03270E+01 -1.00000E+00  1.28264E-01
      21    -1     0     0   502   501  0.000000000E+00  0.000000000E+00  4.135683832E+02  4.135683832E+02  0.000000000E+00  0.00000E+00  9.000E+00
       2    -1     0     0   501     0  0.000000000E+00  0.000000000E+00 -1.451445167E+03  1.451445167E+03  0.000000000E+00  0.00000E+00  9.000E+00
      25     1     1     2     0     0 -4.974762459E+01 -2.475265456E+02  8.357149891E+01  2.938595113E+02  1.250000000E+02  0.00000E+00  9.000E+00
      25     1     1     2     0     0  7.260617031E-01  3.111607071E+02  9.776972996E+01  3.492927610E+02  1.250000000E+02  0.00000E+00  9.000E+00
       2     1     1     2   502     0  4.902156289E+01 -6.363416149E+01 -1.219218012E+03  1.221861277E+03  1.525878906E-05  0.00000E+00  9.000E+00
#rwgt            1           1   2.7890096247488762E-002           8      259054           0
</event>
<event>
      5   9999  3.19816E-02  1.80738E+02 -1.00000E+00  1.13273E-01
      21    -1     0     0   511   501  0.000000000E+00  0.000000000E+00  4.840630955E+02  4.840630955E+02  0.000000000E+00  0.00000E+00  9.000E+00
      21    -1     0     0   501   502  0.000000000E+00  0.000000000E+00 -6.724918238E+02  6.724918238E+02  0.000000000E+00  0.00000E+00  9.000E+00
      25     1     1     2     0     0  3.276465944E+02  3.196008364E+02 -3.174802710E+01  4.755312005E+02  1.250000000E+02  0.00000E+00  9.000E+00
      25     1     1     2     0     0 -1.531971510E+02 -3.668601293E+02 -2.411825436E+02  4.815077786E+02  1.250000000E+02  0.00000E+00  9.000E+00
      21     1     1     2   511   502 -1.744494433E+02  4.725929294E+01  8.450184237E+01  1.995159403E+02  3.162979880E-06  0.00000E+00  9.000E+00
#rwgt            1           1   3.0304092720875621E-002           8      259169           0
</event>
<event>
      5   9999  3.19816E-02  1.23614E+01 -1.00000E+00  1.85683E-01
      21    -1     0     0   502   501  0.000000000E+00  0.000000000E+00  1.193302450E+03  1.193302450E+03  0.000000000E+00  0.00000E+00  9.000E+00
      21    -1     0     0   512   502  0.000000000E+00  0.000000000E+00 -4.147370058E+01  4.147370058E+01  0.000000000E+00  0.00000E+00  9.000E+00
      25     1     1     2     0     0  9.300147377E+01 -2.361858345E+01  8.681476691E+02  8.823335463E+02  1.250000000E+02  0.00000E+00  9.000E+00
      25     1     1     2     0     0 -8.381973279E+01  3.189502811E+01  2.968709330E+02  3.343656551E+02  1.250000000E+02  0.00000E+00  9.000E+00
      21     1     1     2   512   501 -9.181740972E+00 -8.276444658E+00 -1.318985228E+01  1.807694960E+01  8.085167388E-07  0.00000E+00  9.000E+00
#rwgt            1           1   2.9366816317282211E-002           8      259241           0
</event>
<event>
      5   9999  3.19816E-02  6.95088E+01 -1.00000E+00  1.31376E-01
      21    -1     0     0   502   511  0.000000000E+00  0.000000000E+00  5.758594449E+02  5.758594449E+02  0.000000000E+00  0.00000E+00  9.000E+00
      21    -1     0     0   501   502  0.000000000E+00  0.000000000E+00 -6.383562488E+02  6.383562488E+02  0.000000000E+00  0.00000E+00  9.000E+00
      25     1     1     2     0     0  5.023165897E+02 -1.276763360E+02  1.726379630E+02  5.604034879E+02  1.250000000E+02  0.00000E+00  9.000E+00
      25     1     1     2     0     0 -5.019469486E+02  5.816848824E+01 -2.575641869E+02  5.807741581E+02  1.250000000E+02  0.00000E+00  9.000E+00
      21     1     1     2   501   511 -3.696410216E-01  6.950784774E+01  2.242942007E+01  7.303804773E+01  9.233911863E-07  0.00000E+00  9.000E+00
#rwgt            2          11   7.3624068190087334E-003           8      259426           0
</event>
<event>
      5   9999  3.19816E-02  7.23370E+01 -1.00000E+00  1.30502E-01
      21    -1     0     0   512   501  0.000000000E+00  0.000000000E+00  2.561442005E+02  2.561442005E+02  0.000000000E+00  0.00000E+00  9.000E+00
      21    -1     0     0   501   502  0.000000000E+00  0.000000000E+00 -4.471557010E+02  4.471557010E+02  0.000000000E+00  0.00000E+00  9.000E+00
      25     1     1     2     0     0 -2.295120262E+02  6.697031190E+01 -2.290729672E+02  3.539212019E+02  1.250000000E+02  0.00000E+00  9.000E+00
      25     1     1     2     0     0  1.833351649E+02 -1.128958366E+01 -5.752443471E+01  2.295066404E+02  1.250000000E+02  0.00000E+00  9.000E+00
      21     1     1     2   512   502  4.617686124E+01 -5.568072824E+01  9.558590145E+01  1.198720592E+02  0.000000000E+00  0.00000E+00  9.000E+00
#rwgt            1           1   2.7693852454023248E-002           8      259446           0
</event>
<event>
      5   9999  3.19816E-02  1.77047E+02 -1.00000E+00  1.13610E-01
      21    -1     0     0   502   511  0.000000000E+00  0.000000000E+00  7.742912542E+02  7.742912542E+02  0.000000000E+00  0.00000E+00  9.000E+00
      21    -1     0     0   501   502  0.000000000E+00  0.000000000E+00 -1.237763732E+03  1.237763732E+03  0.000000000E+00  0.00000E+00  9.000E+00
      25     1     1     2     0     0  4.750660207E+02 -6.754995816E+02 -3.496262709E+02  9.054562043E+02  1.250000000E+02  0.00000E+00  9.000E+00
      25     1     1     2     0     0 -6.492379527E+02  6.437235496E+02 -1.119511433E+02  9.295418152E+02  1.250000000E+02  0.00000E+00  9.000E+00
      21     1     1     2   501   511  1.741719321E+02  3.177603192E+01 -1.895063412E+00  1.770569665E+02  2.421152116E-06  0.00000E+00  9.000E+00
#rwgt            1           1   3.4257422708614864E-002           8      259496           0
</event>
<event>
      5   9999  3.19816E-02  1.61751E+01 -1.00000E+00  1.74352E-01
      21    -1     0     0   502   501  0.000000000E+00  0.000000000E+00  3.059335420E+02  3.059335420E+02  0.000000000E+00  0.00000E+00  9.000E+00
      21    -1     0     0   512   502  0.000000000E+00  0.000000000E+00 -2.118766444E+03  2.118766444E+03  0.000000000E+00  0.00000E+00  9.000E+00
      25     1     1     2     0     0  3.320748507E+02  3.395671995E+01 -2.117330626E+02  4.145873311E+02  1.250000000E+02  0.00000E+00  9.000E+00
      25     1     1     2     0     0 -3.322377991E+02 -1.778241893E+01  5.001241124E+01  3.589211764E+02  1.250000000E+02  0.00000E+00  9.000E+00
      21     1     1     2   512   501  1.629483583E-01 -1.617430102E+01 -1.651112250E+03  1.651191478E+03  0.000000000E+00  0.00000E+00  9.000E+00
#rwgt            1           1   2.6292952568462646E-002           8      259574           0
</event>
<event>
      5   9999  3.19816E-02  9.20553E+01 -1.00000E+00  1.25467E-01
      21    -1     0     0   502   501  0.000000000E+00  0.000000000E+00  1.694080168E+02  1.694080168E+02  0.000000000E+00  0.00000E+00  9.000E+00
      21    -1     0     0   511   502  0.000000000E+00  0.000000000E+00 -1.905062044E+03  1.905062044E+03  0.000000000E+00  0.00000E+00  9.000E+00
      25     1     1     2     0     0  3.073612393E+02 -1.078244721E+02 -1.086572141E+02  3.654154326E+02  1.250000000E+02  0.00000E+00  9.000E+00
      25     1     1     2     0     0 -3.378893109E+02  1.946704439E+02 -1.093242555E+03  1.167420255E+03  1.250000000E+02  0.00000E+00  9.000E+00
      21     1     1     2   511   501  3.052807159E+01 -8.684597178E+01 -5.337542579E+02  5.416343728E+02  0.000000000E+00  0.00000E+00  9.000E+00
#rwgt            1           1   2.8193663486523239E-002           8      259770           0
</event>
<event>
      5   9999  3.19816E-02  1.24496E+01 -1.00000E+00  1.85364E-01
      21    -1     0     0   502   501  0.000000000E+00  0.000000000E+00  6.203827888E+02  6.203827888E+02  0.000000000E+00  0.00000E+00  9.000E+00
      21    -1     0     0   512   502  0.000000000E+00  0.000000000E+00 -2.417989979E+02  2.417989979E+02  0.000000000E+00  0.00000E+00  9.000E+00
      25     1     1     2     0     0  2.120140433E+02  2.461486336E+02  1.861021149E+01  3.485834826E+02  1.250000000E+02  0.00000E+00  9.000E+00
      25     1     1     2     0     0 -2.137469869E+02 -2.338202632E+02  3.658505557E+02  4.998312906E+02  1.250000000E+02  0.00000E+00  9.000E+00
      21     1     1     2   512   501  1.732943575E+00 -1.232837036E+01 -5.876976318E+00  1.376701347E+01  2.665600750E-07  0.00000E+00  9.000E+00
#rwgt            1           1   3.1253484522105628E-002           8      259897           0
</event>
<event>
      5   9999  3.19816E-02  9.72634E+01 -1.00000E+00  1.24372E-01
       1    -1     0     0   502     0  0.000000000E+00  0.000000000E+00  3.002283359E+03  3.002283359E+03  0.000000000E+00  0.00000E+00  9.000E+00
      21    -1     0     0   501   502  0.000000000E+00  0.000000000E+00 -7.837802065E+02  7.837802065E+02  0.000000000E+00  0.00000E+00  9.000E+00
      25     1     1     2     0     0 -8.095402648E+02 -2.181819286E+02  1.569126194E+02  8.620935938E+02  1.250000000E+02  0.00000E+00  9.000E+00
      25     1     1     2     0     0  8.988868459E+02  1.797456058E+02  6.762499799E+01  9.276336480E+02  1.250000000E+02  0.00000E+00  9.000E+00
       1     1     1     2   501     0 -8.934658110E+01  3.843632275E+01  1.993965535E+03  1.996336324E+03  2.157918644E-05  0.00000E+00  9.000E+00
#rwgt            1           1   3.2547992849529514E-002           8      260086           0
</event>
<event>
      5   9999  3.19816E-02  3.72849E+02 -1.00000E+00  1.02613E-01
      21    -1     0     0   502   501  0.000000000E+00  0.000000000E+00  6.277315317E+02  6.277315317E+02  0.000000000E+00  0.00000E+00  9.000E+00
      21    -1     0     0   501   511  0.000000000E+00  0.000000000E+00 -1.058964101E+03  1.058964101E+03  0.000000000E+00  0.00000E+00  9.000E+00
      25     1     1     2     0     0  2.834422050E+02  2.242814960E+02 -1.504420652E+02  4.109738288E+02  1.250000000E+02  0.00000E+00  9.000E+00
      25     1     1     2     0     0  7.825506637E+01 -3.147867955E+02  3.812332294E+02  5.159247593E+02  1.250000000E+02  0.00000E+00  9.000E+00
      21     1     1     2   502   511 -3.616972713E+02  9.050529954E+01 -6.620237332E+02  7.597970443E+02  7.629394531E-06  0.00000E+00  9.000E+00
#rwgt            2          11   2.3717874844818823E-003           8      260291           0
</event>
<event>
      5   9999  3.19816E-02  1.46073E+01 -1.00000E+00  1.78476E-01
      21    -1     0     0   502   501  0.000000000E+00  0.000000000E+00  7.579989103E+02  7.579989103E+02  0.000000000E+00  0.00000E+00  9.000E+00
      21    -1     0     0   501   512  0.000000000E+00  0.000000000E+00 -8.432084250E+01  8.432084250E+01  0.000000000E+00  0.00000E+00  9.000E+00
      25     1     1     2     0     0 -6.965733469E+01  1.869615032E+02  2.174922961E+02  3.205224591E+02  1.250000000E+02  0.00000E+00  9.000E+00
      25     1     1     2     0     0  5.927327785E+01 -1.766880568E+02  4.547694420E+02  5.071215202E+02  1.250000000E+02  0.00000E+00  9.000E+00
      21     1     1     2   502   512  1.038405685E+01 -1.027344640E+01  1.416329740E+00  1.467577349E+01  2.169641819E-07  0.00000E+00  9.000E+00
#rwgt            1           1   2.7412941372582558E-002           8      260311           0
</event>
<event>
      5   9999  3.19816E-02  4.43263E+01 -1.00000E+00  1.42127E-01
      21    -1     0     0   502   511  0.000000000E+00  0.000000000E+00  4.803532718E+02  4.803532718E+02  0.000000000E+00  0.00000E+00  9.000E+00
      21    -1     0     0   501   502  0.000000000E+00  0.000000000E+00 -4.016123870E+02  4.016123870E+02  0.000000000E+00  0.00000E+00  9.000E+00
      25     1     1     2     0     0 -1.201213984E+02 -2.290085170E+02  1.990770327E+02  3.494720535E+02  1.250000000E+02  0.00000E+00  9.000E+00
      25     1     1     2     0     0  7.674142076E+01  2.198981470E+02 -2.691361825E+02  3.772316602E+02  1.250000000E+02  0.00000E+00  9.000E+00
      21     1     1     2   501   511  4.337997769E+01  9.110369950E+00  1.488000345E+02  1.552619451E+02  2.697398305E-06  0.00000E+00  9.000E+00
#rwgt            1           1   2.7872748628451693E-002           8      260425           0
</event>
<event>
      5   9999  3.19816E-02  9.07989E+01 -1.00000E+00  1.25743E-01
      21    -1     0     0   512   501  0.000000000E+00  0.000000000E+00  2.232049034E+02  2.232049034E+02  0.000000000E+00  0.00000E+00  9.000E+00
      21    -1     0     0   501   502  0.000000000E+00  0.000000000E+00 -1.240437816E+03  1.240437816E+03  0.000000000E+00  0.00000E+00  9.000E+00
      25     1     1     2     0     0 -6.194239673E+01 -4.320828778E+02 -7.298738251E+02  8.595773813E+02  1.250000000E+02  0.00000E+00  9.000E+00
      25     1     1     2     0     0 -1.075985969E+01  3.776878622E+02 -3.167321610E+02  5.086336183E+02  1.250000000E+02  0.00000E+00  9.000E+00
      21     1     1     2   512   502  7.270225641E+01  5.439501557E+01  2.937307313E+01  9.543172026E+01  0.000000000E+00  0.00000E+00  9.000E+00
#rwgt            1           1   3.2100115534973897E-002           8      260546           0
</event>
<event>
      5   9999  3.19816E-02  4.17706E+02 -1.00000E+00  1.01123E-01
      21    -1     0     0   502   511  0.000000000E+00  0.000000000E+00  6.416643272E+02  6.416643272E+02  0.000000000E+00  0.00000E+00  9.000E+00
      21    -1     0     0   501   502  0.000000000E+00  0.000000000E+00 -2.482611831E+03  2.482611831E+03  0.000000000E+00  0.00000E+00  9.000E+00
      25     1     1     2     0     0  8.740971904E+02  7.952765613E+02 -1.221037418E+03  1.703839219E+03  1.250000000E+02  0.00000E+00  9.000E+00
      25     1     1     2     0     0 -7.304719680E+02 -4.030391294E+02 -5.198683487E+02  9.909177240E+02  1.250000000E+02  0.00000E+00  9.000E+00
      21     1     1     2   501   511 -1.436252225E+02 -3.922374319E+02 -1.000417377E+02  4.295192158E+02  6.607249480E-06  0.00000E+00  9.000E+00
#rwgt            2          11   4.2352400542138586E-003           8      260647           0
</event>
<event>
      5   9999  3.19816E-02  1.32683E+02 -1.00000E+00  1.18545E-01
       5    -1     0     0   502     0  0.000000000E+00  0.000000000E+00  2.001075962E+02  2.001075962E+02  0.000000000E+00  0.00000E+00  9.000E+00
      21    -1     0     0   501   502  0.000000000E+00  0.000000000E+00 -8.131942503E+02  8.131942503E+02  0.000000000E+00  0.00000E+00  9.000E+00
      25     1     1     2     0     0  2.956171057E+02  5.892399083E+01 -5.542031725E+02  6.431389168E+02  1.250000000E+02  0.00000E+00  9.000E+00
      25     1     1     2     0     0 -1.650449700E+02 -8.249531536E+01  4.950666127E+00  2.229233686E+02  1.250000000E+02  0.00000E+00  9.000E+00
       5     1     1     2   501     0 -1.305721357E+02  2.357132454E+01 -6.383414765E+01  1.472395611E+02  2.336015456E-06  0.00000E+00  9.000E+00
#rwgt            1           1   2.8258615737997598E-002           8      260682           0
</event>
<event>
      5   9999  3.19816E-02  1.13965E+02 -1.00000E+00  1.21327E-01
       1    -1     0     0   502     0  0.000000000E+00  0.000000000E+00  4.558242113E+02  4.558242113E+02  0.000000000E+00  0.00000E+00  9.000E+00
      21    -1     0     0   501   502  0.000000000E+00  0.000000000E+00 -5.926994516E+02  5.926994516E+02  0.000000000E+00  0.00000E+00  9.000E+00
      25     1     1     2     0     0  4.530003588E+01  2.028905859E+02 -1.188711475E+02  2.701333611E+02  1.250000000E+02  0.00000E+00  9.000E+00
      25     1     1     2     0     0 -9.653527777E+01 -1.010915424E+02 -3.665253009E+02  4.117090672E+02  1.250000000E+02  0.00000E+00  9.000E+00
       1     1     1     2   501     0  5.123524189E+01 -1.017990434E+02  3.485212081E+02  3.666812345E+02  3.814697266E-06  0.00000E+00  9.000E+00
#rwgt            1           1   2.7155541849060938E-002           8      260761           0
</event>
<event>
      5   9999  3.19816E-02  1.22131E+01 -1.00000E+00  1.86228E-01
      21    -1     0     0   502   501  0.000000000E+00  0.000000000E+00  1.941284701E+02  1.941284701E+02  0.000000000E+00  0.00000E+00  9.000E+00
       1    -1     0     0   501     0  0.000000000E+00  0.000000000E+00 -1.100129982E+03  1.100129982E+03  0.000000000E+00  0.00000E+00  9.000E+00
      25     1     1     2     0     0  2.789979031E+02 -1.865031310E+02 -8.582247279E+01  3.682577150E+02  1.250000000E+02  0.00000E+00  9.000E+00
      25     1     1     2     0     0 -2.807193659E+02  1.744119496E+02 -5.385983941E+02  6.441553545E+02  1.250000000E+02  0.00000E+00  9.000E+00
       1     1     1     2   502     0  1.721462867E+00  1.209118136E+01 -2.815806455E+02  2.818453832E+02  5.394796609E-06  0.00000E+00  9.000E+00
#rwgt            1           1   2.8380771521025135E-002           8      260814           0
</event>
<event>
      5   9999  3.19816E-02  1.35206E+02 -1.00000E+00  1.18209E-01
      21    -1     0     0   511   501  0.000000000E+00  0.000000000E+00  9.615233724E+02  9.615233724E+02  0.000000000E+00  0.00000E+00  9.000E+00
      21    -1     0     0   501   502  0.000000000E+00  0.000000000E+00 -9.590898518E+01  9.590898518E+01  0.000000000E+00  0.00000E+00  9.000E+00
      25     1     1     2     0     0  1.204300502E+02 -2.006524648E+02  3.616016537E+02  4.484925469E+02  1.250000000E+02  0.00000E+00  9.000E+00
      25     1     1     2     0     0 -5.024320542E+00  1.302090462E+02  1.675546575E+02  2.463314896E+02  1.250000000E+02  0.00000E+00  9.000E+00
      21     1     1     2   511   502 -1.154057296E+02  7.044341864E+01  3.364580760E+02  3.626083211E+02  5.394796609E-06  0.00000E+00  9.000E+00
#rwgt            1           1   2.9426274662712915E-002           8      261046           0
</event>
<event>
      5   9999  3.19816E-02  2.07665E+02 -1.00000E+00  1.11057E-01
      21    -1     0     0   502   501  0.000000000E+00  0.000000000E+00  5.139299522E+02  5.139299522E+02  0.000000000E+00  0.00000E+00  9.000E+00
      21    -1     0     0   501   512  0.000000000E+00  0.000000000E+00 -3.096914908E+02  3.096914908E+02  0.000000000E+00  0.00000E+00  9.000E+00
      25     1     1     2     0     0  1.929366704E+02 -1.637213079E+02  2.313781344E+02  3.649521428E+02  1.250000000E+02  0.00000E+00  9.000E+00
      25     1     1     2     0     0 -2.122525177E+02 -4.304338168E+01 -9.119731392E+00  2.502239666E+02  1.250000000E+02  0.00000E+00  9.000E+00
      21     1     1     2   502   512  1.931584733E+01  2.067646895E+02 -1.801994164E+01  2.084453336E+02  1.768159506E-06  0.00000E+00  9.000E+00
#rwgt            1           1   2.7417568761258570E-002           8      261184           0
</event>
<event>
      5   9999  3.19816E-02  3.67472E+01 -1.00000E+00  1.47162E-01
      21    -1     0     0   502   501  0.000000000E+00  0.000000000E+00  7.265295842E+02  7.265295842E+02  0.000000000E+00  0.00000E+00  9.000E+00
      21    -1     0     0   511   502  0.000000000E+00  0.000000000E+00 -5.553904634E+02  5.553904634E+02  0.000000000E+00  0.00000E+00  9.000E+00
      25     1     1     2     0     0  6.438369630E+01 -1.030229853E+02  1.319670930E+02  2.186305319E+02  1.250000000E+02  0.00000E+00  9.000E+00
      25     1     1     2     0     0 -3.673091607E+01  1.272238391E+02  5.354938612E+02  5.656091767E+02  1.250000000E+02  0.00000E+00  9.000E+00
      21     1     1     2   511   501 -2.765278023E+01 -2.420085384E+01 -4.963218333E+02  4.976803390E+02  7.629394531E-06  0.00000E+00  9.000E+00
#rwgt            1           1   2.5209727726831079E-002           8      261214           0
</event>
<event>
      5   9999  3.19816E-02  2.16246E+02 -1.00000E+00  1.10427E-01
      21    -1     0     0   502   501  0.000000000E+00  0.000000000E+00  1.515554172E+03  1.515554172E+03  0.000000000E+00  0.00000E+00  9.000E+00
      21    -1     0     0   512   502  0.000000000E+00  0.000000000E+00 -3.853490496E+02  3.853490496E+02  0.000000000E+00  0.00000E+00  9.000E+00
      25     1     1     2     0     0  2.238412980E+02 -5.005864113E+02  2.054030688E+02  5.987546263E+02  1.250000000E+02  0.00000E+00  9.000E+00
      25     1     1     2     0     0 -4.394134093E+02  5.176452776E+02  7.812038405E+02  1.042566649E+03  1.250000000E+02  0.00000E+00  9.000E+00
      21     1     1     2   512   501  2.155721113E+02 -1.705886628E+01  1.435982136E+02  2.595819466E+02  0.000000000E+00  0.00000E+00  9.000E+00
#rwgt            2          11   5.8991006954946757E-003           8      261315           0
</event>
<event>
      5   9999  3.19816E-02  7.33790E+01 -1.00000E+00  1.30192E-01
       1    -1     0     0   502     0  0.000000000E+00  0.000000000E+00  1.470938210E+03  1.470938210E+03  0.000000000E+00  0.00000E+00  9.000E+00
      21    -1     0     0   501   502  0.000000000E+00  0.000000000E+00 -1.182601985E+03  1.182601985E+03  0.000000000E+00  0.00000E+00  9.000E+00
      25     1     1     2     0     0 -1.452359866E+02 -2.165578401E+02 -7.316842057E+02  7.867512738E+02  1.250000000E+02  0.00000E+00  9.000E+00
      25     1     1     2     0     0  9.123107617E+01  1.668794429E+02 -3.917774050E+02  4.530854145E+02  1.250000000E+02  0.00000E+00  9.000E+00
       1     1     1     2   501     0  5.400491040E+01  4.967839720E+01  1.411797837E+03  1.413703507E+03  0.000000000E+00  0.00000E+00  9.000E+00
#rwgt            1           1   2.4307803723389143E-002           8      261335           0
</event>
<event>
      5   9999  3.19816E-02  2.50119E+01 -1.00000E+00  1.58735E-01
      21    -1     0     0   502   501  0.000000000E+00  0.000000000E+00  2.088137199E+02  2.088137199E+02  0.000000000E+00  0.00000E+00  9.000E+00
      21    -1     0     0   501   511  0.000000000E+00  0.000000000E+00 -8.613840437E+02  8.613840437E+02  0.000000000E+00  0.00000E+00  9.000E+00
      25     1     1     2     0     0  2.623025942E+02  1.970991683E+02 -5.764057440E+01  3.558063643E+02  1.250000000E+02  0.00000E+00  9.000E+00
      25     1     1     2     0     0 -2.672499036E+02 -2.216169053E+02 -5.704539490E+02  6.793962553E+02  1.250000000E+02  0.00000E+00  9.000E+00
      21     1     1     2   502   511  4.947309416E+00  2.451773703E+01 -2.447580033E+01  3.499514397E+01  6.743495762E-07  0.00000E+00  9.000E+00
#rwgt            1           1   2.6172398018398411E-002           8      261404           0
</event>
<event>
      5   9999  3.19816E-02  1.84843E+02 -1.00000E+00  1.12908E-01
      21    -1     0     0   502   512  0.000000000E+00  0.000000000E+00  5.973548583E+02  5.973548583E+02  0.000000000E+00  0.00000E+00  9.000E+00
      21    -1     0     0   501   502  0.000000000E+00  0.000000000E+00 -5.842540033E+02  5.842540033E+02  0.000000000E+00  0.00000E+00  9.000E+00
      25     1     1     2     0     0  3.170315782E+02  2.309914575E+02 -2.909151486E+02  5.041058408E+02  1.250000000E+02  0.00000E+00  9.000E+00
      25     1     1     2     0     0 -1.333913460E+02 -2.520417714E+02 -1.178867135E+01  3.115802922E+02  1.250000000E+02  0.00000E+00  9.000E+00
      21     1     1     2   501   512 -1.836402321E+02  2.105031388E+01  3.158046750E+02  3.659227286E+02  3.814697266E-06  0.00000E+00  9.000E+00
#rwgt            2          11   3.2153985997555733E-003           8      261537           0
</event>
<event>
      5   9999  3.19816E-02  4.52970E+01 -1.00000E+00  1.41568E-01
      21    -1     0     0   502   501  0.000000000E+00  0.000000000E+00  1.341302144E+02  1.341302144E+02  0.000000000E+00  0.00000E+00  9.000E+00
      21    -1     0     0   511   502  0.000000000E+00  0.000000000E+00 -1.152529675E+03  1.152529675E+03  0.000000000E+00  0.00000E+00  9.000E+00
      25     1     1     2     0     0  6.989020072E+01 -1.470223199E+02 -5.563787550E+02  5.930282639E+02  1.250000000E+02  0.00000E+00  9.000E+00
      25     1     1     2     0     0 -1.142042779E+02  1.376373437E+02  1.097033935E+01  2.184765521E+02  1.250000000E+02  0.00000E+00  9.000E+00
      21     1     1     2   511   501  4.431407720E+01  9.384976174E+00 -4.729910453E+02  4.751550738E+02  7.629394531E-06  0.00000E+00  9.000E+00
#rwgt            1           1   2.7243042836163595E-002           8      261572           0
</event>
<event>
      5   9999  3.19816E-02  8.08790E+01 -1.00000E+00  1.28120E-01
      21    -1     0     0   502   512  0.000000000E+00  0.000000000E+00  8.858654177E+02  8.858654177E+02  0.000000000E+00  0.00000E+00  9.000E+00
      21    -1     0     0   501   502  0.000000000E+00  0.000000000E+00 -2.058827204E+03  2.058827204E+03  0.000000000E+00  0.00000E+00  9.000E+00
      25     1     1     2     0     0 -1.295000092E+02  1.256508489E+03 -6.307941818E+02  1.417430822E+03  1.250000000E+02  0.00000E+00  9.000E+00
      25     1     1     2     0     0  1.988955984E+02 -1.214967449E+03 -6.457660930E+02  1.395831010E+03  1.250000000E+02  0.00000E+00  9.000E+00
      21     1     1     2   501   512 -6.939558917E+01 -4.154103998E+01  1.035984881E+02  1.314307899E+02  1.348699152E-06  0.00000E+00  9.000E+00
#rwgt            1           1   6.1920329477512581E-002           8      261697           0
</event>
<event>
      5   9999  3.19816E-02  5.57671E+01 -1.00000E+00  1.36424E-01
      21    -1     0     0   502   501  0.000000000E+00  0.000000000E+00  4.990222725E+02  4.990222725E+02  0.000000000E+00  0.00000E+00  9.000E+00
      21    -1     0     0   501   511  0.000000000E+00  0.000000000E+00 -3.165013009E+02  3.165013009E+02  0.000000000E+00  0.00000E+00  9.000E+00
      25     1     1     2     0     0 -2.906240014E+02 -8.877469850E+01  2.223228864E+02  3.967312984E+02  1.250000000E+02  0.00000E+00  9.000E+00
      25     1     1     2     0     0  3.223795176E+02  4.293192717E+01  3.096872050E+00  3.484340602E+02  1.250000000E+02  0.00000E+00  9.000E+00
      21     1     1     2   502   511 -3.175551615E+01  4.584277133E+01 -4.289878674E+01  7.035821482E+01  9.536743164E-07  0.00000E+00  9.000E+00
#rwgt            1           1   2.6697469171862623E-002           8      261900           0
</event>
<event>
      5   9999  3.19816E-02  3.55448E+01 -1.00000E+00  1.48094E-01
       1    -1     0     0   502     0  0.000000000E+00  0.000000000E+00  4.049146494E+02  4.049146494E+02  0.000000000E+00  0.00000E+00  9.000E+00
      21    -1     0     0   501   502  0.000000000E+00  0.000000000E+00 -7.457750967E+02  7.457750967E+02  0.000000000E+00  0.00000E+00  9.000E+00
      25     1     1     2     0     0 -3.792685293E+01 -5.987934662E+01  1.081802541E+02  1.798664774E+02  1.250000000E+02  0.00000E+00  9.000E+00
      25     1     1     2     0     0  2.978386723E+01  9.447881591E+01 -6.997043061E+02  7.176520337E+02  1.250000000E+02  0.00000E+00  9.000E+00
       1     1     1     2   501     0  8.142985696E+00 -3.459946929E+01  2.506636048E+02  2.531712351E+02  0.000000000E+00  0.00000E+00  9.000E+00
#rwgt            1           1   2.8360809445594520E-002           8      262012           0
</event>
<event>
      5   9999  3.19816E-02  8.08449E+01 -1.00000E+00  1.28129E-01
      21    -1     0     0   502   501  0.000000000E+00  0.000000000E+00  1.607724546E+02  1.607724546E+02  0.000000000E+00  0.00000E+00  9.000E+00
       1    -1     0     0   501     0  0.000000000E+00  0.000000000E+00 -5.946776702E+02  5.946776702E+02  0.000000000E+00  0.00000E+00  9.000E+00
      25     1     1     2     0     0 -1.368878279E+02  9.454018533E+01 -2.630658641E+02  3.354173116E+02  1.250000000E+02  0.00000E+00  9.000E+00
      25     1     1     2     0     0  7.083829012E+01 -4.792099798E+01  6.936662663E+01  1.665869571E+02  1.250000000E+02  0.00000E+00  9.000E+00
       1     1     1     2   502     0  6.604953780E+01 -4.661918734E+01 -2.402059781E+02  2.534458561E+02  0.000000000E+00  0.00000E+00  9.000E+00
#rwgt            1           1   2.6740949914258006E-002           8      262135           0
</event>
<event>
      5   9999  3.19816E-02  1.22651E+01 -1.00000E+00  1.86036E-01
      21    -1     0     0   502   501  0.000000000E+00  0.000000000E+00  4.417312600E+02  4.417312600E+02  0.000000000E+00  0.00000E+00  9.000E+00
      21    -1     0     0   511   502  0.000000000E+00  0.000000000E+00 -5.618968890E+02  5.618968890E+02  0.000000000E+00  0.00000E+00  9.000E+00
      25     1     1     2     0     0  2.816806455E+02 -3.223657086E+02 -3.086967125E+00  4.459800057E+02  1.250000000E+02  0.00000E+00  9.000E+00
      25     1     1     2     0     0 -2.770994792E+02  3.109882791E+02  5.043322672E+00  4.349117913E+02  1.250000000E+02  0.00000E+00  9.000E+00
      21     1     1     2   511   501 -4.581166323E+00  1.137742951E+01 -1.221219845E+02  1.227363520E+02  1.348699152E-06  0.00000E+00  9.000E+00
#rwgt            1           1   3.0498441942986679E-002           8      262182           0
</event>
<event>
      5   9999  3.19816E-02  9.09158E+01 -1.00000E+00  1.25717E-01
      21    -1     0     0   502   512  0.000000000E+00  0.000000000E+00  5.467917818E+01  5.467917818E+01  0.000000000E+00  0.00000E+00  9.000E+00
      21    -1     0     0   501   502  0.000000000E+00  0.000000000E+00 -1.635936242E+03  1.635936242E+03  0.000000000E+00  0.00000E+00  9.000E+00
      25     1     1     2     0     0 -2.429800878E+01  7.071602181E+01 -1.323725073E+03  1.331714766E+03  1.250000000E+02  0.00000E+00  9.000E+00
      25     1     1     2     0     0 -3.350359060E+01 -5.400820860E-01 -6.249184655E+01  1.437115624E+02  1.250000000E+02  0.00000E+00  9.000E+00
      21     1     1     2   501   512  5.780159938E+01 -7.017593972E+01 -1.950401449E+02  2.151890925E+02  2.697398305E-06  0.00000E+00  9.000E+00
#rwgt            1           1   2.7677150536311639E-002           8      262398           0
</event>
<event>
      5   9999  3.19816E-02  5.04337E+01 -1.00000E+00  1.38862E-01
      21    -1     0     0   502   501  0.000000000E+00  0.000000000E+00  1.693015635E+02  1.693015635E+02  0.000000000E+00  0.00000E+00  9.000E+00
      21    -1     0     0   511   502  0.000000000E+00  0.000000000E+00 -2.122579490E+03  2.122579490E+03  0.000000000E+00  0.00000E+00  9.000E+00
      25     1     1     2     0     0  2.803184708E+01 -4.115835345E+02 -2.012207336E+02  4.757116500E+02  1.250000000E+02  0.00000E+00  9.000E+00
      25     1     1     2     0     0  2.053888597E+01  3.980025974E+02 -1.414898489E+03  1.475259518E+03  1.250000000E+02  0.00000E+00  9.000E+00
      21     1     1     2   511   501 -4.857073305E+01  1.358093713E+01 -3.371587041E+02  3.409098850E+02  0.000000000E+00  0.00000E+00  9.000E+00
#rwgt            1           1   3.0272758401751382E-002           8      262457           0
</event>
<event>
      5   9999  3.19816E-02  1.19354E+02 -1.00000E+00  1.20468E-01
      21    -1     0     0   502   501  0.000000000E+00  0.000000000E+00  3.663845151E+02  3.663845151E+02  0.000000000E+00  0.00000E+00  9.000E+00
      21    -1     0     0   501   512  0.000000000E+00  0.000000000E+00 -8.433856378E+02  8.433856378E+02  0.000000000E+00  0.00000E+00  9.000E+00
      25     1     1     2     0     0  3.167291177E+02 -1.202308629E+02  2.046420042E+02  4.150616150E+02  1.250000000E+02  0.00000E+00  9.000E+00
      25     1     1     2     0     0 -2.559540305E+02  1.750934510E+01 -5.275960471E+02  5.998346703E+02  1.250000000E+02  0.00000E+00  9.000E+00
      21     1     1     2   502   512 -6.077508721E+01  1.027215178E+02 -1.540470798E+02  1.948738675E+02  2.697398305E-06  0.00000E+00  9.000E+00
#rwgt            1           1   2.7894199942694136E-002           8      262571           0
</event>
<event>
      5   9999  4.94910E-02  1.54733E+01 -1.00000E+00  1.76122E-01
       2    -1     0     0   502     0  0.000000000E+00  0.000000000E+00  2.512249437E+03  2.512249437E+03  0.000000000E+00  0.00000E+00  9.000E+00
      21    -1     0     0   501   502  0.000000000E+00  0.000000000E+00 -8.350763973E+01  8.350763973E+01  0.000000000E+00  0.00000E+00  9.000E+00
      25     1     1     2     0     0  2.756296408E+01 -2.876884135E+01 -1.949766030E+01  1.326368048E+02  1.250000000E+02  0.00000E+00  9.000E+00
      25     1     1     2     0     0 -3.109753057E+01  1.370465276E+01  5.588110363E+02  5.736284932E+02  1.250000000E+02  0.00000E+00  9.000E+00
       2     1     1     2   501     0  3.534566486E+00  1.506418859E+01  1.889428422E+03  1.889491779E+03  2.157918644E-05  0.00000E+00  9.000E+00
#rwgt            1           1   4.5579866477875070E-002           8      262678           0
</event>
<event>
      5   9999  3.19816E-02  8.47554E+01 -1.00000E+00  1.27147E-01
      21    -1     0     0   502   501  0.000000000E+00  0.000000000E+00  4.222038922E+02  4.222038922E+02  0.000000000E+00  0.00000E+00  9.000E+00
      21    -1     0     0   511   502  0.000000000E+00  0.000000000E+00 -7.880098816E+02  7.880098816E+02  0.000000000E+00  0.00000E+00  9.000E+00
      25     1     1     2     0     0 -3.919281196E+02  1.965566743E+02  9.315268500E+00  4.560196831E+02  1.250000000E+02  0.00000E+00  9.000E+00
      25     1     1     2     0     0  3.429446625E+02 -2.657238521E+02 -9.479653852E+01  4.613367434E+02  1.250000000E+02  0.00000E+00  9.000E+00
      21     1     1     2   511   501  4.898345709E+01  6.916717781E+01 -2.803247194E+02  2.928573473E+02  3.814697266E-06  0.00000E+00  9.000E+00
#rwgt            1           1   2.8752651869597735E-002           8      262802           0
</event>
<event>
      5   9999  3.19816E-02  3.75757E+01 -1.00000E+00  1.46545E-01
      21    -1     0     0   502   501  0.000000000E+00  0.000000000E+00  9.077808337E+02  9.077808337E+02  0.000000000E+00  0.00000E+00  9.000E+00
      21    -1     0     0   501   512  0.000000000E+00  0.000000000E+00 -1.919991764E+03  1.919991764E+03  0.000000000E+00  0.00000E+00  9.000E+00
      25     1     1     2     0     0  9.774647609E+02 -5.063797113E+02 -4.512783869E+02  1.196300528E+03  1.250000000E+02  0.00000E+00  9.000E+00
      25     1     1     2     0     0 -9.449358141E+02  5.251892450E+02 -1.921122875E+01  1.088449129E+03  1.250000000E+02  0.00000E+00  9.000E+00
      21     1     1     2   502   512 -3.252894675E+01 -1.880953376E+01 -5.417213143E+02  5.430229400E+02  7.629394531E-06  0.00000E+00  9.000E+00
#rwgt            1           1   2.7659580976973727E-002           8      262860           0
</event>
<event>
      5   9999  3.19816E-02  1.98478E+01 -1.00000E+00  1.66643E-01
      21    -1     0     0   502   501  0.000000000E+00  0.000000000E+00  4.702639408E+02  4.702639408E+02  0.000000000E+00  0.00000E+00  9.000E+00
      21    -1     0     0   511   502  0.000000000E+00  0.000000000E+00 -5.072747667E+02  5.072747667E+02  0.000000000E+00  0.00000E+00  9.000E+00
      25     1     1     2     0     0  1.530216113E+02 -3.208194747E+02  2.761600850E+02  4.671510906E+02  1.250000000E+02  0.00000E+00  9.000E+00
      25     1     1     2     0     0 -1.725253901E+02  3.171400634E+02 -2.886396826E+02  4.788326392E+02  1.250000000E+02  0.00000E+00  9.000E+00
      21     1     1     2   511   501  1.950377874E+01  3.679411284E+00 -2.453122826E+01  3.155497762E+01  3.371747881E-07  0.00000E+00  9.000E+00
#rwgt            1           1   3.0005620161811790E-002           8      263083           0
</event>
<event>
      5   9999  3.19816E-02  3.28672E+02 -1.00000E+00  1.04320E-01
      21    -1     0     0   502   501  0.000000000E+00  0.000000000E+00  6.623132262E+02  6.623132262E+02  0.000000000E+00  0.00000E+00  9.000E+00
       2    -1     0     0   501     0  0.000000000E+00  0.000000000E+00 -1.330406286E+03  1.330406286E+03  0.000000000E+00  0.00000E+00  9.000E+00
      25     1     1     2     0     0  4.448574647E+02 -5.176445957E+02  1.569403865E+02  7.114136464E+02  1.250000000E+02  0.00000E+00  9.000E+00
      25     1     1     2     0     0 -1.338731181E+02  6.240127923E+02 -5.161836666E+02  8.302918489E+02  1.250000000E+02  0.00000E+00  9.000E+00
       2     1     1     2   502     0 -3.109843466E+02 -1.063681966E+02 -3.088497796E+02  4.510140169E+02  8.529922400E-06  0.00000E+00  9.000E+00
#rwgt            2          13   9.3374532243143185E-004           8      263290           0
</event>
<event>
      5   9999  3.19816E-02  8.56626E+01 -1.00000E+00  1.26928E-01
      21    -1     0     0   502   501  0.000000000E+00  0.000000000E+00  1.406713527E+03  1.406713527E+03  0.000000000E+00  0.00000E+00  9.000E+00
       5    -1     0     0   501     0  0.000000000E+00  0.000000000E+00 -2.397226456E+02  2.397226456E+02  0.000000000E+00  0.00000E+00  9.000E+00
      25     1     1     2     0     0  2.969515855E+01  5.442465107E+01  1.382024105E+02  1.963892853E+02  1.250000000E+02  0.00000E+00  9.000E+00
      25     1     1     2     0     0 -5.256477033E+01  2.812870909E+01  1.226647305E+03  1.234440314E+03  1.250000000E+02  0.00000E+00  9.000E+00
       5     1     1     2   502     0  2.286961178E+01 -8.255336016E+01 -1.978588336E+02  2.156065733E+02  5.394796609E-06  0.00000E+00  9.000E+00
#rwgt            1           1   3.3340702008346677E-002           8      263309           0
</event>
<event>
      5   9999  3.19816E-02  6.98761E+01 -1.00000E+00  1.31260E-01
      21    -1     0     0   502   511  0.000000000E+00  0.000000000E+00  6.349959432E+01  6.349959432E+01  0.000000000E+00  0.00000E+00  9.000E+00
      21    -1     0     0   501   502  0.000000000E+00  0.000000000E+00 -4.202649641E+03  4.202649641E+03  0.000000000E+00  0.00000E+00  9.000E+00
      25     1     1     2     0     0 -2.576258792E+02  1.656925963E+02 -5.022614050E+02  6.014288396E+02  1.250000000E+02  0.00000E+00  9.000E+00
      25     1     1     2     0     0  2.257071788E+02 -2.278526010E+02 -3.409647757E+03  3.426978752E+03  1.250000000E+02  0.00000E+00  9.000E+00
      21     1     1     2   501   511  3.191870036E+01  6.216000478E+01 -2.272408849E+02  2.377416443E+02  2.697398305E-06  0.00000E+00  9.000E+00
#rwgt            1           1   1.2562566389916839E-002           8      263369           0
</event>
<event>
      5   9999  3.19816E-02  1.07937E+01 -1.00000E+00  1.91999E-01
      21    -1     0     0   502   501  0.000000000E+00  0.000000000E+00  6.266740312E+01  6.266740312E+01  0.000000000E+00  0.00000E+00  9.000E+00
      21    -1     0     0   512   502  0.000000000E+00  0.000000000E+00 -7.017612807E+02  7.017612807E+02  0.000000000E+00  0.00000E+00  9.000E+00
      25     1     1     2     0     0  8.467683840E+01 -1.264069034E+02 -2.982006624E+02  3.573478798E+02  1.250000000E+02  0.00000E+00  9.000E+00
      25     1     1     2     0     0 -7.942802655E+01  1.169753973E+02 -2.385795487E+02  3.041993689E+02  1.250000000E+02  0.00000E+00  9.000E+00
      21     1     1     2   512   501 -5.248811857E+00  9.431506104E+00 -1.023136665E+02  1.028814351E+02  1.348699152E-06  0.00000E+00  9.000E+00
#rwgt            1           1   2.9277424969797541E-002           8      263500           0
</event>
<event>
      5   9999  3.19816E-02  9.26657E+01 -1.00000E+00  1.25334E-01
      21    -1     0     0   511   501  0.000000000E+00  0.000000000E+00  3.742423857E+02  3.742423857E+02  0.000000000E+00  0.00000E+00  9.000E+00
      21    -1     0     0   501   502  0.000000000E+00  0.000000000E+00 -8.921703573E+02  8.921703573E+02  0.000000000E+00  0.00000E+00  9.000E+00
      25     1     1     2     0     0 -3.516252346E+02 -2.916567772E+02 -2.495622682E+02  5.353599789E+02  1.250000000E+02  0.00000E+00  9.000E+00
      25     1     1     2     0     0  4.300807475E+02  2.423449003E+02 -3.413792918E+02  6.130785602E+02  1.250000000E+02  0.00000E+00  9.000E+00
      21     1     1     2   511   502 -7.845551288E+01  4.931187699E+01  7.301358832E+01  1.179742039E+02  1.651812370E-06  0.00000E+00  9.000E+00
#rwgt            1           1   2.7564469482932320E-002           8      263712           0
</event>
<event>
      5   9999  3.19816E-02  4.40328E+01 -1.00000E+00  1.42300E-01
      21    -1     0     0   502   501  0.000000000E+00  0.000000000E+00  8.399427955E+02  8.399427955E+02  0.000000000E+00  0.00000E+00  9.000E+00
      21    -1     0     0   501   512  0.000000000E+00  0.000000000E+00 -1.697943283E+02  1.697943283E+02  0.000000000E+00  0.00000E+00  9.000E+00
      25     1     1     2     0     0 -1.459852247E+02  3.934872963E+01 -6.637824644E+01  2.071016175E+02  1.250000000E+02  0.00000E+00  9.000E+00
      25     1     1     2     0     0  1.585466673E+02 -8.155183341E+01  7.251789239E+02  7.571639313E+02  1.250000000E+02  0.00000E+00  9.000E+00
      21     1     1     2   502   512 -1.256144258E+01  4.220310378E+01  1.134778980E+01  4.547157510E+01  9.973764736E-07  0.00000E+00  9.000E+00
#rwgt            1           1   2.9703054782094659E-002           8      263849           0
</event>
<event>
      5   9999  3.19816E-02  6.22686E+00 -1.00000E+00  2.22997E-01
      21    -1     0     0   502   501  0.000000000E+00  0.000000000E+00  3.644491513E+02  3.644491513E+02  0.000000000E+00  0.00000E+00  9.000E+00
      21    -1     0     0   501   511  0.000000000E+00  0.000000000E+00 -2.221794736E+03  2.221794736E+03  0.000000000E+00  0.00000E+00  9.000E+00
      25     1     1     2     0     0 -2.527104932E+02  3.439460450E+02 -1.319667952E+03  1.392591102E+03  1.250000000E+02  0.00000E+00  9.000E+00
      25     1     1     2     0     0  2.518826100E+02 -3.377744694E+02  1.807357412E+02  4.752124257E+02  1.250000000E+02  0.00000E+00  9.000E+00
      21     1     1     2   502   511  8.278832440E-01 -6.171575589E+00 -7.184133738E+02  7.184403589E+02  1.078959322E-05  0.00000E+00  9.000E+00
#rwgt            1           1   3.1045544057942319E-002           8      263957           0
</event>
<event>
      5   9999  3.19816E-02  2.03942E+01 -1.00000E+00  1.65673E-01
      21    -1     0     0   512   501  0.000000000E+00  0.000000000E+00  3.635666045E+02  3.635666045E+02  0.000000000E+00  0.00000E+00  9.000E+00
      21    -1     0     0   501   502  0.000000000E+00  0.000000000E+00 -1.403583241E+02  1.403583241E+02  0.000000000E+00  0.00000E+00  9.000E+00
      25     1     1     2     0     0  6.627507377E+01 -1.241132505E+02  1.067829331E+02  2.163887223E+02  1.250000000E+02  0.00000E+00  9.000E+00
      25     1     1     2     0     0 -4.588092946E+01  1.240939788E+02  1.339519738E+01  1.825070042E+02  1.250000000E+02  0.00000E+00  9.000E+00
      21     1     1     2   512   502 -2.039414431E+01  1.927163715E-02  1.030301500E+02  1.050292021E+02  1.907348633E-06  0.00000E+00  9.000E+00
#rwgt            1           1   2.5057296035678720E-002           8      264363           0
</event>
<event>
      5   9999  3.19816E-02  1.69595E+02 -1.00000E+00  1.14319E-01
      21    -1     0     0   511   501  0.000000000E+00  0.000000000E+00  8.350900299E+02  8.350900299E+02  0.000000000E+00  0.00000E+00  9.000E+00
      21    -1     0     0   501   502  0.000000000E+00  0.000000000E+00 -2.860096261E+02  2.860096261E+02  0.000000000E+00  0.00000E+00  9.000E+00
      25     1     1     2     0     0 -1.770595866E+02  6.483021457E+01  3.438207672E+02  4.115711043E+02  1.250000000E+02  0.00000E+00  9.000E+00
      25     1     1     2     0     0  7.470691436E+00 -6.337065597E+01 -2.147659302E+02  2.565561459E+02  1.250000000E+02  0.00000E+00  9.000E+00
      21     1     1     2   511   502  1.695888952E+02 -1.459558599E+00  4.200255667E+02  4.529724058E+02  7.629394531E-06  0.00000E+00  9.000E+00
#rwgt            2          11   2.5115822717615760E-003           8      264531           0
</event>
<event>
      5   9999  3.19816E-02  1.34649E+02 -1.00000E+00  1.18283E-01
      21    -1     0     0   502   501  0.000000000E+00  0.000000000E+00  3.901332341E+02  3.901332341E+02  0.000000000E+00  0.00000E+00  9.000E+00
      -1    -1     0     0     0   502  0.000000000E+00  0.000000000E+00 -8.542878673E+02  8.542878673E+02  0.000000000E+00  0.00000E+00  9.000E+00
      25     1     1     2     0     0  2.452778892E+02  1.995046886E+01 -7.377466165E+02  7.876892371E+02  1.250000000E+02  0.00000E+00  9.000E+00
      25     1     1     2     0     0 -1.177739541E+02  2.332745376E+01  2.714532113E+02  3.220663290E+02  1.250000000E+02  0.00000E+00  9.000E+00
      -1     1     1     2     0   501 -1.275039351E+02 -4.327792261E+01  2.138772074E+00  1.346655353E+02  3.343841821E-06  0.00000E+00  9.000E+00
#rwgt            1           1   3.0253211286401308E-002           8      264566           0
</event>
<event>
      5   9999  3.19816E-02  1.26172E+02 -1.00000E+00  1.19451E-01
      21    -1     0     0   502   501  0.000000000E+00  0.000000000E+00  6.326116082E+02  6.326116082E+02  0.000000000E+00  0.00000E+00  9.000E+00
      21    -1     0     0   511   502  0.000000000E+00  0.000000000E+00 -1.602649106E+03  1.602649106E+03  0.000000000E+00  0.00000E+00  9.000E+00
      25     1     1     2     0     0 -1.465180279E+02  3.670226160E+02 -1.182521103E+03  1.253057976E+03  1.250000000E+02  0.00000E+00  9.000E+00
      25     1     1     2     0     0  2.591745339E+01 -3.299439929E+02  5.318775950E+02  6.387906769E+02  1.250000000E+02  0.00000E+00  9.000E+00
      21     1     1     2   511   501  1.206005746E+02 -3.707862313E+01 -3.193939897E+02  3.434120609E+02  0.000000000E+00  0.00000E+00  9.000E+00
#rwgt            1           1   3.0980835293586802E-002           8      264629           0
</event>
<event>
      5   9999  3.19816E-02  3.31041E+01 -1.00000E+00  1.50128E-01
      21    -1     0     0   512   501  0.000000000E+00  0.000000000E+00  5.009186469E+02  5.009186469E+02  0.000000000E+00  0.00000E+00  9.000E+00
      21    -1     0     0   501   502  0.000000000E+00  0.000000000E+00 -1.205809700E+03  1.205809700E+03  0.000000000E+00  0.00000E+00  9.000E+00
      25     1     1     2     0     0  5.378441902E+02 -3.487987740E+02  7.467059229E+00  6.531597926E+02  1.250000000E+02  0.00000E+00  9.000E+00
      25     1     1     2     0     0 -5.399006762E+02  3.157585866E+02 -7.621177478E+02  9.938031428E+02  1.250000000E+02  0.00000E+00  9.000E+00
      21     1     1     2   512   502  2.056485956E+00  3.304018735E+01  4.975963535E+01  5.976541161E+01  6.743495762E-07  0.00000E+00  9.000E+00
#rwgt            1           1   3.7454482308603793E-002           8      264677           0
</event>
<event>
      5   9999  3.19816E-02  3.16745E+01 -1.00000E+00  1.51419E-01
      21    -1     0     0   502   501  0.000000000E+00  0.000000000E+00  3.759174994E+01  3.759174994E+01  0.000000000E+00  0.00000E+00  9.000E+00
       2    -1     0     0   501     0  0.000000000E+00  0.000000000E+00 -3.455382085E+03  3.455382085E+03  0.000000000E+00  0.00000E+00  9.000E+00
      25     1     1     2     0     0  7.867425046E+01 -1.588540663E+02 -1.112308273E+03  1.133260317E+03  1.250000000E+02  0.00000E+00  9.000E+00
      25     1     1     2     0     0 -5.712227572E+01  1.820658985E+02 -4.551880527E+02  5.091484156E+02  1.250000000E+02  0.00000E+00  9.000E+00
       2     1     1     2   502     0 -2.155197474E+01 -2.321183218E+01 -1.850294009E+03  1.850565102E+03  2.157918644E-05  0.00000E+00  9.000E+00
#rwgt            1           1   1.3544631121994919E-002           8      264906           0
</event>
<event>
      5   9999  3.19816E-02  5.19649E+01 -1.00000E+00  1.38127E-01
       2    -1     0     0   502     0  0.000000000E+00  0.000000000E+00  1.143738344E+03  1.143738344E+03  0.000000000E+00  0.00000E+00  9.000E+00
      21    -1     0     0   501   502  0.000000000E+00  0.000000000E+00 -7.859597186E+02  7.859597186E+02  0.000000000E+00  0.00000E+00  9.000E+00
      25     1     1     2     0     0 -6.895879850E+01  1.329655670E+02 -6.892948889E+01  2.069092369E+02  1.250000000E+02  0.00000E+00  9.000E+00
      25     1     1     2     0     0  6.528074840E+01 -1.848001550E+02 -6.265325861E+02  6.682669787E+02  1.250000000E+02  0.00000E+00  9.000E+00
       2     1     1     2   501     0  3.678050104E+00  5.183458805E+01  1.053240700E+03  1.054521847E+03  1.525878906E-05  0.00000E+00  9.000E+00
#rwgt            1           1   3.1271000294508682E-002           8      265034           0
</event>
<event>
      5   9999  3.19816E-02  1.20967E+02 -1.00000E+00  1.20220E-01
       2    -1     0     0   502     0  0.000000000E+00  0.000000000E+00  1.828670116E+03  1.828670116E+03  0.000000000E+00  0.00000E+00  9.000E+00
      21    -1     0     0   501   502  0.000000000E+00  0.000000000E+00 -1.461883260E+02  1.461883260E+02  0.000000000E+00  0.00000E+00  9.000E+00
      25     1     1     2     0     0 -5.988028199E+01 -5.955430489E+01  1.538130706E+01  1.516375547E+02  1.250000000E+02  0.00000E+00  9.000E+00
      25     1     1     2     0     0  2.517628376E+01  1.754367007E+02  7.945882182E+01  2.309774569E+02  1.250000000E+02  0.00000E+00  9.000E+00
       2     1     1     2   501     0  3.470399823E+01 -1.158823958E+02  1.587641661E+03  1.592243430E+03  3.051757812E-05  0.00000E+00  9.000E+00
#rwgt            1           1   2.2987526366463909E-002           8      265115           0
</event>
<event>
      5   9999  3.19816E-02  7.80899E+01 -1.00000E+00  1.28860E-01
      21    -1     0     0   502   511  0.000000000E+00  0.000000000E+00  8.215430568E+02  8.215430568E+02  0.000000000E+00  0.00000E+00  9.000E+00
      21    -1     0     0   501   502  0.000000000E+00  0.000000000E+00 -5.296683882E+02  5.296683882E+02  0.000000000E+00  0.00000E+00  9.000E+00
      25     1     1     2     0     0 -1.073188968E+02 -1.893272773E+02 -3.532050840E+02  4.332908895E+02  1.250000000E+02  0.00000E+00  9.000E+00
      25     1     1     2     0     0  1.051503803E+02  2.673870585E+02  4.947064232E+01  3.172141012E+02  1.250000000E+02  0.00000E+00  9.000E+00
      21     1     1     2   501   511  2.168516519E+00 -7.805978126E+01  5.956091103E+02  6.007064543E+02  1.078959322E-05  0.00000E+00  9.000E+00
#rwgt            1           1   2.6226410514659165E-002           8      265152           0
</event>
<event>
      5   9999  3.19816E-02  1.12699E+02 -1.00000E+00  1.21537E-01
      21    -1     0     0   502   501  0.000000000E+00  0.000000000E+00  5.866100215E+02  5.866100215E+02  0.000000000E+00  0.00000E+00  9.000E+00
      21    -1     0     0   501   512  0.000000000E+00  0.000000000E+00 -1.190969895E+03  1.190969895E+03  0.000000000E+00  0.00000E+00  9.000E+00
      25     1     1     2     0     0  3.472057295E+02  3.244718036E+02 -8.039150087E+02  9.421985519E+02  1.250000000E+02  0.00000E+00  9.000E+00
      25     1     1     2     0     0 -4.486771248E+02 -3.735084117E+02  3.141652375E+02  6.746439745E+02  1.250000000E+02  0.00000E+00  9.000E+00
      21     1     1     2   502   512  1.014713953E+02  4.903660807E+01 -1.146101021E+02  1.607373898E+02  2.336015456E-06  0.00000E+00  9.000E+00
#rwgt            1           1   3.3964810510614778E-002           8      265236           0
</event>
<event>
      5   9999  3.19816E-02  9.74820E+01 -1.00000E+00  1.24328E-01
      21    -1     0     0   502   501  0.000000000E+00  0.000000000E+00  3.170441288E+02  3.170441288E+02  0.000000000E+00  0.00000E+00  9.000E+00
       2    -1     0     0   501     0  0.000000000E+00  0.000000000E+00 -1.950341142E+03  1.950341142E+03  0.000000000E+00  0.00000E+00  9.000E+00
      25     1     1     2     0     0  2.428606705E+02 -1.699860269E+02  1.703191511E+02  3.640194608E+02  1.250000000E+02  0.00000E+00  9.000E+00
      25     1     1     2     0     0 -2.899645125E+02  2.553322290E+02 -8.211074052E+02  9.160329342E+02  1.250000000E+02  0.00000E+00  9.000E+00
       2     1     1     2   502     0  4.710384203E+01 -8.534620213E+01 -9.825087590E+02  9.873328758E+02  1.078959322E-05  0.00000E+00  9.000E+00
#rwgt            1           1   3.0015660292470860E-002           8      265390           0
</event>
<event>
      5   9999  4.41097E-02  7.49298E+01 -1.00000E+00  1.29741E-01
      21    -1     0     0   511   501  0.000000000E+00  0.000000000E+00  1.416681124E+02  1.416681124E+02  0.000000000E+00  0.00000E+00  9.000E+00
      21    -1     0     0   501   502  0.000000000E+00  0.000000000E+00 -1.203624826E+03  1.203624826E+03  0.000000000E+00  0.00000E+00  9.000E+00
      25     1     1     2     0     0 -1.951913828E+01 -2.611265315E+02 -8.064982595E+02  8.571070556E+02  1.250000000E+02  0.00000E+00  9.000E+00
      25     1     1     2     0     0 -4.072734542E+01  3.056780952E+02 -2.434513582E+02  4.123001071E+02  1.250000000E+02  0.00000E+00  9.000E+00
      21     1     1     2   511   502  6.024648370E+01 -4.455156365E+01 -1.200709608E+01  7.588577586E+01  1.092571186E-06  0.00000E+00  9.000E+00
#rwgt            1           1   4.3914902875201542E-002           8      265463           0
</event>
<event>
      5   9999  3.19816E-02  5.76863E+01 -1.00000E+00  1.35622E-01
      21    -1     0     0   512   501  0.000000000E+00  0.000000000E+00  3.144396175E+02  3.144396175E+02  0.000000000E+00  0.00000E+00  9.000E+00
      21    -1     0     0   501   502  0.000000000E+00  0.000000000E+00 -5.118377278E+02  5.118377278E+02  0.000000000E+00  0.00000E+00  9.000E+00
      25     1     1     2     0     0  9.253637290E+01 -6.911321053E+01  1.933889750E+02  2.576119404E+02  1.250000000E+02  0.00000E+00  9.000E+00
      25     1     1     2     0     0 -4.503550112E+01  1.018451839E+02 -4.535258964E+02  4.834370451E+02  1.250000000E+02  0.00000E+00  9.000E+00
      21     1     1     2   512   502 -4.750087178E+01 -3.273197336E+01  6.273881109E+01  8.522835981E+01  9.536743164E-07  0.00000E+00  9.000E+00
#rwgt            1           1   2.7917410913440691E-002           8      265549           0
</event>
<event>
      5   9999  3.19816E-02  1.71584E+01 -1.00000E+00  1.72054E-01
      21    -1     0     0   502   501  0.000000000E+00  0.000000000E+00  2.467489637E+02  2.467489637E+02  0.000000000E+00  0.00000E+00  9.000E+00
      21    -1     0     0   501   511  0.000000000E+00  0.000000000E+00 -4.290642566E+02  4.290642566E+02  0.000000000E+00  0.00000E+00  9.000E+00
      25     1     1     2     0     0  1.642600108E+02 -2.262685121E+02 -8.676403328E+01  3.183265434E+02  1.250000000E+02  0.00000E+00  9.000E+00
      25     1     1     2     0     0 -1.483697406E+02  2.327422473E+02 -4.779817875E+01  3.067445183E+02  1.250000000E+02  0.00000E+00  9.000E+00
      21     1     1     2   502   511 -1.589027018E+01 -6.473735218E+00 -4.775308084E+01  5.074215864E+01  9.536743164E-07  0.00000E+00  9.000E+00
#rwgt            1           1   2.7465091034619422E-002           8      265618           0
</event>
<event>
      5   9999  3.19816E-02  1.06643E+02 -1.00000E+00  1.22584E-01
       4    -1     0     0   502     0  0.000000000E+00  0.000000000E+00  1.355746248E+03  1.355746248E+03  0.000000000E+00  0.00000E+00  9.000E+00
      21    -1     0     0   501   502  0.000000000E+00  0.000000000E+00 -1.105447301E+03  1.105447301E+03  0.000000000E+00  0.00000E+00  9.000E+00
      25     1     1     2     0     0  1.199877654E+02  7.288618990E+02 -7.252355733E+02  1.042702435E+03  1.250000000E+02  0.00000E+00  9.000E+00
      25     1     1     2     0     0 -1.364555593E+02 -6.234976505E+02  2.687714121E+02  7.037275835E+02  1.250000000E+02  0.00000E+00  9.000E+00
       4     1     1     2   501     0  1.646779392E+01 -1.053642485E+02  7.067631082E+02  7.147635303E+02  7.629394531E-06  0.00000E+00  9.000E+00
#rwgt            1           1   3.1540201884148279E-002           8      265785           0
</event>
<event>
      5   9999  3.19816E-02  5.14825E+01 -1.00000E+00  1.38355E-01
      21    -1     0     0   502   501  0.000000000E+00  0.000000000E+00  2.483002859E+02  2.483002859E+02  0.000000000E+00  0.00000E+00  9.000E+00
       1    -1     0     0   501     0  0.000000000E+00  0.000000000E+00 -6.509169874E+02  6.509169874E+02  0.000000000E+00  0.00000E+00  9.000E+00
      25     1     1     2     0     0  6.100948244E+01  3.629793720E+02 -1.954078146E+02  4.350694145E+02  1.250000000E+02  0.00000E+00  9.000E+00
      25     1     1     2     0     0 -4.258563934E+01 -3.149063623E+02 -1.182559616E+02  3.613710367E+02  1.250000000E+02  0.00000E+00  9.000E+00
       1     1     1     2   502     0 -1.842384310E+01 -4.807300968E+01 -8.895292525E+01  1.027768221E+02  0.000000000E+00  0.00000E+00  9.000E+00
#rwgt            1           1   3.2937991987817133E-002           8      265922           0
</event>
<event>
      5   9999  3.19816E-02  1.17596E+02 -1.00000E+00  1.20743E-01
      21    -1     0     0   502   501  0.000000000E+00  0.000000000E+00  3.493484260E+02  3.493484260E+02  0.000000000E+00  0.00000E+00  9.000E+00
      21    -1     0     0   501   511  0.000000000E+00  0.000000000E+00 -5.594226864E+02  5.594226864E+02  0.000000000E+00  0.00000E+00  9.000E+00
      25     1     1     2     0     0 -2.018705749E+02 -7.481174189E+01  2.041420842E+02  3.219433433E+02  1.250000000E+02  0.00000E+00  9.000E+00
      25     1     1     2     0     0  2.590759622E+02 -2.793189996E+01 -2.350857176E+02  3.725464264E+02  1.250000000E+02  0.00000E+00  9.000E+00
      21     1     1     2   502   511 -5.720538731E+01  1.027436419E+02 -1.791306270E+02  2.142813427E+02  1.907348633E-06  0.00000E+00  9.000E+00
#rwgt            1           1   3.1828542784007804E-002           8      266029           0
</event>
<event>
      5   9999  3.19816E-02  2.62169E+02 -1.00000E+00  1.07530E-01
      21    -1     0     0   502   501  0.000000000E+00  0.000000000E+00  8.651547369E+02  8.651547369E+02  0.000000000E+00  0.00000E+00  9.000E+00
      21    -1     0     0   512   502  0.000000000E+00  0.000000000E+00 -3.352263527E+02  3.352263527E+02  0.000000000E+00  0.00000E+00  9.000E+00
      25     1     1     2     0     0  2.704610185E+01 -2.707996032E+02  1.131470592E+02  3.201424272E+02  1.250000000E+02  0.00000E+00  9.000E+00
      25     1     1     2     0     0 -2.842113829E+02  2.198215600E+02  4.781091952E+02  6.109918419E+02  1.250000000E+02  0.00000E+00  9.000E+00
      21     1     1     2   512   501  2.571652810E+02  5.097804317E+01 -6.132787018E+01  2.692468204E+02  5.266838559E-06  0.00000E+00  9.000E+00
#rwgt            1           1   2.6881903485759431E-002           8      266073           0
</event>
<event>
      5   9999  3.19816E-02  1.08960E+02 -1.00000E+00  1.22175E-01
      21    -1     0     0   502   501  0.000000000E+00  0.000000000E+00  2.947222024E+02  2.947222024E+02  0.000000000E+00  0.00000E+00  9.000E+00
      21    -1     0     0   511   502  0.000000000E+00  0.000000000E+00 -2.210644295E+03  2.210644295E+03  0.000000000E+00  0.00000E+00  9.000E+00
      25     1     1     2     0     0  7.052347019E+02 -7.488002367E+01 -1.179653034E+03  1.382088739E+03  1.250000000E+02  0.00000E+00  9.000E+00
      25     1     1     2     0     0 -6.270908939E+02  1.508124994E+02 -3.985353494E+02  7.684027745E+02  1.250000000E+02  0.00000E+00  9.000E+00
      21     1     1     2   511   501 -7.814380801E+01 -7.593247574E+01 -3.377337093E+02  3.548749836E+02  3.814697266E-06  0.00000E+00  9.000E+00
#rwgt            2          11   4.0727681680406752E-003           8      266187           0
</event>
<event>
      5   9999  3.19816E-02  2.99306E+02 -1.00000E+00  1.05625E-01
      21    -1     0     0   502   512  0.000000000E+00  0.000000000E+00  3.216320225E+02  3.216320225E+02  0.000000000E+00  0.00000E+00  9.000E+00
      21    -1     0     0   501   502  0.000000000E+00  0.000000000E+00 -1.291692467E+03  1.291692467E+03  0.000000000E+00  0.00000E+00  9.000E+00
      25     1     1     2     0     0 -1.533854622E+02  2.002316968E+02 -8.788892110E+02  9.228711057E+02  1.250000000E+02  0.00000E+00  9.000E+00
      25     1     1     2     0     0  3.031470878E+02  5.891254186E+01 -1.794330412E+02  3.784046257E+02  1.250000000E+02  0.00000E+00  9.000E+00
      21     1     1     2   501   512 -1.497616256E+02 -2.591442387E+02  8.826180748E+01  3.120487584E+02  7.262967211E-06  0.00000E+00  9.000E+00
#rwgt            2          11   4.2497739256392034E-003           8      266207           0
</event>
<event>
      5   9999  3.19816E-02  2.04848E+01 -1.00000E+00  1.65515E-01
      21    -1     0     0   502   511  0.000000000E+00  0.000000000E+00  7.154757806E+01  7.154757806E+01  0.000000000E+00  0.00000E+00  9.000E+00
      21    -1     0     0   501   502  0.000000000E+00  0.000000000E+00 -5.301586198E+02  5.301586198E+02  0.000000000E+00  0.00000E+00  9.000E+00
      25     1     1     2     0     0 -3.082934183E+01 -4.513195552E+01 -4.029184218E+02  4.253887590E+02  1.250000000E+02  0.00000E+00  9.000E+00
      25     1     1     2     0     0  3.724393417E+01  6.458651814E+01 -4.133271740E+01  1.513007683E+02  1.250000000E+02  0.00000E+00  9.000E+00
      21     1     1     2   501   511 -6.414592337E+00 -1.945456262E+01 -1.435990256E+01  2.501667050E+01  0.000000000E+00  0.00000E+00  9.000E+00
#rwgt            1           1   2.4636644278794737E-002           8      266227           0
</event>
<event>
      5   9999  3.19816E-02  4.08868E+01 -1.00000E+00  1.44252E-01
      21    -1     0     0   502   512  0.000000000E+00  0.000000000E+00  8.090014701E+02  8.090014701E+02  0.000000000E+00  0.00000E+00  9.000E+00
      21    -1     0     0   501   502  0.000000000E+00  0.000000000E+00 -7.612556914E+02  7.612556914E+02  0.000000000E+00  0.00000E+00  9.000E+00
      25     1     1     2     0     0 -2.926940070E+02  3.410177257E+02  4.020804758E+02  6.158381118E+02  1.250000000E+02  0.00000E+00  9.000E+00
      25     1     1     2     0     0  3.162445726E+02 -3.075946463E+02 -5.719137435E+02  7.330316679E+02  1.250000000E+02  0.00000E+00  9.000E+00
      21     1     1     2   501   512 -2.355056564E+01 -3.342307940E+01  2.175790464E+02  2.213873818E+02  2.697398305E-06  0.00000E+00  9.000E+00
#rwgt            2          11   2.4955886574902627E-003           8      266346           0
</event>
<event>
      5   9999  3.19816E-02  9.87831E+01 -1.00000E+00  1.24068E-01
      21    -1     0     0   511   501  0.000000000E+00  0.000000000E+00  2.346313529E+03  2.346313529E+03  0.000000000E+00  0.00000E+00  9.000E+00
      21    -1     0     0   501   502  0.000000000E+00  0.000000000E+00 -4.347198071E+02  4.347198071E+02  0.000000000E+00  0.00000E+00  9.000E+00
      25     1     1     2     0     0  5.778907750E+02  1.091620048E+02  1.475606634E+03  1.593397009E+03  1.250000000E+02  0.00000E+00  9.000E+00
      25     1     1     2     0     0 -5.282030670E+02 -1.945390074E+02 -1.480495304E+02  5.953046017E+02  1.250000000E+02  0.00000E+00  9.000E+00
      21     1     1     2   511   502 -4.968770805E+01  8.537700261E+01  5.840366189E+02  5.923317256E+02  7.629394531E-06  0.00000E+00  9.000E+00
#rwgt            1           1   3.3260541583471165E-002           8      266426           0
</event>
<event>
      5   9999  3.19816E-02  1.10940E+01 -1.00000E+00  1.90685E-01
      21    -1     0     0   502   501  0.000000000E+00  0.000000000E+00  4.223533403E+02  4.223533403E+02  0.000000000E+00  0.00000E+00  9.000E+00
      21    -1     0     0   512   502  0.000000000E+00  0.000000000E+00 -9.785430885E+01  9.785430885E+01  0.000000000E+00  0.00000E+00  9.000E+00
      25     1     1     2     0     0 -8.713032299E+01  5.464374050E+01  3.100542029E+02  3.497659793E+02  1.250000000E+02  0.00000E+00  9.000E+00
      25     1     1     2     0     0  7.659420982E+01 -5.811749358E+01  1.815973347E+01  1.587422186E+02  1.250000000E+02  0.00000E+00  9.000E+00
      21     1     1     2   512   501  1.053611318E+01  3.473753076E+00 -3.714904920E+00  1.169945126E+01  2.308477966E-07  0.00000E+00  9.000E+00
#rwgt            1           1   2.8742560973556413E-002           8      266523           0
</event>
<event>
      5   9999  3.19816E-02  5.03169E+02 -1.00000E+00  9.87741E-02
       2    -1     0     0   502     0  0.000000000E+00  0.000000000E+00  2.669369703E+03  2.669369703E+03  0.000000000E+00  0.00000E+00  9.000E+00
      21    -1     0     0   501   502  0.000000000E+00  0.000000000E+00 -3.408581309E+02  3.408581309E+02  0.000000000E+00  0.00000E+00  9.000E+00
      25     1     1     2     0     0 -6.255158865E+01 -2.489426783E+02 -7.103292876E+01  2.942037309E+02  1.250000000E+02  0.00000E+00  9.000E+00
      25     1     1     2     0     0 -1.826438886E+02  6.883262573E+02  1.042447898E+03  1.268650640E+03  1.250000000E+02  0.00000E+00  9.000E+00
       2     1     1     2   501     0  2.451954773E+02 -4.393835790E+02  1.357096603E+03  1.447373463E+03  0.000000000E+00  0.00000E+00  9.000E+00
#rwgt            1           1   2.9643955356555795E-002           8      266799           0
</event>
<event>
      5   9999  3.19816E-02  1.92486E+01 -1.00000E+00  1.67753E-01
      21    -1     0     0   502   501  0.000000000E+00  0.000000000E+00  1.403221427E+03  1.403221427E+03  0.000000000E+00  0.00000E+00  9.000E+00
      21    -1     0     0   501   511  0.000000000E+00  0.000000000E+00 -4.971448175E+01  4.971448175E+01  0.000000000E+00  0.00000E+00  9.000E+00
      25     1     1     2     0     0 -1.142577390E+02  1.239620433E+02  9.764449408E+02  9.987447830E+02  1.250000000E+02  0.00000E+00  9.000E+00
      25     1     1     2     0     0  1.219280763E+02 -1.063077118E+02  3.829170435E+02  4.340717079E+02  1.250000000E+02  0.00000E+00  9.000E+00
      21     1     1     2   502   511 -7.670337320E+00 -1.765433147E+01 -5.855039037E+00  2.011941789E+01  5.264139692E-07  0.00000E+00  9.000E+00
#rwgt            1           1   3.1876676273055286E-002           8      266828           0
</event>
<event>
      5   9999  3.19816E-02  1.07659E+02 -1.00000E+00  1.22403E-01
      21    -1     0     0   502   512  0.000000000E+00  0.000000000E+00  2.451438458E+02  2.451438458E+02  0.000000000E+00  0.00000E+00  9.000E+00
      21    -1     0     0   501   502  0.000000000E+00  0.000000000E+00 -7.061397560E+02  7.061397560E+02  0.000000000E+00  0.00000E+00  9.000E+00
      25     1     1     2     0     0 -3.038223785E+02 -1.256845308E+01 -4.067426823E+02  5.230015424E+02  1.250000000E+02  0.00000E+00  9.000E+00
      25     1     1     2     0     0  2.637912415E+02 -8.737105157E+01 -8.496535132E+01  3.163283590E+02  1.250000000E+02  0.00000E+00  9.000E+00
      21     1     1     2   501   512  4.003113700E+01  9.993950465E+01  3.071212339E+01  1.119537004E+02  1.305872339E-06  0.00000E+00  9.000E+00
#rwgt            1           1   2.4359316872725720E-002           8      266991           0
</event>
<event>
      5   9999  3.19816E-02  2.53638E+02 -1.00000E+00  1.08016E-01
      21    -1     0     0   502   501  0.000000000E+00  0.000000000E+00  9.990260425E+02  9.990260425E+02  0.000000000E+00  0.00000E+00  9.000E+00
      21    -1     0     0   501   511  0.000000000E+00  0.000000000E+00 -2.242162051E+02  2.242162051E+02  0.000000000E+00  0.00000E+00  9.000E+00
      25     1     1     2     0     0 -2.584768227E+02  2.236197124E+02  6.123069168E+02  7.122926393E+02  1.250000000E+02  0.00000E+00  9.000E+00
      25     1     1     2     0     0  1.881288922E+02  2.006770779E+01  4.398253780E+01  2.309862693E+02  1.250000000E+02  0.00000E+00  9.000E+00
      21     1     1     2   502   511  7.034793056E+01 -2.436874201E+02  1.185203827E+02  2.799633390E+02  3.814697266E-06  0.00000E+00  9.000E+00
#rwgt            2          11   3.6570214505517265E-003           8      267154           0
</event>
<event>
      5   9999  3.19816E-02  4.55244E+01 -1.00000E+00  1.41440E-01
       2    -1     0     0   502     0  0.000000000E+00  0.000000000E+00  1.347330720E+03  1.347330720E+03  0.000000000E+00  0.00000E+00  9.000E+00
      21    -1     0     0   501   502  0.000000000E+00  0.000000000E+00 -2.883601178E+02  2.883601178E+02  0.000000000E+00  0.00000E+00  9.000E+00
      25     1     1     2     0     0 -1.667869612E+02 -2.261057780E+02  1.266081982E+02  3.325602940E+02  1.250000000E+02  0.00000E+00  9.000E+00
      25     1     1     2     0     0  1.676447248E+02  1.805894317E+02 -8.163742863E+01  2.881092959E+02  1.250000000E+02  0.00000E+00  9.000E+00
       2     1     1     2   501     0 -8.577635513E-01  4.551634622E+01  1.013999833E+03  1.015021248E+03  1.078959322E-05  0.00000E+00  9.000E+00
#rwgt            1           1   2.7337677436934146E-002           8      267219           0
</event>
<event>
      5   9999  3.19816E-02  5.42929E+01 -1.00000E+00  1.37065E-01
      21    -1     0     0   502   501  0.000000000E+00  0.000000000E+00  8.906644254E+02  8.906644254E+02  0.000000000E+00  0.00000E+00  9.000E+00
      21    -1     0     0   511   502  0.000000000E+00  0.000000000E+00 -9.249275601E+02  9.249275601E+02  0.000000000E+00  0.00000E+00  9.000E+00
      25     1     1     2     0     0  5.863915341E+02  3.611147126E+02  3.861981546E+02  7.993953224E+02  1.250000000E+02  0.00000E+00  9.000E+00
      25     1     1     2     0     0 -6.353869218E+02 -3.377231228E+02 -1.567743802E+02  7.469783493E+02  1.250000000E+02  0.00000E+00  9.000E+00
      21     1     1     2   511   501  4.899538767E+01 -2.339158982E+01 -2.636869090E+02  2.692183137E+02  0.000000000E+00  0.00000E+00  9.000E+00
#rwgt            1           1   2.2633898429257084E-002           8      267330           0
</event>
<event>
      5   9999  3.19816E-02  1.94602E+02 -1.00000E+00  1.12082E-01
      21    -1     0     0   512   501  0.000000000E+00  0.000000000E+00  7.865049507E+02  7.865049507E+02  0.000000000E+00  0.00000E+00  9.000E+00
      21    -1     0     0   501   502  0.000000000E+00  0.000000000E+00 -6.405761646E+02  6.405761646E+02  0.000000000E+00  0.00000E+00  9.000E+00
      25     1     1     2     0     0 -6.329779052E+01 -5.644172198E+02 -1.688261606E+01  5.817932889E+02  1.250000000E+02  0.00000E+00  9.000E+00
      25     1     1     2     0     0 -1.263241256E+02  6.081601921E+02  1.046354241E+02  6.421761253E+02  1.250000000E+02  0.00000E+00  9.000E+00
      21     1     1     2   512   502  1.896219161E+02 -4.374297229E+01  5.817597799E+01  2.031117011E+02  9.536743164E-07  0.00000E+00  9.000E+00
#rwgt            1           1   2.8080162888013689E-002           8      267493           0
</event>
<event>
      5   9999  3.19816E-02  1.50737E+01 -1.00000E+00  1.77183E-01
      21    -1     0     0   511   501  0.000000000E+00  0.000000000E+00  2.814529884E+02  2.814529884E+02  0.000000000E+00  0.00000E+00  9.000E+00
      21    -1     0     0   501   502  0.000000000E+00  0.000000000E+00 -3.548882349E+02  3.548882349E+02  0.000000000E+00  0.00000E+00  9.000E+00
      25     1     1     2     0     0 -2.048358321E+02 -6.197975941E+01  1.368433956E+02  2.831083248E+02  1.250000000E+02  0.00000E+00  9.000E+00
      25     1     1     2     0     0  2.079457510E+02  4.723031427E+01 -2.234561284E+02  3.332113132E+02  1.250000000E+02  0.00000E+00  9.000E+00
      21     1     1     2   511   502 -3.109918889E+00  1.474944514E+01  1.317748630E+01  2.002158517E+01  3.769728732E-07  0.00000E+00  9.000E+00
#rwgt            1           1   2.9169894130897999E-002           8      267607           0
</event>
<event>
      5   9999  3.19816E-02  1.61109E+01 -1.00000E+00  1.74509E-01
      21    -1     0     0   502   512  0.000000000E+00  0.000000000E+00  1.888607890E+02  1.888607890E+02  0.000000000E+00  0.00000E+00  9.000E+00
      21    -1     0     0   501   502  0.000000000E+00  0.000000000E+00 -7.029859953E+02  7.029859953E+02  0.000000000E+00  0.00000E+00  9.000E+00
      25     1     1     2     0     0  8.936175371E+01  2.619623826E+00 -1.784452292E+02  2.354996502E+02  1.250000000E+02  0.00000E+00  9.000E+00
      25     1     1     2     0     0 -7.339539731E+01 -4.773219557E+00 -4.849690162E+02  5.061912827E+02  1.250000000E+02  0.00000E+00  9.000E+00
      21     1     1     2   501   512 -1.596635640E+01  2.153595730E+00  1.492890391E+02  1.501558514E+02  4.264961200E-06  0.00000E+00  9.000E+00
#rwgt            1           1   3.2371953074156211E-002           8      267733           0
</event>
<event>
      5   9999  3.19816E-02  1.26778E+02 -1.00000E+00  1.19364E-01
      21    -1     0     0   502   511  0.000000000E+00  0.000000000E+00  4.705398191E+02  4.705398191E+02  0.000000000E+00  0.00000E+00  9.000E+00
      21    -1     0     0   501   502  0.000000000E+00  0.000000000E+00 -6.709291760E+02  6.709291760E+02  0.000000000E+00  0.00000E+00  9.000E+00
      25     1     1     2     0     0 -2.763006260E+02 -1.065892679E+02  2.566813807E+02  4.113558547E+02  1.250000000E+02  0.00000E+00  9.000E+00
      25     1     1     2     0     0  1.532478859E+02  7.608164258E+01 -5.390080308E+02  5.791614525E+02  1.250000000E+02  0.00000E+00  9.000E+00
      21     1     1     2   501   511  1.230527402E+02  3.050762530E+01  8.193729321E+01  1.509516879E+02  2.336015456E-06  0.00000E+00  9.000E+00
#rwgt            1           1   2.7941337138525889E-002           8      267884           0
</event>
<event>
      5   9999  3.19816E-02  5.46662E+01 -1.00000E+00  1.36900E-01
      21    -1     0     0   502   501  0.000000000E+00  0.000000000E+00  7.692941601E+02  7.692941601E+02  0.000000000E+00  0.00000E+00  9.000E+00
      21    -1     0     0   501   512  0.000000000E+00  0.000000000E+00 -7.213306785E+02  7.213306785E+02  0.000000000E+00  0.00000E+00  9.000E+00
      25     1     1     2     0     0 -1.103731600E+02  4.080295533E+02 -4.136902065E+02  6.045121485E+02  1.250000000E+02  0.00000E+00  9.000E+00
      25     1     1     2     0     0  1.629763517E+02 -4.229057194E+02  5.854063731E+02  7.508236546E+02  1.250000000E+02  0.00000E+00  9.000E+00
      21     1     1     2   502   512 -5.260319170E+01  1.487616610E+01 -1.237526849E+02  1.352890355E+02  0.000000000E+00  0.00000E+00  9.000E+00
#rwgt            1           1   3.0957510445442853E-002           8      267938           0
</event>
<event>
      5   9999  3.19816E-02  6.34671E+01 -1.00000E+00  1.33412E-01
      21    -1     0     0   511   501  0.000000000E+00  0.000000000E+00  1.828122006E+02  1.828122006E+02  0.000000000E+00  0.00000E+00  9.000E+00
      21    -1     0     0   501   502  0.000000000E+00  0.000000000E+00 -2.763159608E+02  2.763159608E+02  0.000000000E+00  0.00000E+00  9.000E+00
      25     1     1     2     0     0  2.560501784E-01  1.041738821E+02 -6.609670412E+01  1.756304005E+02  1.250000000E+02  0.00000E+00  9.000E+00
      25     1     1     2     0     0  5.554178041E+01 -1.344175039E+02 -7.316167520E+01  2.052573639E+02  1.250000000E+02  0.00000E+00  9.000E+00
      21     1     1     2   511   502 -5.579783059E+01  3.024362173E+01  4.575461914E+01  7.824039702E+01  1.348699152E-06  0.00000E+00  9.000E+00
#rwgt            1           1   2.6565094291933281E-002           8      268056           0
</event>
<event>
      5   9999  3.19816E-02  3.04075E+01 -1.00000E+00  1.52634E-01
      21    -1     0     0   502   501  0.000000000E+00  0.000000000E+00  5.522622799E+02  5.522622799E+02  0.000000000E+00  0.00000E+00  9.000E+00
      21    -1     0     0   512   502  0.000000000E+00  0.000000000E+00 -1.306968779E+02  1.306968779E+02  0.000000000E+00  0.00000E+00  9.000E+00
      25     1     1     2     0     0  1.452682209E+02 -7.518244540E+01  4.785166192E+01  2.113528747E+02  1.250000000E+02  0.00000E+00  9.000E+00
      25     1     1     2     0     0 -1.653713180E+02  9.799651830E+01  3.767576087E+02  4.410468071E+02  1.250000000E+02  0.00000E+00  9.000E+00
      21     1     1     2   512   501  2.010309707E+01 -2.281407290E+01 -3.043868596E+00  3.055947594E+01  6.583548198E-07  0.00000E+00  9.000E+00
#rwgt            1           1   2.8949469436584357E-002           8      268094           0
</event>
<event>
      5   9999  3.19816E-02  3.27107E+01 -1.00000E+00  1.50475E-01
      21    -1     0     0   502   501  0.000000000E+00  0.000000000E+00  5.544702117E+01  5.544702117E+01  0.000000000E+00  0.00000E+00  9.000E+00
      21    -1     0     0   501   511  0.000000000E+00  0.000000000E+00 -8.987077656E+02  8.987077656E+02  0.000000000E+00  0.00000E+00  9.000E+00
      25     1     1     2     0     0  1.225973328E+02  4.645019301E+01 -2.031544089E+02  2.721845703E+02  1.250000000E+02  0.00000E+00  9.000E+00
      25     1     1     2     0     0 -1.411899335E+02 -7.336312082E+01 -5.406697269E+02  5.772915194E+02  1.250000000E+02  0.00000E+00  9.000E+00
      21     1     1     2   502   511  1.859260076E+01  2.691292780E+01 -9.943660865E+01  1.046786971E+02  1.348699152E-06  0.00000E+00  9.000E+00
#rwgt            1           1   2.4689202179169732E-002           8      268180           0
</event>
<event>
      5   9999  3.19816E-02  2.70232E+01 -1.00000E+00  1.56260E-01
      21    -1     0     0   512   501  0.000000000E+00  0.000000000E+00  1.180136741E+02  1.180136741E+02  0.000000000E+00  0.00000E+00  9.000E+00
      21    -1     0     0   501   502  0.000000000E+00  0.000000000E+00 -2.666939654E+02  2.666939654E+02  0.000000000E+00  0.00000E+00  9.000E+00
      25     1     1     2     0     0 -3.338840588E+01  5.485119337E+01 -1.396928087E+02  1.981477224E+02  1.250000000E+02  0.00000E+00  9.000E+00
      25     1     1     2     0     0  2.213204215E+01 -7.941844385E+01 -2.951864198E+01  1.526219733E+02  1.250000000E+02  0.00000E+00  9.000E+00
      21     1     1     2   512   502  1.125636372E+01  2.456725048E+01  2.053115943E+01  3.393794378E+01  6.307962682E-07  0.00000E+00  9.000E+00
#rwgt            1           1   5.4795547100185395E-002           8      268298           0
</event>
<event>
      5   9999  3.19816E-02  9.63282E+01 -1.00000E+00  1.24563E-01
      21    -1     0     0   502   511  0.000000000E+00  0.000000000E+00  6.581952331E+02  6.581952331E+02  0.000000000E+00  0.00000E+00  9.000E+00
      21    -1     0     0   501   502  0.000000000E+00  0.000000000E+00 -3.256936694E+02  3.256936694E+02  0.000000000E+00  0.00000E+00  9.000E+00
      25     1     1     2     0     0  2.864284673E+02 -1.278206171E+02 -4.879975037E+01  3.411536203E+02  1.250000000E+02  0.00000E+00  9.000E+00
      25     1     1     2     0     0 -2.049611222E+02  7.641826460E+01  2.577881252E+00  2.519532859E+02  1.250000000E+02  0.00000E+00  9.000E+00
      21     1     1     2   501   511 -8.146734502E+01  5.140235253E+01  3.787234328E+02  3.907819964E+02  5.394796609E-06  0.00000E+00  9.000E+00
#rwgt            2          11   2.0936305124734018E-003           8      268374           0
</event>
<event>
      5   9999  3.19816E-02  7.14488E+01 -1.00000E+00  1.30772E-01
       1    -1     0     0   502     0  0.000000000E+00  0.000000000E+00  1.520785450E+03  1.520785450E+03  0.000000000E+00  0.00000E+00  9.000E+00
      21    -1     0     0   501   502  0.000000000E+00  0.000000000E+00 -1.202657209E+02  1.202657209E+02  0.000000000E+00  0.00000E+00  9.000E+00
      25     1     1     2     0     0 -3.245418295E+02 -2.145528735E+02  5.343305377E+02  6.726770831E+02  1.250000000E+02  0.00000E+00  9.000E+00
      25     1     1     2     0     0  2.573200046E+02  1.903421252E+02  8.012634771E+02  8.718324777E+02  1.250000000E+02  0.00000E+00  9.000E+00
       1     1     1     2   501     0  6.722182498E+01  2.421074827E+01  6.492571434E+01  9.654161004E+01  9.536743164E-07  0.00000E+00  9.000E+00
#rwgt            1           1   2.0815173463054448E-002           8      268409           0
</event>
<event>
      5   9999  3.19816E-02  1.68280E+01 -1.00000E+00  1.72805E-01
      21    -1     0     0   502   511  0.000000000E+00  0.000000000E+00  2.610902812E+02  2.610902812E+02  0.000000000E+00  0.00000E+00  9.000E+00
      21    -1     0     0   501   502  0.000000000E+00  0.000000000E+00 -6.209108690E+02  6.209108690E+02  0.000000000E+00  0.00000E+00  9.000E+00
      25     1     1     2     0     0  1.568229031E+02 -1.384039147E+01 -5.037401165E+02  5.423689560E+02  1.250000000E+02  0.00000E+00  9.000E+00
      25     1     1     2     0     0 -1.483414761E+02 -6.939152486E-01 -7.495115890E-01  1.939877234E+02  1.250000000E+02  0.00000E+00  9.000E+00
      21     1     1     2   501   511 -8.481427045E+00  1.453430672E+01  1.446690403E+02  1.456444709E+02  1.907348633E-06  0.00000E+00  9.000E+00
#rwgt            1           1   1.8974214319384574E-002           8      268530           0
</event>
<event>
      5   9999  3.19816E-02  2.31079E+02 -1.00000E+00  1.09411E-01
       2    -1     0     0   502     0  0.000000000E+00  0.000000000E+00  3.194017973E+03  3.194017973E+03  0.000000000E+00  0.00000E+00  9.000E+00
      21    -1     0     0   501   502  0.000000000E+00  0.000000000E+00 -3.312706665E+02  3.312706665E+02  0.000000000E+00  0.00000E+00  9.000E+00
      25     1     1     2     0     0  1.957424939E+02  5.117295008E+01 -5.487385373E+01  2.440695281E+02  1.250000000E+02  0.00000E+00  9.000E+00
      25     1     1     2     0     0 -3.777715065E+02 -1.935212174E+02  9.935523751E+01  4.534955743E+02  1.250000000E+02  0.00000E+00  9.000E+00
       2     1     1     2   501     0  1.820290125E+02  1.423482674E+02  2.818265923E+03  2.827723537E+03  3.051757812E-05  0.00000E+00  9.000E+00
#rwgt            2          18   4.3791851678480027E-003           8      268760           0
</event>
<event>
      5   9999  3.19816E-02  1.88645E+02 -1.00000E+00  1.12580E-01
      21    -1     0     0   502   501  0.000000000E+00  0.000000000E+00  7.553256747E+02  7.553256747E+02  0.000000000E+00  0.00000E+00  9.000E+00
      21    -1     0     0   511   502  0.000000000E+00  0.000000000E+00 -2.593243136E+03  2.593243136E+03  0.000000000E+00  0.00000E+00  9.000E+00
      25     1     1     2     0     0 -1.110360509E+03  3.234364703E+02 -1.310260371E+02  1.170600032E+03  1.250000000E+02  0.00000E+00  9.000E+00
      25     1     1     2     0     0  1.118686814E+03 -1.349748994E+02 -1.271875532E+03  1.703810665E+03  1.250000000E+02  0.00000E+00  9.000E+00
      21     1     1     2   511   501 -8.326304875E+00 -1.884615709E+02 -4.350158915E+02  4.741581139E+02  5.394796609E-06  0.00000E+00  9.000E+00
#rwgt            1           1   6.8100114325692906E-002           8      268779           0
</event>
<event>
      5   9999  3.19816E-02  1.95525E+01 -1.00000E+00  1.67184E-01
       3    -1     0     0   502     0  0.000000000E+00  0.000000000E+00  1.182609557E+03  1.182609557E+03  0.000000000E+00  0.00000E+00  9.000E+00
      21    -1     0     0   501   502  0.000000000E+00  0.000000000E+00 -3.831418604E+02  3.831418604E+02  0.000000000E+00  0.00000E+00  9.000E+00
      25     1     1     2     0     0 -2.039550593E+02 -1.971673654E+02  2.282635256E+02  3.849699642E+02  1.250000000E+02  0.00000E+00  9.000E+00
      25     1     1     2     0     0  2.166486634E+02  2.120392396E+02 -2.164380607E+02  3.928965724E+02  1.250000000E+02  0.00000E+00  9.000E+00
       3     1     1     2   501     0 -1.269360413E+01 -1.487187415E+01  7.876422320E+02  7.878848811E+02  1.078959322E-05  0.00000E+00  9.000E+00
#rwgt            1           1   2.9903672268511011E-002           8      268845           0
</event>
<event>
      5   9999  3.19816E-02  5.64589E+01 -1.00000E+00  1.36130E-01
      21    -1     0     0   502   511  0.000000000E+00  0.000000000E+00  1.098971962E+03  1.098971962E+03  0.000000000E+00  0.00000E+00  9.000E+00
      21    -1     0     0   501   502  0.000000000E+00  0.000000000E+00 -4.231218244E+02  4.231218244E+02  0.000000000E+00  0.00000E+00  9.000E+00
      25     1     1     2     0     0 -4.545722789E+02  4.731813409E+02  2.620676617E+02  7.175242139E+02  1.250000000E+02  0.00000E+00  9.000E+00
      25     1     1     2     0     0  4.433115876E+02 -4.178567854E+02  3.313644124E+02  7.046678868E+02  1.250000000E+02  0.00000E+00  9.000E+00
      21     1     1     2   501   511  1.126069133E+01 -5.532455551E+01  8.241806300E+01  9.990168527E+01  1.348699152E-06  0.00000E+00  9.000E+00
#rwgt            2          11   5.5379260382534164E-003           8      269131           0
</event>
<event>
      5   9999  3.19816E-02  4.53702E+01 -1.00000E+00  1.41527E-01
      21    -1     0     0   512   501  0.000000000E+00  0.000000000E+00  7.125055576E+02  7.125055576E+02  0.000000000E+00  0.00000E+00  9.000E+00
      21    -1     0     0   501   502  0.000000000E+00  0.000000000E+00 -4.777764516E+01  4.777764516E+01  0.000000000E+00  0.00000E+00  9.000E+00
      25     1     1     2     0     0 -8.543481009E+01 -5.293506966E+01  2.099906937E+02  2.642391338E+02  1.250000000E+02  0.00000E+00  9.000E+00
      25     1     1     2     0     0  4.121213513E+01  6.307446484E+01  2.830560391E+02  3.184690715E+02  1.250000000E+02  0.00000E+00  9.000E+00
      21     1     1     2   512   502  4.422267496E+01 -1.013939518E+01  1.716811796E+02  1.775749975E+02  0.000000000E+00  0.00000E+00  9.000E+00
#rwgt            1           1   7.8874212400407470E-002           8      269181           0
</event>
<event>
      5   9999  3.19816E-02  2.30478E+01 -1.00000E+00  1.61442E-01
      21    -1     0     0   511   501  0.000000000E+00  0.000000000E+00  1.158888872E+02  1.158888872E+02  0.000000000E+00  0.00000E+00  9.000E+00
      21    -1     0     0   501   502  0.000000000E+00  0.000000000E+00 -8.675967745E+02  8.675967745E+02  0.000000000E+00  0.00000E+00  9.000E+00
      25     1     1     2     0     0 -1.947004718E+02 -6.604717069E+01 -1.046421316E+02  2.623842186E+02  1.250000000E+02  0.00000E+00  9.000E+00
      25     1     1     2     0     0  1.866236658E+02  8.763344534E+01 -6.540035738E+02  6.970320566E+02  1.250000000E+02  0.00000E+00  9.000E+00
      21     1     1     2   511   502  8.076805926E+00 -2.158627465E+01  6.937818121E+00  2.406938652E+01  4.042583694E-07  0.00000E+00  9.000E+00
#rwgt            1           1   2.8263609818012105E-002           8      269305           0
</event>
<event>
      5   9999  3.19816E-02  8.73877E+01 -1.00000E+00  1.26520E-01
      21    -1     0     0   502   512  0.000000000E+00  0.000000000E+00  8.687244257E+01  8.687244257E+01  0.000000000E+00  0.00000E+00  9.000E+00
      21    -1     0     0   501   502  0.000000000E+00  0.000000000E+00 -7.144717359E+02  7.144717359E+02  0.000000000E+00  0.00000E+00  9.000E+00
      25     1     1     2     0     0  4.746102097E+00  8.306477100E+01 -1.005515733E+02  1.807149705E+02  1.250000000E+02  0.00000E+00  9.000E+00
      25     1     1     2     0     0  8.262339112E+01 -8.484886280E+01 -5.005074277E+02  5.293001412E+02  1.250000000E+02  0.00000E+00  9.000E+00
      21     1     1     2   501   512 -8.736949321E+01  1.784091806E+00 -2.654029235E+01  9.132906682E+01  4.768371582E-07  0.00000E+00  9.000E+00
#rwgt            1           1   3.3300183007607634E-002           8      269443           0
</event>
<event>
      5   9999  3.19816E-02  2.57513E+01 -1.00000E+00  1.57794E-01
      21    -1     0     0   511   501  0.000000000E+00  0.000000000E+00  6.272615682E+01  6.272615682E+01  0.000000000E+00  0.00000E+00  9.000E+00
      21    -1     0     0   501   502  0.000000000E+00  0.000000000E+00 -1.061700133E+03  1.061700133E+03  0.000000000E+00  0.00000E+00  9.000E+00
      25     1     1     2     0     0  1.160266289E+02  2.419812089E+01 -1.387006737E+02  2.211574203E+02  1.250000000E+02  0.00000E+00  9.000E+00
      25     1     1     2     0     0 -1.409043429E+02 -1.754766440E+01 -8.566198891E+02  8.772597043E+02  1.250000000E+02  0.00000E+00  9.000E+00
      21     1     1     2   511   502  2.487771403E+01 -6.650456487E+00 -3.653412915E+00  2.600916479E+01  6.650660516E-07  0.00000E+00  9.000E+00
#rwgt            1           1   3.3744827095011948E-002           8      269490           0
</event>
<event>
      5   9999  3.19816E-02  1.26987E+02 -1.00000E+00  1.19334E-01
      21    -1     0     0   502   501  0.000000000E+00  0.000000000E+00  3.675872071E+02  3.675872071E+02  0.000000000E+00  0.00000E+00  9.000E+00
      -1    -1     0     0     0   502  0.000000000E+00  0.000000000E+00 -5.620303671E+02  5.620303671E+02  0.000000000E+00  0.00000E+00  9.000E+00
      25     1     1     2     0     0  2.468297064E+02 -1.655046100E+02 -1.690660016E+02  3.640398230E+02  1.250000000E+02  0.00000E+00  9.000E+00
      25     1     1     2     0     0 -3.598405423E+02  1.075882128E+02  7.602760464E+01  4.030702619E+02  1.250000000E+02  0.00000E+00  9.000E+00
      -1     1     1     2     0   501  1.130108359E+02  5.791639720E+01 -1.014047630E+02  1.625074893E+02  1.907348633E-06  0.00000E+00  9.000E+00
#rwgt            1           1   2.4303916923906585E-002           8      269571           0
</event>
<event>
      5   9999  3.76172E-02  6.12232E+02 -1.00000E+00  9.64162E-02
      21    -1     0     0   502   501  0.000000000E+00  0.000000000E+00  1.978440859E+03  1.978440859E+03  0.000000000E+00  0.00000E+00  9.000E+00
       1    -1     0     0   501     0  0.000000000E+00  0.000000000E+00 -1.233716711E+03  1.233716711E+03  0.000000000E+00  0.00000E+00  9.000E+00
      25     1     1     2     0     0 -1.176245744E+03  2.951230892E+02  1.276327493E+03  1.765018005E+03  1.250000000E+02  0.00000E+00  9.000E+00
      25     1     1     2     0     0  5.726276725E+02 -3.974643794E+02 -4.243677433E+02  8.255866798E+02  1.250000000E+02  0.00000E+00  9.000E+00
       1     1     1     2   502     0  6.036180713E+02  1.023412903E+02 -1.072356018E+02  6.215528859E+02  9.344061824E-06  0.00000E+00  9.000E+00
#rwgt            1           1   8.8796761501637997E-002           8      269655           0
</event>
<event>
      5   9999  3.19816E-02  1.14391E+02 -1.00000E+00  1.21257E-01
      21    -1     0     0   502   501  0.000000000E+00  0.000000000E+00  2.238654616E+03  2.238654616E+03  0.000000000E+00  0.00000E+00  9.000E+00
      21    -1     0     0   501   511  0.000000000E+00  0.000000000E+00 -1.924006597E+02  1.924006597E+02  0.000000000E+00  0.00000E+00  9.000E+00
      25     1     1     2     0     0 -2.720631748E+02 -3.379370703E+02  1.399976937E+03  1.470979353E+03  1.250000000E+02  0.00000E+00  9.000E+00
      25     1     1     2     0     0  1.608350868E+02  3.646493889E+02  7.139579310E+02  8.271626377E+02  1.250000000E+02  0.00000E+00  9.000E+00
      21     1     1     2   502   511  1.112280880E+02 -2.671231853E+01 -6.768091135E+01  1.329132848E+02  3.303624740E-06  0.00000E+00  9.000E+00
#rwgt            1           1   2.9455608614432114E-002           8      269697           0
</event>
<event>
      5   9999  3.19816E-02  2.07809E+01 -1.00000E+00  1.65008E-01
      21    -1     0     0   502   512  0.000000000E+00  0.000000000E+00  1.703955573E+02  1.703955573E+02  0.000000000E+00  0.00000E+00  9.000E+00
      21    -1     0     0   501   502  0.000000000E+00  0.000000000E+00 -1.104927859E+03  1.104927859E+03  0.000000000E+00  0.00000E+00  9.000E+00
      25     1     1     2     0     0  1.233294905E+02  3.631555568E+02 -3.045004210E+02  5.054083775E+02  1.250000000E+02  0.00000E+00  9.000E+00
      25     1     1     2     0     0 -1.441048701E+02 -3.626761505E+02 -6.268237001E+02  7.488879454E+02  1.250000000E+02  0.00000E+00  9.000E+00
      21     1     1     2   501   512  2.077537957E+01 -4.794063481E-01 -3.208180432E+00  2.102709320E+01  3.097148194E-07  0.00000E+00  9.000E+00
#rwgt            2          11   8.0525580502428702E-003           8      269905           0
</event>
<event>
      5   9999  3.19816E-02  2.51476E+02 -1.00000E+00  1.08143E-01
       2    -1     0     0   502     0  0.000000000E+00  0.000000000E+00  3.556997684E+03  3.556997684E+03  0.000000000E+00  0.00000E+00  9.000E+00
      21    -1     0     0   501   502  0.000000000E+00  0.000000000E+00 -1.127514270E+03  1.127514270E+03  0.000000000E+00  0.00000E+00  9.000E+00
      25     1     1     2     0     0  3.656412476E+02  4.302572655E+01  1.389403983E+03  1.442779665E+03  1.250000000E+02  0.00000E+00  9.000E+00
      25     1     1     2     0     0 -2.443561597E+02  1.772694886E+02 -1.068945593E+03  1.117767456E+03  1.250000000E+02  0.00000E+00  9.000E+00
       2     1     1     2   501     0 -1.212850879E+02 -2.202952152E+02  2.109025024E+03  2.123964832E+03  3.051757812E-05  0.00000E+00  9.000E+00
#rwgt            1           1   6.0163922094505509E-002           8      269940           0
</event>
<event>
      5   9999  3.19816E-02  2.29075E+02 -1.00000E+00  1.09543E-01
       2    -1     0     0   502     0  0.000000000E+00  0.000000000E+00  1.115928320E+03  1.115928320E+03  0.000000000E+00  0.00000E+00  9.000E+00
      21    -1     0     0   501   502  0.000000000E+00  0.000000000E+00 -1.958092258E+02  1.958092258E+02  0.000000000E+00  0.00000E+00  9.000E+00
      25     1     1     2     0     0  8.226410201E+01  2.656488972E+02  3.337945550E+02  4.520846425E+02  1.250000000E+02  0.00000E+00  9.000E+00
      25     1     1     2     0     0 -4.056017350E+01 -4.040250243E+01 -7.721434202E+01  1.576849533E+02  1.250000000E+02  0.00000E+00  9.000E+00
       2     1     1     2   501     0 -4.170392852E+01 -2.252463947E+02  6.635388811E+02  7.019679499E+02  1.078959322E-05  0.00000E+00  9.000E+00
#rwgt            1           1   2.1610348503042477E-002           8      270026           0
</event>
<event>
      5   9999  3.19816E-02  4.53209E+01 -1.00000E+00  1.41555E-01
       2    -1     0     0   502     0  0.000000000E+00  0.000000000E+00  2.306775768E+03  2.306775768E+03  0.000000000E+00  0.00000E+00  9.000E+00
      21    -1     0     0   501   502  0.000000000E+00  0.000000000E+00 -3.911674863E+02  3.911674863E+02  0.000000000E+00  0.00000E+00  9.000E+00
      25     1     1     2     0     0 -3.555647540E+01 -9.760090799E+01 -3.657584501E+02  4.002429812E+02  1.250000000E+02  0.00000E+00  9.000E+00
      25     1     1     2     0     0  2.355426955E+01  5.389813409E+01  5.990384340E+02  6.147616269E+02  1.250000000E+02  0.00000E+00  9.000E+00
       2     1     1     2   501     0  1.200220585E+01  4.370277391E+01  1.682328297E+03  1.682938646E+03  2.157918644E-05  0.00000E+00  9.000E+00
#rwgt            1           1   2.8356478162056737E-002           8      270065           0
</event>
<event>
      5   9999  3.19816E-02  2.37043E+02 -1.00000E+00  1.09026E-01
      21    -1     0     0   502   511  0.000000000E+00  0.000000000E+00  5.300778742E+02  5.300778742E+02  0.000000000E+00  0.00000E+00  9.000E+00
      21    -1     0     0   501   502  0.000000000E+00  0.000000000E+00 -1.064660555E+03  1.064660555E+03  0.000000000E+00  0.00000E+00  9.000E+00
      25     1     1     2     0     0 -5.706276228E+02 -8.196195083E+01 -4.487078018E+02  7.411459618E+02  1.250000000E+02  0.00000E+00  9.000E+00
      25     1     1     2     0     0  4.627684805E+02 -1.291201858E+02 -2.591136830E+02  5.599924907E+02  1.250000000E+02  0.00000E+00  9.000E+00
      21     1     1     2   501   511  1.078591424E+02  2.110821367E+02  1.732388041E+02  2.935999766E+02  4.264961200E-06  0.00000E+00  9.000E+00
#rwgt            1           1   2.6840720232779825E-002           8      270211           0
</event>
<event>
      5   9999  3.19816E-02  1.04141E+02 -1.00000E+00  1.23040E-01
      21    -1     0     0   502   501  0.000000000E+00  0.000000000E+00  2.737610516E+02  2.737610516E+02  0.000000000E+00  0.00000E+00  9.000E+00
      21    -1     0     0   501   512  0.000000000E+00  0.000000000E+00 -3.239566383E+02  3.239566383E+02  0.000000000E+00  0.00000E+00  9.000E+00
      25     1     1     2     0     0 -9.587463021E+01 -1.338773100E+02 -1.731539290E+01  2.074606027E+02  1.250000000E+02  0.00000E+00  9.000E+00
      25     1     1     2     0     0  1.958037998E+02  1.631962207E+02 -1.271250803E+01  2.841808268E+02  1.250000000E+02  0.00000E+00  9.000E+00
      21     1     1     2   502   512 -9.992916958E+01 -2.931891076E+01 -2.016768578E+01  1.060762604E+02  2.323816858E-06  0.00000E+00  9.000E+00
#rwgt            2          11   3.0166869833605516E-003           8      270259           0
</event>
<event>
      5   9999  3.19816E-02  4.44083E+01 -1.00000E+00  1.42079E-01
      21    -1     0     0   502   511  0.000000000E+00  0.000000000E+00  2.987775117E+03  2.987775117E+03  0.000000000E+00  0.00000E+00  9.000E+00
      21    -1     0     0   501   502  0.000000000E+00  0.000000000E+00 -1.387795454E+02  1.387795454E+02  0.000000000E+00  0.00000E+00  9.000E+00
      25     1     1     2     0     0  5.128105444E+02  3.634440122E+02  1.450758570E+03  1.585998623E+03  1.250000000E+02  0.00000E+00  9.000E+00
      25     1     1     2     0     0 -4.728141732E+02 -3.441466455E+02  1.247740330E+03  1.383644133E+03  1.250000000E+02  0.00000E+00  9.000E+00
      21     1     1     2   501   511 -3.999637122E+01 -1.929736676E+01  1.504966714E+02  1.569119058E+02  1.907348633E-06  0.00000E+00  9.000E+00
#rwgt            1           1   8.4422768314360380E-002           8      270279           0
</event>
<event>
      5   9999  3.19816E-02  9.91686E+01 -1.00000E+00  1.23991E-01
      21    -1     0     0   502   512  0.000000000E+00  0.000000000E+00  1.159051012E+02  1.159051012E+02  0.000000000E+00  0.00000E+00  9.000E+00
      21    -1     0     0   501   502  0.000000000E+00  0.000000000E+00 -8.392278777E+02  8.392278777E+02  0.000000000E+00  0.00000E+00  9.000E+00
      25     1     1     2     0     0 -1.748539014E+02 -9.830268940E+01 -1.913121408E+02  3.040767021E+02  1.250000000E+02  0.00000E+00  9.000E+00
      25     1     1     2     0     0  1.316148795E+02  1.875484303E+02 -4.586086446E+02  5.276777228E+02  1.250000000E+02  0.00000E+00  9.000E+00
      21     1     1     2   501   512  4.323902184E+01 -8.924574089E+01 -7.340199106E+01  1.233785539E+02  1.651812370E-06  0.00000E+00  9.000E+00
#rwgt            1           1   2.7569432108481905E-002           8      270372           0
</event>
<event>
      5   9999  3.19816E-02  4.46932E+01 -1.00000E+00  1.41914E-01
      21    -1     0     0   502   501  0.000000000E+00  0.000000000E+00  6.868873416E+02  6.868873416E+02  0.000000000E+00  0.00000E+00  9.000E+00
      21    -1     0     0   511   502  0.000000000E+00  0.000000000E+00 -1.767495042E+02  1.767495042E+02  0.000000000E+00  0.00000E+00  9.000E+00
      25     1     1     2     0     0  9.224646649E+01 -1.734610253E+01 -1.103524137E+02  1.913451150E+02  1.250000000E+02  0.00000E+00  9.000E+00
      25     1     1     2     0     0 -1.243851058E+02 -1.371174154E+01  5.952307884E+02  6.209543928E+02  1.250000000E+02  0.00000E+00  9.000E+00
      21     1     1     2   511   501  3.213863931E+01  3.105784408E+01  2.525946262E+01  5.133733794E+01  3.371747881E-07  0.00000E+00  9.000E+00
#rwgt            1           1   2.9327644777822310E-002           8      270458           0
</event>
<event>
      5   9999  3.19816E-02  3.14621E+01 -1.00000E+00  1.51618E-01
      21    -1     0     0   502   512  0.000000000E+00  0.000000000E+00  1.614981026E+02  1.614981026E+02  0.000000000E+00  0.00000E+00  9.000E+00
      21    -1     0     0   501   502  0.000000000E+00  0.000000000E+00 -3.422626699E+02  3.422626699E+02  0.000000000E+00  0.00000E+00  9.000E+00
      25     1     1     2     0     0  1.179978831E+01 -3.601477544E+01  5.412014828E+01  1.413870203E+02  1.250000000E+02  0.00000E+00  9.000E+00
      25     1     1     2     0     0 -1.822790954E+01  6.681317991E+01 -2.758815883E+02  3.106958456E+02  1.250000000E+02  0.00000E+00  9.000E+00
      21     1     1     2   501   512  6.428121231E+00 -3.079840447E+01  4.099687270E+01  5.167790661E+01  9.536743164E-07  0.00000E+00  9.000E+00
#rwgt            1           1   2.5262766503867589E-002           8      270562           0
</event>
<event>
      5   9999  3.19816E-02  1.60363E+02 -1.00000E+00  1.15255E-01
      21    -1     0     0   502   501  0.000000000E+00  0.000000000E+00  1.846227703E+02  1.846227703E+02  0.000000000E+00  0.00000E+00  9.000E+00
      -5    -1     0     0     0   502  0.000000000E+00  0.000000000E+00 -7.795215361E+02  7.795215361E+02  0.000000000E+00  0.00000E+00  9.000E+00
      25     1     1     2     0     0  1.309185343E+02  5.777750654E+01 -7.940213247E+01  2.059310601E+02  1.250000000E+02  0.00000E+00  9.000E+00
      25     1     1     2     0     0 -2.261870366E+02 -1.867746248E+02 -1.368050883E+02  3.469668113E+02  1.250000000E+02  0.00000E+00  9.000E+00
      -5     1     1     2     0   501  9.526850228E+01  1.289971182E+02 -3.786915451E+02  4.112464350E+02  0.000000000E+00  0.00000E+00  9.000E+00
#rwgt            1           1   2.6230490869570841E-002           8      270697           0
</event>
<event>
      5   9999  3.19816E-02  3.73220E+01 -1.00000E+00  1.46732E-01
      21    -1     0     0   502   501  0.000000000E+00  0.000000000E+00  5.639869512E+01  5.639869512E+01  0.000000000E+00  0.00000E+00  9.000E+00
      21    -1     0     0   501   511  0.000000000E+00  0.000000000E+00 -1.676894947E+03  1.676894947E+03  0.000000000E+00  0.00000E+00  9.000E+00
      25     1     1     2     0     0 -1.715439982E+01  1.273167142E+02 -1.270496975E+02  2.197053590E+02  1.250000000E+02  0.00000E+00  9.000E+00
      25     1     1     2     0     0  3.458782356E+01 -1.603168357E+02 -1.174452870E+03  1.192418697E+03  1.250000000E+02  0.00000E+00  9.000E+00
      21     1     1     2   502   511 -1.743342374E+01  3.300012150E+01 -3.189936842E+02  3.211695858E+02  3.814697266E-06  0.00000E+00  9.000E+00
#rwgt            1           1   3.0127495765054045E-002           8      270750           0
</event>
<event>
      5   9999  3.19816E-02  5.76838E+01 -1.00000E+00  1.35623E-01
      21    -1     0     0   502   501  0.000000000E+00  0.000000000E+00  1.252106915E+03  1.252106915E+03  0.000000000E+00  0.00000E+00  9.000E+00
      21    -1     0     0   501   512  0.000000000E+00  0.000000000E+00 -5.704111660E+02  5.704111660E+02  0.000000000E+00  0.00000E+00  9.000E+00
      25     1     1     2     0     0 -3.824379019E+01 -1.896049817E+02 -4.844893272E+02  5.364396935E+02  1.250000000E+02  0.00000E+00  9.000E+00
      25     1     1     2     0     0  8.557867158E+01  2.225720607E+02  1.192615439E+03  1.222627750E+03  1.250000000E+02  0.00000E+00  9.000E+00
      21     1     1     2   502   512 -4.733488139E+01 -3.296707894E+01 -2.643036246E+01  6.345063711E+01  1.215700987E-06  0.00000E+00  9.000E+00
#rwgt            1           1   3.6471318767450654E-002           8      270808           0
</event>
<event>
      5   9999  3.19816E-02  2.14284E+02 -1.00000E+00  1.10568E-01
       1    -1     0     0   502     0  0.000000000E+00  0.000000000E+00  1.861072447E+02  1.861072447E+02  0.000000000E+00  0.00000E+00  9.000E+00
      21    -1     0     0   501   502  0.000000000E+00  0.000000000E+00 -1.190758763E+03  1.190758763E+03  0.000000000E+00  0.00000E+00  9.000E+00
      25     1     1     2     0     0  1.581390046E+02 -7.160598535E+01 -8.588980049E+02  8.851362295E+02  1.250000000E+02  0.00000E+00  9.000E+00
      25     1     1     2     0     0  2.123773619E+00  2.138509846E+02 -3.393998547E+01  2.500273518E+02  1.250000000E+02  0.00000E+00  9.000E+00
       1     1     1     2   501     0 -1.602627782E+02 -1.422449992E+02 -1.118135276E+02  2.417024262E+02  4.862803949E-06  0.00000E+00  9.000E+00
#rwgt            2          17   8.1479446421363143E-005           8      271077           0
</event>
<event>
      5   9999  3.19816E-02  4.27862E+01 -1.00000E+00  1.43050E-01
       1    -1     0     0   502     0  0.000000000E+00  0.000000000E+00  4.131274837E+02  4.131274837E+02  0.000000000E+00  0.00000E+00  9.000E+00
      21    -1     0     0   501   502  0.000000000E+00  0.000000000E+00 -1.109740284E+03  1.109740284E+03  0.000000000E+00  0.00000E+00  9.000E+00
      25     1     1     2     0     0 -5.267662984E+02  1.797326998E+02 -2.441461998E+02  6.204989471E+02  1.250000000E+02  0.00000E+00  9.000E+00
      25     1     1     2     0     0  5.547020037E+02 -2.121402797E+02 -5.352342353E+02  8.091962048E+02  1.250000000E+02  0.00000E+00  9.000E+00
       1     1     1     2   501     0 -2.793570532E+01  3.240757996E+01  8.276763510E+01  9.317261556E+01  1.348699152E-06  0.00000E+00  9.000E+00
#rwgt            1           1   3.2359855976044183E-002           8      271096           0
</event>
<event>
      5   9999  3.19816E-02  8.26272E+01 -1.00000E+00  1.27674E-01
      21    -1     0     0   502   501  0.000000000E+00  0.000000000E+00  6.361956630E+02  6.361956630E+02  0.000000000E+00  0.00000E+00  9.000E+00
      21    -1     0     0   511   502  0.000000000E+00  0.000000000E+00 -1.558071423E+03  1.558071423E+03  0.000000000E+00  0.00000E+00  9.000E+00
      25     1     1     2     0     0 -4.417669881E+02  4.853385394E+01 -5.075958030E+02  6.861429195E+02  1.250000000E+02  0.00000E+00  9.000E+00
      25     1     1     2     0     0  5.199528685E+02 -2.180898117E+01  4.134327843E+02  6.762974821E+02  1.250000000E+02  0.00000E+00  9.000E+00
      21     1     1     2   511   501 -7.818588037E+01 -2.672487277E+01 -8.277127409E+02  8.318266840E+02  1.078959322E-05  0.00000E+00  9.000E+00
#rwgt            1           1   3.0295826361458951E-002           8      271244           0
</event>
<event>
      5   9999  3.19816E-02  1.08581E+02 -1.00000E+00  1.22241E-01
      21    -1     0     0   502   501  0.000000000E+00  0.000000000E+00  2.945616557E+02  2.945616557E+02  0.000000000E+00  0.00000E+00  9.000E+00
      21    -1     0     0   501   512  0.000000000E+00  0.000000000E+00 -1.487693448E+03  1.487693448E+03  0.000000000E+00  0.00000E+00  9.000E+00
      25     1     1     2     0     0 -1.778319691E+02 -4.706611279E+02 -7.991835052E+02  9.526097740E+02  1.250000000E+02  0.00000E+00  9.000E+00
      25     1     1     2     0     0  1.685773957E+02  5.788465484E+02 -2.949836159E+02  6.827312784E+02  1.250000000E+02  0.00000E+00  9.000E+00
      21     1     1     2   502   512  9.254573408E+00 -1.081854204E+02 -9.896467176E+01  1.469140517E+02  2.336015456E-06  0.00000E+00  9.000E+00
#rwgt            1           1   3.1420628083894571E-002           8      271359           0
</event>
<event>
      5   9999  3.19816E-02  2.34657E+02 -1.00000E+00  1.09178E-01
      21    -1     0     0   511   501  0.000000000E+00  0.000000000E+00  3.324580131E+02  3.324580131E+02  0.000000000E+00  0.00000E+00  9.000E+00
      21    -1     0     0   501   502  0.000000000E+00  0.000000000E+00 -3.129547356E+02  3.129547356E+02  0.000000000E+00  0.00000E+00  9.000E+00
      25     1     1     2     0     0 -1.654392155E+01 -1.463338296E+02  4.326594280E+01  1.979500766E+02  1.250000000E+02  0.00000E+00  9.000E+00
      25     1     1     2     0     0 -1.468331000E+02 -2.210597143E+01 -7.357999913E+01  2.075756477E+02  1.250000000E+02  0.00000E+00  9.000E+00
      21     1     1     2   511   502  1.633770216E+02  1.684398010E+02  4.981733384E+01  2.398870244E+02  1.784161275E-06  0.00000E+00  9.000E+00
#rwgt            1           1   2.6262984872444904E-002           8      271449           0
</event>
<event>
      5   9999  3.19816E-02  1.67783E+01 -1.00000E+00  1.72919E-01
      21    -1     0     0   502   501  0.000000000E+00  0.000000000E+00  5.231203447E+01  5.231203447E+01  0.000000000E+00  0.00000E+00  9.000E+00
      21    -1     0     0   512   502  0.000000000E+00  0.000000000E+00 -1.124744266E+03  1.124744266E+03  0.000000000E+00  0.00000E+00  9.000E+00
      25     1     1     2     0     0  8.012662380E+01  1.564275621E+02 -6.428385764E+02  6.780533116E+02  1.250000000E+02  0.00000E+00  9.000E+00
      25     1     1     2     0     0 -9.081076487E+01 -1.693643838E+02 -3.553153042E+02  4.228532309E+02  1.250000000E+02  0.00000E+00  9.000E+00
      21     1     1     2   512   501  1.068414107E+01  1.293682166E+01 -7.427835115E+01  7.614975821E+01  0.000000000E+00  0.00000E+00  9.000E+00
#rwgt            1           1   2.7872877911127962E-002           8      271485           0
</event>
<event>
      5   9999  3.19816E-02  5.11459E+01 -1.00000E+00  1.38516E-01
      21    -1     0     0   502   501  0.000000000E+00  0.000000000E+00  4.022652795E+01  4.022652795E+01  0.000000000E+00  0.00000E+00  9.000E+00
      21    -1     0     0   511   502  0.000000000E+00  0.000000000E+00 -1.169854903E+03  1.169854903E+03  0.000000000E+00  0.00000E+00  9.000E+00
      25     1     1     2     0     0 -7.148086146E+01 -9.791130162E+01 -5.142710284E+02  5.429510357E+02  1.250000000E+02  0.00000E+00  9.000E+00
      25     1     1     2     0     0  3.107635193E+01  1.292701898E+02 -3.288183592E+02  3.760625413E+02  1.250000000E+02  0.00000E+00  9.000E+00
      21     1     1     2   511   501  4.040450952E+01 -3.135888820E+01 -2.865389873E+02  2.910678538E+02  3.814697266E-06  0.00000E+00  9.000E+00
#rwgt            1           1   2.7360743611874471E-002           8      271607           0
</event>
<event>
      5   9999  3.19816E-02  5.87968E+01 -1.00000E+00  1.35175E-01
      21    -1     0     0   502   501  0.000000000E+00  0.000000000E+00  1.481418605E+03  1.481418605E+03  0.000000000E+00  0.00000E+00  9.000E+00
      21    -1     0     0   501   512  0.000000000E+00  0.000000000E+00 -4.990529969E+02  4.990529969E+02  0.000000000E+00  0.00000E+00  9.000E+00
      25     1     1     2     0     0  4.540791760E+02 -5.399234987E+00  4.043025143E+02  6.207274546E+02  1.250000000E+02  0.00000E+00  9.000E+00
      25     1     1     2     0     0 -5.015759812E+02  4.005641708E+01  8.966617176E+02  1.035765522E+03  1.250000000E+02  0.00000E+00  9.000E+00
      21     1     1     2   502   512  4.749680516E+01 -3.465718209E+01 -3.185986235E+02  3.239786253E+02  3.814697266E-06  0.00000E+00  9.000E+00
#rwgt            1           1   3.3072592180486929E-002           8      271664           0
</event>
<event>
      5   9999  3.19816E-02  2.99057E+01 -1.00000E+00  1.53135E-01
      21    -1     0     0   502   501  0.000000000E+00  0.000000000E+00  6.980462703E+02  6.980462703E+02  0.000000000E+00  0.00000E+00  9.000E+00
      21    -1     0     0   501   511  0.000000000E+00  0.000000000E+00 -1.453103799E+02  1.453103799E+02  0.000000000E+00  0.00000E+00  9.000E+00
      25     1     1     2     0     0 -2.810324695E+01  3.397974311E+01  8.377983767E+01  1.568071320E+02  1.250000000E+02  0.00000E+00  9.000E+00
      25     1     1     2     0     0  3.707527196E+01 -5.451574089E+00  5.681507709E+02  5.829447606E+02  1.250000000E+02  0.00000E+00  9.000E+00
      21     1     1     2   502   511 -8.972025010E+00 -2.852816902E+01 -9.919471820E+01  1.036047575E+02  1.907348633E-06  0.00000E+00  9.000E+00
#rwgt            1           1   2.6111101553858509E-002           8      271766           0
</event>
<event>
      5   9999  3.19816E-02  5.83047E+01 -1.00000E+00  1.35372E-01
      21    -1     0     0   502   512  0.000000000E+00  0.000000000E+00  1.453028034E+03  1.453028034E+03  0.000000000E+00  0.00000E+00  9.000E+00
      21    -1     0     0   501   502  0.000000000E+00  0.000000000E+00 -4.855105684E+01  4.855105684E+01  0.000000000E+00  0.00000E+00  9.000E+00
      25     1     1     2     0     0 -9.366288897E+00  5.982676050E+01  1.377002255E+02  1.955845616E+02  1.250000000E+02  0.00000E+00  9.000E+00
      25     1     1     2     0     0 -2.539267119E+01 -1.066375462E+02  3.512194769E+02  3.885826488E+02  1.250000000E+02  0.00000E+00  9.000E+00
      21     1     1     2   501   512  3.475896009E+01  4.681078566E+01  9.155572745E+02  9.174118801E+02  1.078959322E-05  0.00000E+00  9.000E+00
#rwgt            2          11   1.4799489545828579E-003           8      272051           0
</event>
<event>
      5   9999  3.19816E-02  4.35877E+01 -1.00000E+00  1.42564E-01
      21    -1     0     0   502   511  0.000000000E+00  0.000000000E+00  2.270895774E+02  2.270895774E+02  0.000000000E+00  0.00000E+00  9.000E+00
      21    -1     0     0   501   502  0.000000000E+00  0.000000000E+00 -5.530796498E+02  5.530796498E+02  0.000000000E+00  0.00000E+00  9.000E+00
      25     1     1     2     0     0  1.463696231E+02 -1.948898025E+02  3.051350436E+01  2.756123648E+02  1.250000000E+02  0.00000E+00  9.000E+00
      25     1     1     2     0     0 -1.211182715E+02  1.593615978E+02 -3.856482494E+02  4.521231324E+02  1.250000000E+02  0.00000E+00  9.000E+00
      21     1     1     2   501   511 -2.525135159E+01  3.552820476E+01  2.914467274E+01  5.243372998E+01  1.011524364E-06  0.00000E+00  9.000E+00
#rwgt            1           1   2.7636712965436246E-002           8      272071           0
</event>
<event>
      5   9999  3.19816E-02  1.22074E+02 -1.00000E+00  1.20053E-01
      21    -1     0     0   502   501  0.000000000E+00  0.000000000E+00  1.482308515E+03  1.482308515E+03  0.000000000E+00  0.00000E+00  9.000E+00
      21    -1     0     0   501   512  0.000000000E+00  0.000000000E+00 -1.442352137E+02  1.442352137E+02  0.000000000E+00  0.00000E+00  9.000E+00
      25     1     1     2     0     0 -9.914534864E+01  1.089608411E+02  5.751372846E+00  1.932882390E+02  1.250000000E+02  0.00000E+00  9.000E+00
      25     1     1     2     0     0  1.248729641E+01 -1.949402940E+02  1.279322756E+03  1.300172822E+03  1.250000000E+02  0.00000E+00  9.000E+00
      21     1     1     2   502   512  8.665805223E+01  8.597945289E+01  5.299917202E+01  1.330826682E+02  1.507891493E-06  0.00000E+00  9.000E+00
#rwgt            1           1   2.9415820519954151E-002           8      272176           0
</event>
<event>
      5   9999  3.19816E-02  4.62223E+01 -1.00000E+00  1.41051E-01
      21    -1     0     0   502   501  0.000000000E+00  0.000000000E+00  1.223052177E+03  1.223052177E+03  0.000000000E+00  0.00000E+00  9.000E+00
      21    -1     0     0   511   502  0.000000000E+00  0.000000000E+00 -9.033746466E+02  9.033746466E+02  0.000000000E+00  0.00000E+00  9.000E+00
      25     1     1     2     0     0  4.188053912E+02  7.935587394E+02  3.219382501E+02  9.614586135E+02  1.250000000E+02  0.00000E+00  9.000E+00
      25     1     1     2     0     0 -4.610215446E+02 -7.747359416E+02  2.213054839E+02  9.366737751E+02  1.250000000E+02  0.00000E+00  9.000E+00
      21     1     1     2   511   501  4.221615339E+01 -1.882279779E+01 -2.235662040E+02  2.282944347E+02  3.814697266E-06  0.00000E+00  9.000E+00
#rwgt            1           1   2.0766041942651633E-002           8      272224           0
</event>
<event>
      5   9999  3.19816E-02  7.04182E+01 -1.00000E+00  1.31090E-01
      21    -1     0     0   502   501  0.000000000E+00  0.000000000E+00  2.054136670E+02  2.054136670E+02  0.000000000E+00  0.00000E+00  9.000E+00
      21    -1     0     0   512   502  0.000000000E+00  0.000000000E+00 -6.707939732E+02  6.707939732E+02  0.000000000E+00  0.00000E+00  9.000E+00
      25     1     1     2     0     0 -4.604034460E+01  8.406207193E+01  8.560494455E+01  1.792745152E+02  1.250000000E+02  0.00000E+00  9.000E+00
      25     1     1     2     0     0 -2.297544077E+01 -7.007855465E+01 -3.746533455E+00  1.451823378E+02  1.250000000E+02  0.00000E+00  9.000E+00
      21     1     1     2   512   501  6.901578538E+01 -1.398351728E+01 -5.472387174E+02  5.517507872E+02  7.629394531E-06  0.00000E+00  9.000E+00
#rwgt            1           1   4.6953076275691827E-002           8      272418           0
</event>
<event>
      5   9999  3.19816E-02  3.06908E+01 -1.00000E+00  1.52356E-01
      21    -1     0     0   511   501  0.000000000E+00  0.000000000E+00  6.277454795E+01  6.277454795E+01  0.000000000E+00  0.00000E+00  9.000E+00
      21    -1     0     0   501   502  0.000000000E+00  0.000000000E+00 -4.973107345E+02  4.973107345E+02  0.000000000E+00  0.00000E+00  9.000E+00
      25     1     1     2     0     0  3.933651246E+01 -7.480885708E+01 -9.697703750E+01  1.793690946E+02  1.250000000E+02  0.00000E+00  9.000E+00
      25     1     1     2     0     0 -3.646394156E+01  4.425278569E+01 -3.113017704E+02  3.403259031E+02  1.250000000E+02  0.00000E+00  9.000E+00
      21     1     1     2   511   502 -2.872570899E+00  3.055607139E+01 -2.625737860E+01  4.039028464E+01  6.743495762E-07  0.00000E+00  9.000E+00
#rwgt            1           1   2.7367439429779820E-002           8      272456           0
</event>
<event>
      5   9999  3.19816E-02  9.43405E+01 -1.00000E+00  1.24977E-01
      21    -1     0     0   512   501  0.000000000E+00  0.000000000E+00  2.863608875E+02  2.863608875E+02  0.000000000E+00  0.00000E+00  9.000E+00
      21    -1     0     0   501   502  0.000000000E+00  0.000000000E+00 -2.411284215E+02  2.411284215E+02  0.000000000E+00  0.00000E+00  9.000E+00
      25     1     1     2     0     0  9.706367594E+01  8.534682531E+01 -7.511522296E+01  1.948659398E+02  1.250000000E+02  0.00000E+00  9.000E+00
      25     1     1     2     0     0 -1.716115074E+02 -2.753027546E+01  6.743261317E+01  2.244561936E+02  1.250000000E+02  0.00000E+00  9.000E+00
      21     1     1     2   512   502  7.454783145E+01 -5.781654985E+01  5.291507585E+01  1.081671755E+02  0.000000000E+00  0.00000E+00  9.000E+00
#rwgt            1           1   2.6033613139486482E-002           8      272556           0
</event>
<event>
      5   9999  3.19816E-02  7.44997E+01 -1.00000E+00  1.29865E-01
      21    -1     0     0   502   501  0.000000000E+00  0.000000000E+00  2.774668802E+02  2.774668802E+02  0.000000000E+00  0.00000E+00  9.000E+00
      21    -1     0     0   511   502  0.000000000E+00  0.000000000E+00 -7.952578052E+02  7.952578052E+02  0.000000000E+00  0.00000E+00  9.000E+00
      25     1     1     2     0     0 -7.565943811E+01  2.376269082E+02 -4.487825698E+02  5.284143195E+02  1.250000000E+02  0.00000E+00  9.000E+00
      25     1     1     2     0     0  1.491676019E+02 -2.255124868E+02  1.350607150E+02  3.270676565E+02  1.250000000E+02  0.00000E+00  9.000E+00
      21     1     1     2   511   501 -7.350816377E+01 -1.211442139E+01 -2.040690703E+02  2.172427094E+02  0.000000000E+00  0.00000E+00  9.000E+00
#rwgt            1           1   2.9012226980256486E-002           8      272643           0
</event>
<event>
      5   9999  3.19816E-02  4.84907E+01 -1.00000E+00  1.39839E-01
      21    -1     0     0   502   501  0.000000000E+00  0.000000000E+00  5.342400285E+02  5.342400285E+02  0.000000000E+00  0.00000E+00  9.000E+00
      21    -1     0     0   501   512  0.000000000E+00  0.000000000E+00 -1.756207867E+02  1.756207867E+02  0.000000000E+00  0.00000E+00  9.000E+00
      25     1     1     2     0     0  1.687183328E+02  7.235753861E+01  4.124255658E+02  4.684243125E+02  1.250000000E+02  0.00000E+00  9.000E+00
      25     1     1     2     0     0 -1.324317664E+02 -4.019185156E+01 -3.706933111E+01  1.901386152E+02  1.250000000E+02  0.00000E+00  9.000E+00
      21     1     1     2   502   512 -3.628656645E+01 -3.216568706E+01 -1.673699298E+01  5.129788751E+01  3.371747881E-07  0.00000E+00  9.000E+00
#rwgt            1           1   2.8794518053590203E-002           8      272746           0
</event>
<event>
      5   9999  3.19816E-02  4.26488E+02 -1.00000E+00  1.00854E-01
      21    -1     0     0   502   501  0.000000000E+00  0.000000000E+00  4.363328209E+02  4.363328209E+02  0.000000000E+00  0.00000E+00  9.000E+00
       4    -1     0     0   501     0  0.000000000E+00  0.000000000E+00 -1.363765634E+03  1.363765634E+03  0.000000000E+00  0.00000E+00  9.000E+00
      25     1     1     2     0     0 -1.897861216E+02 -2.677584515E+02  3.280993828E+01  3.527248961E+02  1.250000000E+02  0.00000E+00  9.000E+00
      25     1     1     2     0     0  3.530437273E+02 -1.262449123E+02  1.588094887E+00  3.952280017E+02  1.250000000E+02  0.00000E+00  9.000E+00
       4     1     1     2   502     0 -1.632576057E+02  3.940033637E+02 -9.618308459E+02  1.052145557E+03  1.078959322E-05  0.00000E+00  9.000E+00
#rwgt            1           1   2.9059459563739058E-002           8      272822           0
</event>
<event>
      5   9999  3.19816E-02  7.82966E+01 -1.00000E+00  1.28804E-01
      21    -1     0     0   502   501  0.000000000E+00  0.000000000E+00  3.686676047E+02  3.686676047E+02  0.000000000E+00  0.00000E+00  9.000E+00
      21    -1     0     0   501   511  0.000000000E+00  0.000000000E+00 -2.981568554E+03  2.981568554E+03  0.000000000E+00  0.00000E+00  9.000E+00
      25     1     1     2     0     0 -6.662850445E+02 -5.249046281E+02 -2.100829636E+03  2.269046229E+03  1.250000000E+02  0.00000E+00  9.000E+00
      25     1     1     2     0     0  5.883413028E+02  5.174793467E+02 -2.884378055E+02  8.442462499E+02  1.250000000E+02  0.00000E+00  9.000E+00
      21     1     1     2   502   511  7.794374179E+01  7.425281440E+00 -2.236335073E+02  2.369436795E+02  0.000000000E+00  0.00000E+00  9.000E+00
#rwgt            1           1   3.0771551671382673E-002           8      272849           0
</event>
<event>
      5   9999  3.19816E-02  5.23309E+01 -1.00000E+00  1.37956E-01
      21    -1     0     0   502   512  0.000000000E+00  0.000000000E+00  8.075199089E+02  8.075199089E+02  0.000000000E+00  0.00000E+00  9.000E+00
      21    -1     0     0   501   502  0.000000000E+00  0.000000000E+00 -1.146022757E+02  1.146022757E+02  0.000000000E+00  0.00000E+00  9.000E+00
      25     1     1     2     0     0  1.081608190E+02 -2.201406536E+02  3.857808721E+02  4.739330664E+02  1.250000000E+02  0.00000E+00  9.000E+00
      25     1     1     2     0     0 -1.008043864E+02  1.683293797E+02  1.365454392E+02  2.697516661E+02  1.250000000E+02  0.00000E+00  9.000E+00
      21     1     1     2   501   512 -7.356432565E+00  5.181127389E+01  1.705913219E+02  1.784374521E+02  3.303624740E-06  0.00000E+00  9.000E+00
#rwgt            1           1   3.0510713727260573E-002           8      272974           0
</event>
<event>
      5   9999  3.19816E-02  1.42660E+01 -1.00000E+00  1.79461E-01
      21    -1     0     0   502   511  0.000000000E+00  0.000000000E+00  3.122538798E+02  3.122538798E+02  0.000000000E+00  0.00000E+00  9.000E+00
      21    -1     0     0   501   502  0.000000000E+00  0.000000000E+00 -4.112492193E+02  4.112492193E+02  0.000000000E+00  0.00000E+00  9.000E+00
      25     1     1     2     0     0  1.185831576E+02 -8.134226355E+01  2.206514460E+02  2.915314558E+02  1.250000000E+02  0.00000E+00  9.000E+00
      25     1     1     2     0     0 -1.299478211E+02  7.271884937E+01 -3.489069445E+02  3.994189820E+02  1.250000000E+02  0.00000E+00  9.000E+00
      21     1     1     2   501   511  1.136466346E+01  8.623414181E+00  2.926015897E+01  3.255266119E+01  4.768371582E-07  0.00000E+00  9.000E+00
#rwgt            1           1   2.8050603822599936E-002           8      273099           0
</event>
<event>
      5   9999  3.19816E-02  3.29655E+01 -1.00000E+00  1.50250E-01
       1    -1     0     0   502     0  0.000000000E+00  0.000000000E+00  1.186803349E+03  1.186803349E+03  0.000000000E+00  0.00000E+00  9.000E+00
      21    -1     0     0   501   502  0.000000000E+00  0.000000000E+00 -1.266255207E+02  1.266255207E+02  0.000000000E+00  0.00000E+00  9.000E+00
      25     1     1     2     0     0  5.384614781E+01 -1.804987437E+02  2.284737439E+02  3.214101053E+02  1.250000000E+02  0.00000E+00  9.000E+00
      25     1     1     2     0     0 -3.406805825E+01  1.541254348E+02  4.717689039E+01  2.067992776E+02  1.250000000E+02  0.00000E+00  9.000E+00
       1     1     1     2   501     0 -1.977808956E+01  2.637330895E+01  7.845271936E+02  7.852194864E+02  1.525878906E-05  0.00000E+00  9.000E+00
#rwgt            1           1   2.9720393522653644E-002           8      273264           0
</event>
<event>
      5   9999  3.19816E-02  2.51851E+01 -1.00000E+00  1.58511E-01
      21    -1     0     0   511   501  0.000000000E+00  0.000000000E+00  4.040690604E+02  4.040690604E+02  0.000000000E+00  0.00000E+00  9.000E+00
      21    -1     0     0   501   502  0.000000000E+00  0.000000000E+00 -8.254177994E+02  8.254177994E+02  0.000000000E+00  0.00000E+00  9.000E+00
      25     1     1     2     0     0  3.620845887E+02 -1.073746421E+02 -3.138782052E+02  5.067337475E+02  1.250000000E+02  0.00000E+00  9.000E+00
      25     1     1     2     0     0 -3.481495263E+02  8.639601993E+01 -3.273395010E+02  5.014464217E+02  1.250000000E+02  0.00000E+00  9.000E+00
      21     1     1     2   511   502 -1.393506242E+01  2.097862214E+01  2.198689672E+02  2.213066906E+02  3.814697266E-06  0.00000E+00  9.000E+00
#rwgt            1           1   3.2187953791684265E-002           8      273408           0
</event>
<event>
      5   9999  3.19816E-02  3.05397E+02 -1.00000E+00  1.05341E-01
      21    -1     0     0   502   501  0.000000000E+00  0.000000000E+00  1.574180901E+02  1.574180901E+02  0.000000000E+00  0.00000E+00  9.000E+00
      21    -1     0     0   501   512  0.000000000E+00  0.000000000E+00 -2.493659960E+03  2.493659960E+03  0.000000000E+00  0.00000E+00  9.000E+00
      25     1     1     2     0     0 -3.371704873E+02  1.164334693E+02 -7.236733077E+02  8.164366152E+02  1.250000000E+02  0.00000E+00  9.000E+00
      25     1     1     2     0     0  1.464100474E+02  1.220576313E+02 -3.844269654E+01  2.311640289E+02  1.250000000E+02  0.00000E+00  9.000E+00
      21     1     1     2   502   512  1.907604399E+02 -2.384911007E+02 -1.574125866E+03  1.603477406E+03  2.157918644E-05  0.00000E+00  9.000E+00
#rwgt            1           1   2.6950933631450982E-002           8      273592           0
</event>
<event>
      5   9999  3.19816E-02  3.78051E+01 -1.00000E+00  1.46377E-01
      21    -1     0     0   502   501  0.000000000E+00  0.000000000E+00  1.083053683E+02  1.083053683E+02  0.000000000E+00  0.00000E+00  9.000E+00
      21    -1     0     0   501   511  0.000000000E+00  0.000000000E+00 -2.733786670E+03  2.733786670E+03  0.000000000E+00  0.00000E+00  9.000E+00
      25     1     1     2     0     0  3.881064360E+02 -3.061210714E+02 -1.769986668E+03  1.841959425E+03  1.250000000E+02  0.00000E+00  9.000E+00
      25     1     1     2     0     0 -3.716387660E+02  2.720910229E+02 -7.599917131E+02  8.974192449E+02  1.250000000E+02  0.00000E+00  9.000E+00
      21     1     1     2   502   511 -1.646767002E+01  3.403004848E+01 -9.550292048E+01  1.027133690E+02  0.000000000E+00  0.00000E+00  9.000E+00
#rwgt            1           1   6.6516389020457492E-002           8      273620           0
</event>
<event>
      5   9999  3.19816E-02  1.10886E+02 -1.00000E+00  1.21843E-01
      21    -1     0     0   502   501  0.000000000E+00  0.000000000E+00  1.172694404E+03  1.172694404E+03  0.000000000E+00  0.00000E+00  9.000E+00
      21    -1     0     0   512   502  0.000000000E+00  0.000000000E+00 -1.958519368E+02  1.958519368E+02  0.000000000E+00  0.00000E+00  9.000E+00
      25     1     1     2     0     0  1.812128989E+02  4.091539880E+01  2.787328200E+02  3.575320538E+02  1.250000000E+02  0.00000E+00  9.000E+00
      25     1     1     2     0     0 -2.837907610E+02  1.196964469E+00  8.015042809E+02  8.594025489E+02  1.250000000E+02  0.00000E+00  9.000E+00
      21     1     1     2   512   501  1.025778621E+02 -4.211236327E+01 -1.033946335E+02  1.516117382E+02  2.336015456E-06  0.00000E+00  9.000E+00
#rwgt            1           1   2.7487485487195980E-002           8      273795           0
</event>
<event>
      5   9999  3.19816E-02  1.87710E+01 -1.00000E+00  1.68674E-01
      21    -1     0     0   502   501  0.000000000E+00  0.000000000E+00  8.313698299E+01  8.313698299E+01  0.000000000E+00  0.00000E+00  9.000E+00
      21    -1     0     0   501   511  0.000000000E+00  0.000000000E+00 -1.648549791E+03  1.648549791E+03  0.000000000E+00  0.00000E+00  9.000E+00
      25     1     1     2     0     0  2.196912078E+02 -1.417322804E+00 -1.522738169E+02  2.950907503E+02  1.250000000E+02  0.00000E+00  9.000E+00
      25     1     1     2     0     0 -2.035240020E+02 -8.120659111E+00 -1.277088965E+03  1.299257168E+03  1.250000000E+02  0.00000E+00  9.000E+00
      21     1     1     2   502   511 -1.616720579E+01  9.537981915E+00 -1.360500264E+02  1.373388558E+02  1.907348633E-06  0.00000E+00  9.000E+00
#rwgt            1           1   3.3319655553518353E-002           8      273863           0
</event>
<event>
      5   9999  3.19816E-02  3.96756E+02 -1.00000E+00  1.01792E-01
       2    -1     0     0   502     0  0.000000000E+00  0.000000000E+00  7.356397489E+02  7.356397489E+02  0.000000000E+00  0.00000E+00  9.000E+00
      21    -1     0     0   501   502  0.000000000E+00  0.000000000E+00 -1.472286301E+03  1.472286301E+03  0.000000000E+00  0.00000E+00  9.000E+00
      25     1     1     2     0     0 -2.238400012E+02  3.419015282E+02 -1.329534352E+03  1.396526975E+03  1.250000000E+02  0.00000E+00  9.000E+00
      25     1     1     2     0     0  8.879496277E+01  3.116481923E+01  1.866869042E+02  2.435832333E+02  1.250000000E+02  0.00000E+00  9.000E+00
       2     1     1     2   501     0  1.350450384E+02 -3.730663474E+02  4.062008954E+02  5.678158411E+02  5.394796609E-06  0.00000E+00  9.000E+00
#rwgt            2          18   1.0199505077685398E-003           8      273991           0
</event>
<event>
      5   9999  3.19816E-02  7.84637E+01 -1.00000E+00  1.28758E-01
      21    -1     0     0   502   501  0.000000000E+00  0.000000000E+00  3.440622386E+02  3.440622386E+02  0.000000000E+00  0.00000E+00  9.000E+00
      21    -1     0     0   501   511  0.000000000E+00  0.000000000E+00 -3.002929243E+02  3.002929243E+02  0.000000000E+00  0.00000E+00  9.000E+00
      25     1     1     2     0     0  4.053609495E+01  8.309475893E+01  2.859375835E+02  3.254738325E+02  1.250000000E+02  0.00000E+00  9.000E+00
      25     1     1     2     0     0 -3.951349194E+00 -1.368219513E+01 -1.211826731E+02  1.746798669E+02  1.250000000E+02  0.00000E+00  9.000E+00
      21     1     1     2   502   511 -3.658474576E+01 -6.941256380E+01 -1.209855961E+02  1.442014636E+02  0.000000000E+00  0.00000E+00  9.000E+00
#rwgt            1           1   2.7574843017405995E-002           8      274010           0
</event>
<event>
      5   9999  3.19816E-02  2.10882E+02 -1.00000E+00  1.10817E-01
       2    -1     0     0   502     0  0.000000000E+00  0.000000000E+00  1.767986789E+03  1.767986789E+03  0.000000000E+00  0.00000E+00  9.000E+00
      21    -1     0     0   501   502  0.000000000E+00  0.000000000E+00 -7.018201383E+02  7.018201383E+02  0.000000000E+00  0.00000E+00  9.000E+00
      25     1     1     2     0     0  1.231374197E+02  8.886852245E+01 -6.031613470E+02  6.344202463E+02  1.250000000E+02  0.00000E+00  9.000E+00
      25     1     1     2     0     0 -1.588970204E+02 -2.966962643E+02  3.573120858E+02  5.065312063E+02  1.250000000E+02  0.00000E+00  9.000E+00
       2     1     1     2   501     0  3.575960072E+01  2.078277419E+02  1.312015912E+03  1.328855474E+03  0.000000000E+00  0.00000E+00  9.000E+00
#rwgt            2          18   2.9208644252222055E-003           8      274137           0
</event>
<event>
      5   9999  3.19816E-02  4.78038E+01 -1.00000E+00  1.40198E-01
      21    -1     0     0   502   501  0.000000000E+00  0.000000000E+00  1.837028657E+02  1.837028657E+02  0.000000000E+00  0.00000E+00  9.000E+00
       1    -1     0     0   501     0  0.000000000E+00  0.000000000E+00 -1.430131455E+03  1.430131455E+03  0.000000000E+00  0.00000E+00  9.000E+00
      25     1     1     2     0     0  3.548115270E+02  4.635460890E+01 -3.676781769E+02  5.280645900E+02  1.250000000E+02  0.00000E+00  9.000E+00
      25     1     1     2     0     0 -4.026045184E+02 -4.737065314E+01 -3.366480882E+02  5.415637657E+02  1.250000000E+02  0.00000E+00  9.000E+00
       1     1     1     2   502     0  4.779299140E+01  1.016044238E+00 -5.421023246E+02  5.442059654E+02  7.629394531E-06  0.00000E+00  9.000E+00
#rwgt            1           1   2.8020063635829220E-002           8      274156           0
</event>
<event>
      5   9999  3.19816E-02  5.16251E+01 -1.00000E+00  1.38288E-01
      21    -1     0     0   502   501  0.000000000E+00  0.000000000E+00  6.472797262E+02  6.472797262E+02  0.000000000E+00  0.00000E+00  9.000E+00
      21    -1     0     0   511   502  0.000000000E+00  0.000000000E+00 -5.445695723E+01  5.445695723E+01  0.000000000E+00  0.00000E+00  9.000E+00
      25     1     1     2     0     0 -1.121839301E+02  4.124845294E+01  3.292654931E+02  3.719239627E+02  1.250000000E+02  0.00000E+00  9.000E+00
      25     1     1     2     0     0  6.056749797E+01 -4.030200386E+01  2.137116307E+02  2.580510307E+02  1.250000000E+02  0.00000E+00  9.000E+00
      21     1     1     2   511   501  5.161643210E+01 -9.464490745E-01  4.984564510E+01  7.176169009E+01  1.168007728E-06  0.00000E+00  9.000E+00
#rwgt            1           1   4.6127242890425524E-002           8      274234           0
</event>
<event>
      5   9999  3.19816E-02  1.13189E+02 -1.00000E+00  1.21455E-01
      21    -1     0     0   502   501  0.000000000E+00  0.000000000E+00  4.872710443E+02  4.872710443E+02  0.000000000E+00  0.00000E+00  9.000E+00
      21    -1     0     0   501   512  0.000000000E+00  0.000000000E+00 -3.761768176E+02  3.761768176E+02  0.000000000E+00  0.00000E+00  9.000E+00
      25     1     1     2     0     0 -1.288077293E+02 -1.739489936E+02  7.342337893E+01  2.605104145E+02  1.250000000E+02  0.00000E+00  9.000E+00
      25     1     1     2     0     0  1.465534428E+02  2.857386247E+02  2.049652874E+02  4.009491767E+02  1.250000000E+02  0.00000E+00  9.000E+00
      21     1     1     2   502   512 -1.774571354E+01 -1.117896311E+02 -1.672944396E+02  2.019882707E+02  1.907348633E-06  0.00000E+00  9.000E+00
#rwgt            1           1   2.6829170162042969E-002           8      274305           0
</event>
<event>
      5   9999  3.19816E-02  7.44866E+01 -1.00000E+00  1.29869E-01
      21    -1     0     0   502   511  0.000000000E+00  0.000000000E+00  1.274787372E+03  1.274787372E+03  0.000000000E+00  0.00000E+00  9.000E+00
      21    -1     0     0   501   502  0.000000000E+00  0.000000000E+00 -1.231190230E+02  1.231190230E+02  0.000000000E+00  0.00000E+00  9.000E+00
      25     1     1     2     0     0  9.823537365E+01 -1.258717237E+02  2.332646948E+02  3.090813765E+02  1.250000000E+02  0.00000E+00  9.000E+00
      25     1     1     2     0     0 -2.772042152E+01  1.018740379E+02 -3.754172277E+00  1.636637870E+02  1.250000000E+02  0.00000E+00  9.000E+00
      21     1     1     2   501   511 -7.051495213E+01  2.399768582E+01  9.221578265E+02  9.251612316E+02  1.078959322E-05  0.00000E+00  9.000E+00
#rwgt            1           1   2.6630617432652926E-002           8      274354           0
</event>
<event>
      5   9999  3.19816E-02  5.44529E+01 -1.00000E+00  1.36994E-01
      21    -1     0     0   502   512  0.000000000E+00  0.000000000E+00  6.306965835E+02  6.306965835E+02  0.000000000E+00  0.00000E+00  9.000E+00
      21    -1     0     0   501   502  0.000000000E+00  0.000000000E+00 -1.787039937E+02  1.787039937E+02  0.000000000E+00  0.00000E+00  9.000E+00
      25     1     1     2     0     0  1.544956120E+02 -3.367484699E+01  4.201619367E+02  4.660085219E+02  1.250000000E+02  0.00000E+00  9.000E+00
      25     1     1     2     0     0 -1.587580495E+02  8.796061628E+01 -6.718509850E+01  2.303910280E+02  1.250000000E+02  0.00000E+00  9.000E+00
      21     1     1     2   501   512  4.262437541E+00 -5.428576929E+01  9.901575151E+01  1.130010273E+02  0.000000000E+00  0.00000E+00  9.000E+00
#rwgt            1           1   2.8470244442773057E-002           8      274422           0
</event>
<event>
      5   9999  3.19816E-02  3.02487E+01 -1.00000E+00  1.52791E-01
      21    -1     0     0   502   501  0.000000000E+00  0.000000000E+00  2.448715009E+02  2.448715009E+02  0.000000000E+00  0.00000E+00  9.000E+00
      21    -1     0     0   511   502  0.000000000E+00  0.000000000E+00 -1.133719082E+03  1.133719082E+03  0.000000000E+00  0.00000E+00  9.000E+00
      25     1     1     2     0     0 -1.336597204E+01 -5.636523313E+01  2.182865210E+02  2.581272825E+02  1.250000000E+02  0.00000E+00  9.000E+00
      25     1     1     2     0     0 -1.540887720E+01  6.569223060E+01 -9.185533417E+02  9.294719707E+02  1.250000000E+02  0.00000E+00  9.000E+00
      21     1     1     2   511   501  2.877484924E+01 -9.326997467E+00 -1.885807608E+02  1.909913301E+02  3.814697266E-06  0.00000E+00  9.000E+00
#rwgt            1           1   3.0951166755825935E-002           8      274527           0
</event>
<event>
      5   9999  3.19816E-02  2.69809E+01 -1.00000E+00  1.56310E-01
       2    -1     0     0   502     0  0.000000000E+00  0.000000000E+00  4.909813627E+02  4.909813627E+02  0.000000000E+00  0.00000E+00  9.000E+00
      21    -1     0     0   501   502  0.000000000E+00  0.000000000E+00 -3.047341427E+02  3.047341427E+02  0.000000000E+00  0.00000E+00  9.000E+00
      25     1     1     2     0     0 -3.149689403E+01 -9.990834926E+01 -1.792277895E+02  2.423248504E+02  1.250000000E+02  0.00000E+00  9.000E+00
      25     1     1     2     0     0  4.523470545E+01  7.668679121E+01 -3.052458009E+01  1.564729769E+02  1.250000000E+02  0.00000E+00  9.000E+00
       2     1     1     2   501     0 -1.373781142E+01  2.322155805E+01  3.959995895E+02  3.969176780E+02  7.629394531E-06  0.00000E+00  9.000E+00
#rwgt            1           1   3.2623786118234861E-002           8      274698           0
</event>
<event>
      5   9999  3.19816E-02  1.99153E+01 -1.00000E+00  1.66521E-01
      21    -1     0     0   502   501  0.000000000E+00  0.000000000E+00  4.423347443E+02  4.423347443E+02  0.000000000E+00  0.00000E+00  9.000E+00
       2    -1     0     0   501     0  0.000000000E+00  0.000000000E+00 -1.461186072E+03  1.461186072E+03  0.000000000E+00  0.00000E+00  9.000E+00
      25     1     1     2     0     0 -4.072605786E+02 -1.443377775E+01  7.631245781E+01  4.330336062E+02  1.250000000E+02  0.00000E+00  9.000E+00
      25     1     1     2     0     0  3.873950411E+02  1.584034146E+01 -3.361887592E+01  4.087555053E+02  1.250000000E+02  0.00000E+00  9.000E+00
       2     1     1     2   502     0  1.986553754E+01 -1.406563710E+00 -1.061544909E+03  1.061731704E+03  0.000000000E+00  0.00000E+00  9.000E+00
#rwgt            1           1   2.8650997809136016E-002           8      274804           0
</event>
<event>
      5   9999  3.19816E-02  8.15772E+01 -1.00000E+00  1.27940E-01
      21    -1     0     0   502   501  0.000000000E+00  0.000000000E+00  1.365270375E+03  1.365270375E+03  0.000000000E+00  0.00000E+00  9.000E+00
      21    -1     0     0   501   511  0.000000000E+00  0.000000000E+00 -1.552383659E+02  1.552383659E+02  0.000000000E+00  0.00000E+00  9.000E+00
      25     1     1     2     0     0  1.950032919E+02  1.931579297E+02  1.008800277E+03  1.052919403E+03  1.250000000E+02  0.00000E+00  9.000E+00
      25     1     1     2     0     0 -1.452131294E+02 -2.577782077E+02  9.757489638E+01  3.356818698E+02  1.250000000E+02  0.00000E+00  9.000E+00
      21     1     1     2   502   511 -4.979016246E+01  6.462027805E+01  1.036568354E+02  1.319074681E+02  1.907348633E-06  0.00000E+00  9.000E+00
#rwgt            1           1   2.1013267980545727E-002           8      274927           0
</event>
<event>
      5   9999  3.19816E-02  4.68091E+01 -1.00000E+00  1.40730E-01
      21    -1     0     0   512   501  0.000000000E+00  0.000000000E+00  4.304520918E+02  4.304520918E+02  0.000000000E+00  0.00000E+00  9.000E+00
      21    -1     0     0   501   502  0.000000000E+00  0.000000000E+00 -1.771983083E+02  1.771983083E+02  0.000000000E+00  0.00000E+00  9.000E+00
      25     1     1     2     0     0 -1.559203760E+01  1.141795422E+02 -7.325913314E+01  1.851269296E+02  1.250000000E+02  0.00000E+00  9.000E+00
      25     1     1     2     0     0  2.316781313E+01 -1.603714845E+02  1.940042917E+02  2.819901165E+02  1.250000000E+02  0.00000E+00  9.000E+00
      21     1     1     2   512   502 -7.575775536E+00  4.619194232E+01  1.325086249E+02  1.405333540E+02  0.000000000E+00  0.00000E+00  9.000E+00
#rwgt            1           1   2.7026700460202110E-002           8      275010           0
</event>
<event>
      5   9999  3.19816E-02  6.67478E+01 -1.00000E+00  1.32276E-01
      21    -1     0     0   502   501  0.000000000E+00  0.000000000E+00  4.767038494E+02  4.767038494E+02  0.000000000E+00  0.00000E+00  9.000E+00
      -5    -1     0     0     0   502  0.000000000E+00  0.000000000E+00 -2.455254664E+03  2.455254664E+03  0.000000000E+00  0.00000E+00  9.000E+00
      25     1     1     2     0     0 -8.070524455E+02 -2.796396201E+02 -2.863419787E+02  9.094771551E+02  1.250000000E+02  0.00000E+00  9.000E+00
      25     1     1     2     0     0  7.506748549E+02  3.153724712E+02 -8.720537335E+02  1.199614625E+03  1.250000000E+02  0.00000E+00  9.000E+00
      -5     1     1     2     0   501  5.637759056E+01 -3.573285108E+01 -8.201551027E+02  8.228667339E+02  1.078959322E-05  0.00000E+00  9.000E+00
#rwgt            1           1   3.2170411670751721E-002           8      275117           0
</event>
<event>
      5   9999  3.19816E-02  3.20813E+01 -1.00000E+00  1.51044E-01
      21    -1     0     0   502   511  0.000000000E+00  0.000000000E+00  5.674865379E+02  5.674865379E+02  0.000000000E+00  0.00000E+00  9.000E+00
      21    -1     0     0   501   502  0.000000000E+00  0.000000000E+00 -1.471691839E+02  1.471691839E+02  0.000000000E+00  0.00000E+00  9.000E+00
      25     1     1     2     0     0  1.317730963E+02 -2.006518930E+01 -3.361331727E+01  1.857999350E+02  1.250000000E+02  0.00000E+00  9.000E+00
      25     1     1     2     0     0 -1.154246513E+02 -7.538019965E+00  1.616157668E+02  2.347857064E+02  1.250000000E+02  0.00000E+00  9.000E+00
      21     1     1     2   501   511 -1.634844498E+01  2.760320927E+01  2.923149045E+02  2.940700805E+02  5.394796609E-06  0.00000E+00  9.000E+00
#rwgt            1           1   2.6195954470644118E-002           8      275233           0
</event>
<event>
      5   9999  3.19816E-02  1.46853E+02 -1.00000E+00  1.16760E-01
      21    -1     0     0   502   501  0.000000000E+00  0.000000000E+00  1.696848447E+02  1.696848447E+02  0.000000000E+00  0.00000E+00  9.000E+00
      21    -1     0     0   512   502  0.000000000E+00  0.000000000E+00 -1.992757507E+03  1.992757507E+03  0.000000000E+00  0.00000E+00  9.000E+00
      25     1     1     2     0     0  7.441652335E+01  4.284348951E+02 -5.405495981E+02  7.049206667E+02  1.250000000E+02  0.00000E+00  9.000E+00
      25     1     1     2     0     0 -4.115269135E+01 -2.853983078E+02 -2.169752389E+02  3.819018099E+02  1.250000000E+02  0.00000E+00  9.000E+00
      21     1     1     2   512   501 -3.326383201E+01 -1.430365873E+02 -1.065547825E+03  1.075619875E+03  2.157918644E-05  0.00000E+00  9.000E+00
#rwgt            1           1   2.9413845704891421E-002           8      275332           0
</event>
<event>
      5   9999  3.19816E-02  1.44439E+02 -1.00000E+00  1.17048E-01
      21    -1     0     0   502   501  0.000000000E+00  0.000000000E+00  1.794506645E+02  1.794506645E+02  0.000000000E+00  0.00000E+00  9.000E+00
       2    -1     0     0   501     0  0.000000000E+00  0.000000000E+00 -5.475892334E+02  5.475892334E+02  0.000000000E+00  0.00000E+00  9.000E+00
      25     1     1     2     0     0  2.111409162E+01 -7.127038034E+01 -1.066894101E+02  1.803687950E+02  1.250000000E+02  0.00000E+00  9.000E+00
      25     1     1     2     0     0  9.263744758E+01 -1.774206489E+01  8.006057469E+01  1.758726050E+02  1.250000000E+02  0.00000E+00  9.000E+00
       2     1     1     2   502     0 -1.137515392E+02  8.901244523E+01 -3.415097334E+02  3.707984980E+02  5.394796609E-06  0.00000E+00  9.000E+00
#rwgt            1           1   2.3903258890288694E-002           8      275411           0
</event>
<event>
      5   9999  3.19816E-02  1.27228E+02 -1.00000E+00  1.19300E-01
      21    -1     0     0   502   501  0.000000000E+00  0.000000000E+00  2.458526656E+02  2.458526656E+02  0.000000000E+00  0.00000E+00  9.000E+00
       1    -1     0     0   501     0  0.000000000E+00  0.000000000E+00 -1.293865931E+03  1.293865931E+03  0.000000000E+00  0.00000E+00  9.000E+00
      25     1     1     2     0     0 -7.000861421E+01 -1.390569445E+00  1.995752807E+02  2.456795319E+02  1.250000000E+02  0.00000E+00  9.000E+00
      25     1     1     2     0     0  8.111674408E+01 -1.253513802E+02 -5.170014295E+02  5.524566705E+02  1.250000000E+02  0.00000E+00  9.000E+00
       1     1     1     2   502     0 -1.110812986E+01  1.267419496E+02 -7.305871170E+02  7.415823945E+02  1.525878906E-05  0.00000E+00  9.000E+00
#rwgt            1           1   3.0192689905947107E-002           8      275442           0
</event>
<event>
      5   9999  3.19816E-02  2.30555E+01 -1.00000E+00  1.61431E-01
      21    -1     0     0   502   501  0.000000000E+00  0.000000000E+00  1.159505670E+03  1.159505670E+03  0.000000000E+00  0.00000E+00  9.000E+00
      21    -1     0     0   511   502  0.000000000E+00  0.000000000E+00 -3.024567642E+02  3.024567642E+02  0.000000000E+00  0.00000E+00  9.000E+00
      25     1     1     2     0     0  2.110738792E+02  2.920109229E+02  8.128828282E+02  8.979009154E+02  1.250000000E+02  0.00000E+00  9.000E+00
      25     1     1     2     0     0 -1.924857274E+02 -2.783713975E+02  1.959312803E+02  4.105550594E+02  1.250000000E+02  0.00000E+00  9.000E+00
      21     1     1     2   511   501 -1.858815177E+01 -1.363952536E+01 -1.517652032E+02  1.535064589E+02  3.303624740E-06  0.00000E+00  9.000E+00
#rwgt            1           1   2.7818201967705840E-002           8      275507           0
</event>
<event>
      5   9999  3.19816E-02  8.37399E+01 -1.00000E+00  1.27396E-01
      21    -1     0     0   502   512  0.000000000E+00  0.000000000E+00  1.740549662E+03  1.740549662E+03  0.000000000E+00  0.00000E+00  9.000E+00
      21    -1     0     0   501   502  0.000000000E+00  0.000000000E+00 -4.524506925E+02  4.524506925E+02  0.000000000E+00  0.00000E+00  9.000E+00
      25     1     1     2     0     0 -6.338008401E+02  4.338564548E+02  1.226787596E+02  7.877880465E+02  1.250000000E+02  0.00000E+00  9.000E+00
      25     1     1     2     0     0  5.552273243E+02 -4.048983976E+02  9.995662595E+02  1.219416992E+03  1.250000000E+02  0.00000E+00  9.000E+00
      21     1     1     2   501   512  7.857351573E+01 -2.895805722E+01  1.658539501E+02  1.857953154E+02  0.000000000E+00  0.00000E+00  9.000E+00
#rwgt            1           1   2.8444973792441677E-002           8      275710           0
</event>
<event>
      5   9999  3.19816E-02  4.33838E+02 -1.00000E+00  1.00635E-01
      21    -1     0     0   502   511  0.000000000E+00  0.000000000E+00  1.140265874E+03  1.140265874E+03  0.000000000E+00  0.00000E+00  9.000E+00
      21    -1     0     0   501   502  0.000000000E+00  0.000000000E+00 -1.187950365E+03  1.187950365E+03  0.000000000E+00  0.00000E+00  9.000E+00
      25     1     1     2     0     0 -1.099507829E+02  9.941270681E+01  2.244403905E+01  1.951942515E+02  1.250000000E+02  0.00000E+00  9.000E+00
      25     1     1     2     0     0  3.681766070E+02 -4.480308822E+02 -9.682961325E+02  1.135565095E+03  1.250000000E+02  0.00000E+00  9.000E+00
      21     1     1     2   501   511 -2.582258242E+02  3.486181753E+02  8.981676027E+02  9.974568918E+02  1.078959322E-05  0.00000E+00  9.000E+00
#rwgt            2          11   4.3029772600464656E-003           8      275853           0
</event>
<event>
      5   9999  3.19816E-02  1.80355E+01 -1.00000E+00  1.70161E-01
      21    -1     0     0   502   501  0.000000000E+00  0.000000000E+00  3.576322961E+01  3.576322961E+01  0.000000000E+00  0.00000E+00  9.000E+00
      21    -1     0     0   501   512  0.000000000E+00  0.000000000E+00 -6.363988572E+02  6.363988572E+02  0.000000000E+00  0.00000E+00  9.000E+00
      25     1     1     2     0     0 -5.522297763E+01 -1.836625397E+01 -2.217087645E+02  2.610874811E+02  1.250000000E+02  0.00000E+00  9.000E+00
      25     1     1     2     0     0  5.803106977E+01  5.506783124E-01 -3.004158995E+02  3.305187150E+02  1.250000000E+02  0.00000E+00  9.000E+00
      21     1     1     2   502   512 -2.808092141E+00  1.781557566E+01 -7.851096361E+01  8.055589068E+01  0.000000000E+00  0.00000E+00  9.000E+00
#rwgt            1           1   1.5656836072018121E-002           8      275873           0
</event>
<event>
      5   9999  3.19816E-02  1.03860E+02 -1.00000E+00  1.23093E-01
      21    -1     0     0   502   501  0.000000000E+00  0.000000000E+00  2.190210676E+03  2.190210676E+03  0.000000000E+00  0.00000E+00  9.000E+00
      21    -1     0     0   511   502  0.000000000E+00  0.000000000E+00 -2.212770329E+02  2.212770329E+02  0.000000000E+00  0.00000E+00  9.000E+00
      25     1     1     2     0     0 -5.110537514E+02 -1.491532018E+02  3.167239625E+02  6.319506965E+02  1.250000000E+02  0.00000E+00  9.000E+00
      25     1     1     2     0     0  4.390815787E+02  2.240327351E+02  1.559493082E+03  1.640313071E+03  1.250000000E+02  0.00000E+00  9.000E+00
      21     1     1     2   511   501  7.197217264E+01 -7.487953338E+01  9.271659927E+01  1.392239417E+02  1.907348633E-06  0.00000E+00  9.000E+00
#rwgt            1           1   2.0763255401586432E-002           8      276031           0
</event>
<event>
      5   9999  3.19816E-02  3.00758E+01 -1.00000E+00  1.52964E-01
      21    -1     0     0   502   501  0.000000000E+00  0.000000000E+00  1.454106267E+02  1.454106267E+02  0.000000000E+00  0.00000E+00  9.000E+00
      21    -1     0     0   501   512  0.000000000E+00  0.000000000E+00 -3.137713537E+02  3.137713537E+02  0.000000000E+00  0.00000E+00  9.000E+00
      25     1     1     2     0     0 -1.176406419E+02 -1.081128866E+02 -3.576277195E+01  2.059895452E+02  1.250000000E+02  0.00000E+00  9.000E+00
      25     1     1     2     0     0  1.055293499E+02  8.058341375E+01 -9.687387664E+01  2.064937729E+02  1.250000000E+02  0.00000E+00  9.000E+00
      21     1     1     2   502   512  1.211129208E+01  2.752947290E+01 -3.572407843E+01  4.669866222E+01  4.768371582E-07  0.00000E+00  9.000E+00
#rwgt            1           1   2.6187930296994188E-002           8      276112           0
</event>
<event>
      5   9999  3.19816E-02  9.13693E+01 -1.00000E+00  1.25617E-01
      21    -1     0     0   502   501  0.000000000E+00  0.000000000E+00  2.671722363E+02  2.671722363E+02  0.000000000E+00  0.00000E+00  9.000E+00
      21    -1     0     0   501   511  0.000000000E+00  0.000000000E+00 -2.310569399E+02  2.310569399E+02  0.000000000E+00  0.00000E+00  9.000E+00
      25     1     1     2     0     0 -4.714837065E+00 -9.022186580E+00  1.687462118E+02  2.102472676E+02  1.250000000E+02  0.00000E+00  9.000E+00
      25     1     1     2     0     0 -4.889602443E+01  8.301014603E+01 -5.211913939E+01  1.662014147E+02  1.250000000E+02  0.00000E+00  9.000E+00
      21     1     1     2   502   511  5.361086150E+01 -7.398795945E+01 -8.051177609E+01  1.217804939E+02  0.000000000E+00  0.00000E+00  9.000E+00
#rwgt            1           1   2.5819409941327285E-002           8      276214           0
</event>
<event>
      5   9999  3.19816E-02  4.19841E+01 -1.00000E+00  1.43548E-01
      21    -1     0     0   502   512  0.000000000E+00  0.000000000E+00  6.219917415E+01  6.219917415E+01  0.000000000E+00  0.00000E+00  9.000E+00
      21    -1     0     0   501   502  0.000000000E+00  0.000000000E+00 -1.068606194E+03  1.068606194E+03  0.000000000E+00  0.00000E+00  9.000E+00
      25     1     1     2     0     0  1.588818722E+02 -5.416934048E+01 -6.813129249E+02  7.127342200E+02  1.250000000E+02  0.00000E+00  9.000E+00
      25     1     1     2     0     0 -1.543964794E+02  9.591313708E+01 -2.799981811E+02  3.564569878E+02  1.250000000E+02  0.00000E+00  9.000E+00
      21     1     1     2   501   512 -4.485392781E+00 -4.174379660E+01 -4.509591365E+01  6.161416015E+01  9.536743164E-07  0.00000E+00  9.000E+00
#rwgt            1           1   3.5755225107281192E-002           8      276281           0
</event>
<event>
      5   9999  3.19816E-02  6.64455E+01 -1.00000E+00  1.32377E-01
      21    -1     0     0   502   511  0.000000000E+00  0.000000000E+00  5.008438481E+01  5.008438481E+01  0.000000000E+00  0.00000E+00  9.000E+00
      21    -1     0     0   501   502  0.000000000E+00  0.000000000E+00 -2.289068684E+03  2.289068684E+03  0.000000000E+00  0.00000E+00  9.000E+00
      25     1     1     2     0     0  7.134626875E+01  1.641576781E+02 -1.323617805E+03  1.341501818E+03  1.250000000E+02  0.00000E+00  9.000E+00
      25     1     1     2     0     0 -1.370407832E+02 -1.741194828E+02 -8.914356386E+02  9.270276524E+02  1.250000000E+02  0.00000E+00  9.000E+00
      21     1     1     2   501   511  6.569451441E+01  9.961804759E+00 -2.393085496E+01  7.062359802E+01  1.348699152E-06  0.00000E+00  9.000E+00
#rwgt            1           1   6.9792988570649986E-002           8      276379           0
</event>
<event>
      5   9999  3.19816E-02  3.03078E+01 -1.00000E+00  1.52733E-01
      21    -1     0     0   502   512  0.000000000E+00  0.000000000E+00  2.971273377E+02  2.971273377E+02  0.000000000E+00  0.00000E+00  9.000E+00
      21    -1     0     0   501   502  0.000000000E+00  0.000000000E+00 -1.562343176E+03  1.562343176E+03  0.000000000E+00  0.00000E+00  9.000E+00
      25     1     1     2     0     0  5.398969308E+02 -3.994715806E+00 -1.439499060E+02  5.725829451E+02  1.250000000E+02  0.00000E+00  9.000E+00
      25     1     1     2     0     0 -5.701015031E+02  1.495819831E+00 -1.110844679E+03  1.254838182E+03  1.250000000E+02  0.00000E+00  9.000E+00
      21     1     1     2   501   512  3.020457232E+01  2.498895975E+00 -1.042125322E+01  3.204938672E+01  6.078504936E-07  0.00000E+00  9.000E+00
#rwgt            1           1   3.4988132972130381E-002           8      276425           0
</event>
<event>
      5   9999  3.19816E-02  1.55761E+02 -1.00000E+00  1.15749E-01
      21    -1     0     0   502   501  0.000000000E+00  0.000000000E+00  1.105343403E+02  1.105343403E+02  0.000000000E+00  0.00000E+00  9.000E+00
      21    -1     0     0   511   502  0.000000000E+00  0.000000000E+00 -1.827061650E+03  1.827061650E+03  0.000000000E+00  0.00000E+00  9.000E+00
      25     1     1     2     0     0 -1.672581655E+02 -2.840842957E+01 -3.713280934E+02  4.269565385E+02  1.250000000E+02  0.00000E+00  9.000E+00
      25     1     1     2     0     0  2.608757693E+02 -9.607992060E+01 -2.229929114E+02  3.776749352E+02  1.250000000E+02  0.00000E+00  9.000E+00
      21     1     1     2   511   501 -9.361760381E+01  1.244883502E+02 -1.122206305E+03  1.132964517E+03  1.525878906E-05  0.00000E+00  9.000E+00
#rwgt            1           1   2.3189087575408322E-002           8      276655           0
</event>
<event>
      5   9999  3.19816E-02  3.99511E+01 -1.00000E+00  1.44873E-01
      21    -1     0     0   502   501  0.000000000E+00  0.000000000E+00  3.015177126E+02  3.015177126E+02  0.000000000E+00  0.00000E+00  9.000E+00
       2    -1     0     0   501     0  0.000000000E+00  0.000000000E+00 -4.994557379E+02  4.994557379E+02  0.000000000E+00  0.00000E+00  9.000E+00
      25     1     1     2     0     0 -1.413717948E+02 -2.233177922E+02 -3.235013316E+01  2.941570189E+02  1.250000000E+02  0.00000E+00  9.000E+00
      25     1     1     2     0     0  1.798686071E+02  2.126368136E+02  3.041324774E+01  3.067850973E+02  1.250000000E+02  0.00000E+00  9.000E+00
       2     1     1     2   502     0 -3.849681223E+01  1.068097858E+01 -1.960011398E+02  2.000313342E+02  2.697398305E-06  0.00000E+00  9.000E+00
#rwgt            1           1   2.8714586186132592E-002           8      276724           0
</event>
<event>
      5   9999  3.19816E-02  8.94785E+01 -1.00000E+00  1.26039E-01
      21    -1     0     0   511   501  0.000000000E+00  0.000000000E+00  6.538388796E+02  6.538388796E+02  0.000000000E+00  0.00000E+00  9.000E+00
      21    -1     0     0   501   502  0.000000000E+00  0.000000000E+00 -1.194714140E+02  1.194714140E+02  0.000000000E+00  0.00000E+00  9.000E+00
      25     1     1     2     0     0  1.274028903E+02 -4.848398841E+01  3.121066208E+02  3.627915880E+02  1.250000000E+02  0.00000E+00  9.000E+00
      25     1     1     2     0     0 -1.954115011E+02 -9.664390270E+00  8.617075392E+01  2.476478428E+02  1.250000000E+02  0.00000E+00  9.000E+00
      21     1     1     2   511   502  6.800861085E+01  5.814837868E+01  1.360900909E+02  1.628708628E+02  1.907348633E-06  0.00000E+00  9.000E+00
#rwgt            1           1   2.6740185778555879E-002           8      276804           0
</event>
<event>
      5   9999  3.19816E-02  8.81048E+01 -1.00000E+00  1.26353E-01
      21    -1     0     0   502   501  0.000000000E+00  0.000000000E+00  1.386768786E+03  1.386768786E+03  0.000000000E+00  0.00000E+00  9.000E+00
       5    -1     0     0   501     0  0.000000000E+00  0.000000000E+00 -1.490765476E+02  1.490765476E+02  0.000000000E+00  0.00000E+00  9.000E+00
      25     1     1     2     0     0  1.190474538E+02  1.204826800E+02  1.000744435E+02  2.330842480E+02  1.250000000E+02  0.00000E+00  9.000E+00
      25     1     1     2     0     0 -1.778517298E+02 -5.487386297E+01  1.182719840E+03  1.203783037E+03  1.250000000E+02  0.00000E+00  9.000E+00
       5     1     1     2   502     0  5.880427596E+01 -6.560881703E+01 -4.510204523E+01  9.897804922E+01  2.523185073E-06  0.00000E+00  9.000E+00
#rwgt            1           1   2.6440526113990042E-002           8      276869           0
</event>
<event>
      5   9999  3.19816E-02  1.99706E+02 -1.00000E+00  1.11671E-01
      21    -1     0     0   502   501  0.000000000E+00  0.000000000E+00  4.421229986E+02  4.421229986E+02  0.000000000E+00  0.00000E+00  9.000E+00
       1    -1     0     0   501     0  0.000000000E+00  0.000000000E+00 -3.887183674E+02  3.887183674E+02  0.000000000E+00  0.00000E+00  9.000E+00
      25     1     1     2     0     0  1.728881186E+01 -1.603499417E+02  1.954937851E+02  2.825841942E+02  1.250000000E+02  0.00000E+00  9.000E+00
      25     1     1     2     0     0  1.560602050E+02  2.595093952E+02 -1.124331378E+02  3.463612626E+02  1.250000000E+02  0.00000E+00  9.000E+00
       1     1     1     2   502     0 -1.733490168E+02 -9.915945352E+01 -2.965601602E+01  2.018959092E+02  3.371747881E-07  0.00000E+00  9.000E+00
#rwgt            1           1   2.9881782869512871E-002           8      276956           0
</event>
<event>
      5   9999  3.19816E-02  8.74292E+01 -1.00000E+00  1.26510E-01
      21    -1     0     0   502   501  0.000000000E+00  0.000000000E+00  4.171731377E+02  4.171731377E+02  0.000000000E+00  0.00000E+00  9.000E+00
      -2    -1     0     0     0   502  0.000000000E+00  0.000000000E+00 -2.532987589E+03  2.532987589E+03  0.000000000E+00  0.00000E+00  9.000E+00
      25     1     1     2     0     0 -7.296665679E+02  2.329520168E+02 -8.426357269E+02  1.145574053E+03  1.250000000E+02  0.00000E+00  9.000E+00
      25     1     1     2     0     0  8.016891425E+02 -2.825161829E+02 -4.371041910E+02  9.639532917E+02  1.250000000E+02  0.00000E+00  9.000E+00
      -2     1     1     2     0   501 -7.202257452E+01  4.956416608E+01 -8.360745329E+02  8.406333816E+02  1.078959322E-05  0.00000E+00  9.000E+00
#rwgt            1           1   3.2205680675304375E-002           8      276998           0
</event>
<event>
      5   9999  3.19816E-02  2.62430E+02 -1.00000E+00  1.07515E-01
      21    -1     0     0   502   511  0.000000000E+00  0.000000000E+00  5.779246640E+02  5.779246640E+02  0.000000000E+00  0.00000E+00  9.000E+00
      21    -1     0     0   501   502  0.000000000E+00  0.000000000E+00 -6.602841944E+02  6.602841944E+02  0.000000000E+00  0.00000E+00  9.000E+00
      25     1     1     2     0     0 -1.579497773E+02 -1.759532901E+02 -1.227439324E+02  2.942766817E+02  1.250000000E+02  0.00000E+00  9.000E+00
      25     1     1     2     0     0  4.202696653E+02  1.835556934E+02 -2.626378801E+02  5.430680806E+02  1.250000000E+02  0.00000E+00  9.000E+00
      21     1     1     2   501   511 -2.623198879E+02 -7.602403288E+00  3.030222821E+02  4.008640961E+02  6.607249480E-06  0.00000E+00  9.000E+00
#rwgt            1           1   2.9061914425389232E-002           8      277127           0
</event>
<event>
      5   9999  3.19816E-02  9.06435E+01 -1.00000E+00  1.25778E-01
      21    -1     0     0   502   512  0.000000000E+00  0.000000000E+00  4.520395021E+02  4.520395021E+02  0.000000000E+00  0.00000E+00  9.000E+00
      21    -1     0     0   501   502  0.000000000E+00  0.000000000E+00 -1.501979263E+03  1.501979263E+03  0.000000000E+00  0.00000E+00  9.000E+00
      25     1     1     2     0     0  1.938848548E+02  1.126808794E+02 -6.380529482E+02  6.877680439E+02  1.250000000E+02  0.00000E+00  9.000E+00
      25     1     1     2     0     0 -1.214302530E+02 -1.671472087E+02 -8.165778377E+02  8.515326540E+02  1.250000000E+02  0.00000E+00  9.000E+00
      21     1     1     2   501   512 -7.245460184E+01  5.446632934E+01  4.046910245E+02  4.147180677E+02  1.206313194E-05  0.00000E+00  9.000E+00
#rwgt            1           1   3.7152453124888171E-002           8      277223           0
</event>
<event>
      5   9999  3.19816E-02  3.23438E+01 -1.00000E+00  1.50805E-01
      21    -1     0     0   502   501  0.000000000E+00  0.000000000E+00  3.817466300E+02  3.817466300E+02  0.000000000E+00  0.00000E+00  9.000E+00
      21    -1     0     0   501   511  0.000000000E+00  0.000000000E+00 -7.279686224E+02  7.279686224E+02  0.000000000E+00  0.00000E+00  9.000E+00
      25     1     1     2     0     0 -2.718751741E+02  1.748394738E+02 -1.809541902E+02  3.909659459E+02  1.250000000E+02  0.00000E+00  9.000E+00
      25     1     1     2     0     0  2.537955954E+02 -2.016583570E+02  1.666038688E+02  3.853052638E+02  1.250000000E+02  0.00000E+00  9.000E+00
      21     1     1     2   502   511  1.807957864E+01  2.681888314E+01 -3.318716710E+02  3.334440428E+02  3.814697266E-06  0.00000E+00  9.000E+00
#rwgt            1           1   2.9132361233082011E-002           8      277278           0
</event>
<event>
      5   9999  3.19816E-02  3.15161E+02 -1.00000E+00  1.04901E-01
      21    -1     0     0   512   501  0.000000000E+00  0.000000000E+00  1.252077460E+03  1.252077460E+03  0.000000000E+00  0.00000E+00  9.000E+00
      21    -1     0     0   501   502  0.000000000E+00  0.000000000E+00 -2.959682045E+02  2.959682045E+02  0.000000000E+00  0.00000E+00  9.000E+00
      25     1     1     2     0     0 -1.872005435E+01  4.308646140E+02  4.228123359E+01  4.510071604E+02  1.250000000E+02  0.00000E+00  9.000E+00
      25     1     1     2     0     0  1.199220130E+02 -1.323945541E+02  1.339455475E+02  2.558828186E+02  1.250000000E+02  0.00000E+00  9.000E+00
      21     1     1     2   512   502 -1.012019586E+02 -2.984700599E+02  7.798824741E+02  8.411556851E+02  1.525878906E-05  0.00000E+00  9.000E+00
#rwgt            1           1   2.9062128615289506E-002           8      277367           0
</event>
<event>
      5   9999  3.19816E-02  6.26342E+01 -1.00000E+00  1.33714E-01
      -1    -1     0     0     0   501  0.000000000E+00  0.000000000E+00  1.186426759E+03  1.186426759E+03  0.000000000E+00  0.00000E+00  9.000E+00
      21    -1     0     0   501   502  0.000000000E+00  0.000000000E+00 -9.701184492E+01  9.701184492E+01  0.000000000E+00  0.00000E+00  9.000E+00
      25     1     1     2     0     0  2.148927496E+02  1.557750982E+02  3.324625218E+02  4.433972299E+02  1.250000000E+02  0.00000E+00  9.000E+00
      25     1     1     2     0     0 -1.740431750E+02 -1.082950356E+02  3.276825737E+02  4.062261816E+02  1.250000000E+02  0.00000E+00  9.000E+00
      -1     1     1     2     0   502 -4.084957458E+01 -4.748006255E+01  4.292698190E+02  4.338151929E+02  5.394796609E-06  0.00000E+00  9.000E+00
#rwgt            1           1   2.7882315313698759E-002           8      277411           0
</event>
<event>
      5   9999  3.19816E-02  9.34721E+01 -1.00000E+00  1.25161E-01
      21    -1     0     0   511   501  0.000000000E+00  0.000000000E+00  1.198804269E+03  1.198804269E+03  0.000000000E+00  0.00000E+00  9.000E+00
      21    -1     0     0   501   502  0.000000000E+00  0.000000000E+00 -2.585038551E+02  2.585038551E+02  0.000000000E+00  0.00000E+00  9.000E+00
      25     1     1     2     0     0 -4.651847607E+02  1.335232192E+02  6.441485030E+02  8.153389513E+02  1.250000000E+02  0.00000E+00  9.000E+00
      25     1     1     2     0     0  3.736221177E+02 -1.523198490E+02  1.144401309E+02  4.376258297E+02  1.250000000E+02  0.00000E+00  9.000E+00
      21     1     1     2   511   502  9.156264297E+01  1.879662977E+01  1.817117801E+02  2.043433432E+02  0.000000000E+00  0.00000E+00  9.000E+00
#rwgt            1           1   2.8128005749521599E-002           8      277490           0
</event>
<event>
      5   9999  3.19816E-02  4.33967E+01 -1.00000E+00  1.42679E-01
      21    -1     0     0   502   501  0.000000000E+00  0.000000000E+00  1.116682324E+02  1.116682324E+02  0.000000000E+00  0.00000E+00  9.000E+00
      21    -1     0     0   512   502  0.000000000E+00  0.000000000E+00 -3.063324665E+03  3.063324665E+03  0.000000000E+00  0.00000E+00  9.000E+00
      25     1     1     2     0     0 -1.846336753E+02  2.552912558E+02 -2.167128130E+03  2.193474994E+03  1.250000000E+02  0.00000E+00  9.000E+00
      25     1     1     2     0     0  1.712616237E+02 -2.140061130E+02 -1.342851541E+02  3.298282322E+02  1.250000000E+02  0.00000E+00  9.000E+00
      21     1     1     2   512   501  1.337205163E+01 -4.128514285E+01 -6.502431486E+02  6.516896708E+02  1.078959322E-05  0.00000E+00  9.000E+00
#rwgt            1           1   2.3954013513987887E-002           8      277577           0
</event>
<event>
      5   9999  3.19816E-02  7.74834E+01 -1.00000E+00  1.29025E-01
      21    -1     0     0   502   501  0.000000000E+00  0.000000000E+00  4.303314259E+02  4.303314259E+02  0.000000000E+00  0.00000E+00  9.000E+00
       2    -1     0     0   501     0  0.000000000E+00  0.000000000E+00 -7.283147639E+02  7.283147639E+02  0.000000000E+00  0.00000E+00  9.000E+00
      25     1     1     2     0     0 -2.817078839E+02 -9.126984715E+01 -2.798232462E+02  4.261637783E+02  1.250000000E+02  0.00000E+00  9.000E+00
      25     1     1     2     0     0  2.940243120E+02  1.677681334E+02  2.593284589E+02  4.443789961E+02  1.250000000E+02  0.00000E+00  9.000E+00
       2     1     1     2   502     0 -1.231642807E+01 -7.649828621E+01 -2.774885507E+02  2.881034154E+02  0.000000000E+00  0.00000E+00  9.000E+00
#rwgt            1           1   2.7349160005429952E-002           8      277703           0
</event>
<event>
      5   9999  3.19816E-02  2.72742E+02 -1.00000E+00  1.06954E-01
      21    -1     0     0   502   511  0.000000000E+00  0.000000000E+00  4.603429504E+02  4.603429504E+02  0.000000000E+00  0.00000E+00  9.000E+00
      21    -1     0     0   501   502  0.000000000E+00  0.000000000E+00 -1.041278006E+03  1.041278006E+03  0.000000000E+00  0.00000E+00  9.000E+00
      25     1     1     2     0     0 -4.676021408E+02  2.932165415E+02 -2.899628053E+02  6.358703726E+02  1.250000000E+02  0.00000E+00  9.000E+00
      25     1     1     2     0     0  2.403286993E+02 -4.439977057E+02 -2.847051112E+02  5.929366296E+02  1.250000000E+02  0.00000E+00  9.000E+00
      21     1     1     2   501   511  2.272734415E+02  1.507811642E+02 -6.267139251E+00  2.728139544E+02  5.330535058E-06  0.00000E+00  9.000E+00
#rwgt            1           1   3.1372540453141487E-002           8      277799           0
</event>
<event>
      5   9999  3.19816E-02  1.09334E+02 -1.00000E+00  1.22110E-01
      21    -1     0     0   502   501  0.000000000E+00  0.000000000E+00  1.670534802E+03  1.670534802E+03  0.000000000E+00  0.00000E+00  9.000E+00
      21    -1     0     0   501   512  0.000000000E+00  0.000000000E+00 -4.461442182E+01  4.461442182E+01  0.000000000E+00  0.00000E+00  9.000E+00
      25     1     1     2     0     0  5.782816012E+01  1.230771714E+02  2.749155894E+02  3.312033628E+02  1.250000000E+02  0.00000E+00  9.000E+00
      25     1     1     2     0     0  4.954268756E+01 -1.024534850E+02  1.053718589E+03  1.067192137E+03  1.250000000E+02  0.00000E+00  9.000E+00
      21     1     1     2   502   512 -1.073708477E+02 -2.062368632E+01  2.972862027E+02  3.167537240E+02  5.394796609E-06  0.00000E+00  9.000E+00
#rwgt            1           1   2.5949875936153909E-002           8      277829           0
</event>
<event>
      5   9999  3.19816E-02  1.63959E+01 -1.00000E+00  1.73819E-01
       2    -1     0     0   502     0  0.000000000E+00  0.000000000E+00  2.481973387E+03  2.481973387E+03  0.000000000E+00  0.00000E+00  9.000E+00
      21    -1     0     0   501   502  0.000000000E+00  0.000000000E+00 -3.724012751E+02  3.724012751E+02  0.000000000E+00  0.00000E+00  9.000E+00
      25     1     1     2     0     0  1.742190153E+02  7.309248955E+01  3.568516905E+01  2.293320924E+02  1.250000000E+02  0.00000E+00  9.000E+00
      25     1     1     2     0     0 -1.901602766E+02 -7.692683384E+01 -2.231951080E+02  3.279020049E+02  1.250000000E+02  0.00000E+00  9.000E+00
       2     1     1     2   501     0  1.594126133E+01  3.834344290E+00  2.297082051E+03  2.297140565E+03  0.000000000E+00  0.00000E+00  9.000E+00
#rwgt            1           1   2.4298113464016838E-002           8      277877           0
</event>
<event>
      5   9999  3.19816E-02  2.85165E+02 -1.00000E+00  1.06313E-01
      21    -1     0     0   502   501  0.000000000E+00  0.000000000E+00  6.382977867E+02  6.382977867E+02  0.000000000E+00  0.00000E+00  9.000E+00
      21    -1     0     0   511   502  0.000000000E+00  0.000000000E+00 -5.982837876E+02  5.982837876E+02  0.000000000E+00  0.00000E+00  9.000E+00
      25     1     1     2     0     0 -1.080975016E+02 -3.996292225E+00  4.460363033E+02  4.756831130E+02  1.250000000E+02  0.00000E+00  9.000E+00
      25     1     1     2     0     0  1.677513632E+02  2.828523442E+02 -1.700140097E+02  3.907374207E+02  1.250000000E+02  0.00000E+00  9.000E+00
      21     1     1     2   511   501 -5.965386156E+01 -2.788560520E+02 -2.360082945E+02  3.701610406E+02  2.697398305E-06  0.00000E+00  9.000E+00
#rwgt            2          11   3.6001163926057183E-003           8      278108           0
</event>
<event>
      5   9999  3.19816E-02  4.94433E+01 -1.00000E+00  1.39354E-01
      21    -1     0     0   512   501  0.000000000E+00  0.000000000E+00  6.436600368E+02  6.436600368E+02  0.000000000E+00  0.00000E+00  9.000E+00
      21    -1     0     0   501   502  0.000000000E+00  0.000000000E+00 -2.964454396E+02  2.964454396E+02  0.000000000E+00  0.00000E+00  9.000E+00
      25     1     1     2     0     0 -1.534882517E+02  1.014048463E+02 -2.070309125E+02  3.038558622E+02  1.250000000E+02  0.00000E+00  9.000E+00
      25     1     1     2     0     0  2.027477429E+02 -9.714528527E+01  4.125478606E+02  4.861734166E+02  1.250000000E+02  0.00000E+00  9.000E+00
      21     1     1     2   512   502 -4.925949119E+01 -4.259561066E+00  1.416976491E+02  1.500761976E+02  1.907348633E-06  0.00000E+00  9.000E+00
#rwgt            1           1   2.4793366954850453E-002           8      278143           0
</event>
<event>
      5   9999  3.19816E-02  7.10290E+01 -1.00000E+00  1.30901E-01
      21    -1     0     0   502   511  0.000000000E+00  0.000000000E+00  1.247099577E+03  1.247099577E+03  0.000000000E+00  0.00000E+00  9.000E+00
      21    -1     0     0   501   502  0.000000000E+00  0.000000000E+00 -1.109205897E+03  1.109205897E+03  0.000000000E+00  0.00000E+00  9.000E+00
      25     1     1     2     0     0  3.751937753E+02 -6.664395595E+02 -4.698346124E+02  9.062458930E+02  1.250000000E+02  0.00000E+00  9.000E+00
      25     1     1     2     0     0 -4.457788768E+02  6.585107133E+02 -3.276612038E+01  8.056387436E+02  1.250000000E+02  0.00000E+00  9.000E+00
      21     1     1     2   501   511  7.058510153E+01  7.928846222E+00  6.404944122E+02  6.444208371E+02  1.078959322E-05  0.00000E+00  9.000E+00
#rwgt            2          11   4.5587108281387716E-003           8      278276           0
</event>
<event>
      5   9999  3.19816E-02  5.54759E+01 -1.00000E+00  1.36548E-01
      21    -1     0     0   502   512  0.000000000E+00  0.000000000E+00  2.410873534E+02  2.410873534E+02  0.000000000E+00  0.00000E+00  9.000E+00
      21    -1     0     0   501   502  0.000000000E+00  0.000000000E+00 -3.335162466E+02  3.335162466E+02  0.000000000E+00  0.00000E+00  9.000E+00
      25     1     1     2     0     0  1.310644942E+02  1.308715744E+02  4.350260825E+01  2.276461015E+02  1.250000000E+02  0.00000E+00  9.000E+00
      25     1     1     2     0     0 -1.148597929E+02 -1.839280111E+02 -1.471688591E+02  2.903548835E+02  1.250000000E+02  0.00000E+00  9.000E+00
      21     1     1     2   501   512 -1.620470130E+01  5.305643673E+01  1.123735767E+01  5.660261504E+01  7.444617746E-07  0.00000E+00  9.000E+00
#rwgt            1           1   2.6374632398020438E-002           8      278326           0
</event>
<event>
      5   9999  3.19816E-02  2.78059E+01 -1.00000E+00  1.55367E-01
      21    -1     0     0   502   501  0.000000000E+00  0.000000000E+00  8.956311114E+01  8.956311114E+01  0.000000000E+00  0.00000E+00  9.000E+00
      21    -1     0     0   511   502  0.000000000E+00  0.000000000E+00 -1.111388873E+03  1.111388873E+03  0.000000000E+00  0.00000E+00  9.000E+00
      25     1     1     2     0     0  2.400653173E+02 -1.243412319E+02 -6.292989790E+02  6.962286288E+02  1.250000000E+02  0.00000E+00  9.000E+00
      25     1     1     2     0     0 -2.138968115E+02  1.337420374E+02 -3.156072694E+02  4.229322960E+02  1.250000000E+02  0.00000E+00  9.000E+00
      21     1     1     2   511   501 -2.616850584E+01 -9.400805536E+00 -7.691951389E+01  8.179105978E+01  1.348699152E-06  0.00000E+00  9.000E+00
#rwgt            1           1   2.7390396024652628E-002           8      278380           0
</event>
<event>
      5   9999  3.19816E-02  9.18552E+01 -1.00000E+00  1.25510E-01
      21    -1     0     0   502   512  0.000000000E+00  0.000000000E+00  5.370727008E+02  5.370727008E+02  0.000000000E+00  0.00000E+00  9.000E+00
      21    -1     0     0   501   502  0.000000000E+00  0.000000000E+00 -2.068692664E+02  2.068692664E+02  0.000000000E+00  0.00000E+00  9.000E+00
      25     1     1     2     0     0 -1.072632736E+02 -2.727098909E+02  8.769036048E+01  3.304401516E+02  1.250000000E+02  0.00000E+00  9.000E+00
      25     1     1     2     0     0  8.650767376E+01  1.832303461E+02  1.414368531E+02  2.769229510E+02  1.250000000E+02  0.00000E+00  9.000E+00
      21     1     1     2   501   512  2.075559988E+01  8.947954476E+01  1.010762208E+02  1.365788647E+02  0.000000000E+00  0.00000E+00  9.000E+00
#rwgt            1           1   2.9125681470539032E-002           8      278506           0
</event>
<event>
      5   9999  3.19816E-02  7.64078E+01 -1.00000E+00  1.29323E-01
      21    -1     0     0   502   511  0.000000000E+00  0.000000000E+00  1.553263976E+02  1.553263976E+02  0.000000000E+00  0.00000E+00  9.000E+00
      21    -1     0     0   501   502  0.000000000E+00  0.000000000E+00 -2.697440207E+03  2.697440207E+03  0.000000000E+00  0.00000E+00  9.000E+00
      25     1     1     2     0     0  2.621575937E+02  4.536450711E+01 -3.238341767E+02  4.373535372E+02  1.250000000E+02  0.00000E+00  9.000E+00
      25     1     1     2     0     0 -2.599332551E+02  3.101087372E+01 -2.291379558E+03  2.309669294E+03  1.250000000E+02  0.00000E+00  9.000E+00
      21     1     1     2   501   511 -2.224338598E+00 -7.637538082E+01  7.309992513E+01  1.057437730E+02  3.015782986E-06  0.00000E+00  9.000E+00
#rwgt            1           1   6.2591132442634367E-002           8      278552           0
</event>
<event>
      5   9999  3.19816E-02  2.24867E+02 -1.00000E+00  1.09826E-01
      21    -1     0     0   502   501  0.000000000E+00  0.000000000E+00  2.046176320E+03  2.046176320E+03  0.000000000E+00  0.00000E+00  9.000E+00
      21    -1     0     0   501   512  0.000000000E+00  0.000000000E+00 -2.005284963E+03  2.005284963E+03  0.000000000E+00  0.00000E+00  9.000E+00
      25     1     1     2     0     0 -5.479925076E+02 -7.216916405E+02  1.841132557E+02  9.330901903E+02  1.250000000E+02  0.00000E+00  9.000E+00
      25     1     1     2     0     0  7.724343628E+02  7.078663423E+02  1.290593803E+03  1.667029384E+03  1.250000000E+02  0.00000E+00  9.000E+00
      21     1     1     2   502   512 -2.244418552E+02  1.382529820E+01 -1.433815703E+03  1.451341708E+03  1.525878906E-05  0.00000E+00  9.000E+00
#rwgt            1           1   2.7095595769685267E-002           8      278646           0
</event>
<event>
      5   9999  3.19816E-02  1.91157E+02 -1.00000E+00  1.12368E-01
      21    -1     0     0   502   501  0.000000000E+00  0.000000000E+00  2.499803473E+02  2.499803473E+02  0.000000000E+00  0.00000E+00  9.000E+00
      21    -1     0     0   511   502  0.000000000E+00  0.000000000E+00 -1.009322955E+03  1.009322955E+03  0.000000000E+00  0.00000E+00  9.000E+00
      25     1     1     2     0     0 -7.615953257E+01  1.195605797E+02 -1.148815996E+02  2.211736615E+02  1.250000000E+02  0.00000E+00  9.000E+00
      25     1     1     2     0     0  1.966044274E+02 -2.679995710E+02  1.108492631E+01  3.552815032E+02  1.250000000E+02  0.00000E+00  9.000E+00
      21     1     1     2   511   501 -1.204448948E+02  1.484389914E+02 -6.555459348E+02  6.828481380E+02  1.321449896E-05  0.00000E+00  9.000E+00
#rwgt            1           1   2.9429302448821408E-002           8      278706           0
</event>
<event>
      5   9999  3.19816E-02  2.36967E+02 -1.00000E+00  1.09031E-01
      21    -1     0     0   502   501  0.000000000E+00  0.000000000E+00  2.821801819E+03  2.821801819E+03  0.000000000E+00  0.00000E+00  9.000E+00
      21    -1     0     0   501   512  0.000000000E+00  0.000000000E+00 -4.739395919E+02  4.739395919E+02  0.000000000E+00  0.00000E+00  9.000E+00
      25     1     1     2     0     0  4.222821578E+02  6.093302151E+02  3.336323856E+02  8.225211855E+02  1.250000000E+02  0.00000E+00  9.000E+00
      25     1     1     2     0     0 -5.472104715E+02 -8.106910359E+02  2.007000769E+03  2.236143185E+03  1.250000000E+02  0.00000E+00  9.000E+00
      21     1     1     2   502   512  1.249283136E+02  2.013608208E+02  7.229072492E+00  2.370770406E+02  2.782968886E-06  0.00000E+00  9.000E+00
#rwgt            2          11   7.7414898933883553E-003           8      278778           0
</event>
<event>
      5   9999  3.19816E-02  1.64476E+01 -1.00000E+00  1.73695E-01
      21    -1     0     0   502   501  0.000000000E+00  0.000000000E+00  6.513534128E+02  6.513534128E+02  0.000000000E+00  0.00000E+00  9.000E+00
      21    -1     0     0   501   511  0.000000000E+00  0.000000000E+00 -8.858842111E+02  8.858842111E+02  0.000000000E+00  0.00000E+00  9.000E+00
      25     1     1     2     0     0 -1.653185690E+02 -3.572284151E+02  3.801152588E+02  5.612975857E+02  1.250000000E+02  0.00000E+00  9.000E+00
      25     1     1     2     0     0  1.505299818E+02  3.500296634E+02 -4.215715379E+01  4.032149133E+02  1.250000000E+02  0.00000E+00  9.000E+00
      21     1     1     2   502   511  1.478858716E+01  7.198751707E+00 -5.724889033E+02  5.727251249E+02  1.078959322E-05  0.00000E+00  9.000E+00
#rwgt            1           1   2.4770780689812061E-002           8      278813           0
</event>
<event>
      5   9999  3.19816E-02  4.90556E+01 -1.00000E+00  1.39550E-01
       1    -1     0     0   502     0  0.000000000E+00  0.000000000E+00  2.929070719E+03  2.929070719E+03  0.000000000E+00  0.00000E+00  9.000E+00
      21    -1     0     0   501   502  0.000000000E+00  0.000000000E+00 -5.145389066E+02  5.145389066E+02  0.000000000E+00  0.00000E+00  9.000E+00
      25     1     1     2     0     0  4.556399102E+02 -3.381541509E+02  8.227225501E+02  1.007200751E+03  1.250000000E+02  0.00000E+00  9.000E+00
      25     1     1     2     0     0 -4.736550843E+02  3.837820173E+02 -1.925213536E+02  6.514040584E+02  1.250000000E+02  0.00000E+00  9.000E+00
       1     1     1     2   501     0  1.801517404E+01 -4.562786637E+01  1.784330616E+03  1.785004817E+03  2.157918644E-05  0.00000E+00  9.000E+00
#rwgt            1           1   2.9916263860897612E-002           8      279040           0
</event>
<event>
      5   9999  3.19816E-02  9.83006E+00 -1.00000E+00  1.96622E-01
      21    -1     0     0   502   511  0.000000000E+00  0.000000000E+00  5.963940733E+02  5.963940733E+02  0.000000000E+00  0.00000E+00  9.000E+00
      21    -1     0     0   501   502  0.000000000E+00  0.000000000E+00 -6.480232262E+02  6.480232262E+02  0.000000000E+00  0.00000E+00  9.000E+00
      25     1     1     2     0     0  3.298990264E+01  6.477699740E+00  4.415944283E+01  1.367675059E+02  1.250000000E+02  0.00000E+00  9.000E+00
      25     1     1     2     0     0 -2.622605218E+01 -1.361074847E+01 -5.948156882E+02  6.085258920E+02  1.250000000E+02  0.00000E+00  9.000E+00
      21     1     1     2   501   511 -6.763850454E+00  7.133048730E+00  4.990270925E+02  4.991239016E+02  7.629394531E-06  0.00000E+00  9.000E+00
#rwgt            1           1   3.3540756788719539E-002           8      279226           0
</event>
<event>
      5   9999  3.19816E-02  9.94969E+00 -1.00000E+00  1.96011E-01
      21    -1     0     0   502   501  0.000000000E+00  0.000000000E+00  8.394412944E+01  8.394412944E+01  0.000000000E+00  0.00000E+00  9.000E+00
      21    -1     0     0   512   502  0.000000000E+00  0.000000000E+00 -6.407601823E+02  6.407601823E+02  0.000000000E+00  0.00000E+00  9.000E+00
      25     1     1     2     0     0 -2.675218022E+01  4.513176442E+01  1.407752663E+01  1.362928174E+02  1.250000000E+02  0.00000E+00  9.000E+00
      25     1     1     2     0     0  2.622544611E+01 -3.519602196E+01 -5.356675521E+02  5.518072674E+02  1.250000000E+02  0.00000E+00  9.000E+00
      21     1     1     2   512   501  5.267341157E-01 -9.935742454E+00 -3.522602741E+01  3.660422699E+01  4.768371582E-07  0.00000E+00  9.000E+00
#rwgt            1           1   2.9659632460011714E-002           8      279482           0
</event>
<event>
      5   9999  3.19816E-02  8.59422E+01 -1.00000E+00  1.26861E-01
      21    -1     0     0   511   501  0.000000000E+00  0.000000000E+00  1.054861234E+03  1.054861234E+03  0.000000000E+00  0.00000E+00  9.000E+00
      21    -1     0     0   501   502  0.000000000E+00  0.000000000E+00 -3.852526773E+02  3.852526773E+02  0.000000000E+00  0.00000E+00  9.000E+00
      25     1     1     2     0     0 -1.998165848E+02 -4.518400774E+02 -6.680863026E+01  5.139791009E+02  1.250000000E+02  0.00000E+00  9.000E+00
      25     1     1     2     0     0  1.235686831E+02  4.121876627E+02  4.844435902E+02  6.599079336E+02  1.250000000E+02  0.00000E+00  9.000E+00
      21     1     1     2   511   502  7.624790179E+01  3.965241470E+01  2.519735967E+02  2.662268768E+02  3.814697266E-06  0.00000E+00  9.000E+00
#rwgt            1           1   3.0530018051341021E-002           8      279691           0
</event>
<event>
      5   9999  3.19816E-02  7.90671E+01 -1.00000E+00  1.28597E-01
      21    -1     0     0   502   501  0.000000000E+00  0.000000000E+00  8.913983392E+02  8.913983392E+02  0.000000000E+00  0.00000E+00  9.000E+00
       2    -1     0     0   501     0  0.000000000E+00  0.000000000E+00 -5.434735312E+02  5.434735312E+02  0.000000000E+00  0.00000E+00  9.000E+00
      25     1     1     2     0     0 -3.164854292E+02 -7.954807313E+01  2.883669699E+02  4.530689044E+02  1.250000000E+02  0.00000E+00  9.000E+00
      25     1     1     2     0     0  2.587701537E+02  1.335901797E+02  4.683163954E+02  5.654675718E+02  1.250000000E+02  0.00000E+00  9.000E+00
       2     1     1     2   502     0  5.771527554E+01 -5.404210653E+01 -4.087585573E+02  4.163353942E+02  7.629394531E-06  0.00000E+00  9.000E+00
#rwgt            1           1   3.0852024494687179E-002           8      279759           0
</event>
<event>
      5   9999  3.19816E-02  4.82316E+01 -1.00000E+00  1.39974E-01
      21    -1     0     0   511   501  0.000000000E+00  0.000000000E+00  3.932334305E+01  3.932334305E+01  0.000000000E+00  0.00000E+00  9.000E+00
      21    -1     0     0   501   502  0.000000000E+00  0.000000000E+00 -1.266813334E+03  1.266813334E+03  0.000000000E+00  0.00000E+00  9.000E+00
      25     1     1     2     0     0 -5.344841300E+01  1.557796589E+02 -5.858440828E+02  6.212586614E+02  1.250000000E+02  0.00000E+00  9.000E+00
      25     1     1     2     0     0  1.242227758E+01 -1.304193999E+02 -5.733778158E+02  6.012908219E+02  1.250000000E+02  0.00000E+00  9.000E+00
      21     1     1     2   511   502  4.102613542E+01 -2.536025898E+01 -6.826809206E+01  8.358719350E+01  0.000000000E+00  0.00000E+00  9.000E+00
#rwgt            1           1   2.9126031718257974E-002           8      279849           0
</event>
<event>
      5   9999  3.19816E-02  2.75968E+01 -1.00000E+00  1.55602E-01
      21    -1     0     0   502   501  0.000000000E+00  0.000000000E+00  5.337433075E+02  5.337433075E+02  0.000000000E+00  0.00000E+00  9.000E+00
      21    -1     0     0   512   502  0.000000000E+00  0.000000000E+00 -2.297337728E+03  2.297337728E+03  0.000000000E+00  0.00000E+00  9.000E+00
      25     1     1     2     0     0 -6.862611056E+02  6.321523888E+02 -1.229887460E+03  1.548812162E+03  1.250000000E+02  0.00000E+00  9.000E+00
      25     1     1     2     0     0  7.116648606E+02 -6.429336330E+02 -2.523583418E+02  9.995700391E+02  1.250000000E+02  0.00000E+00  9.000E+00
      21     1     1     2   512   501 -2.540375502E+01  1.078124421E+01 -2.813486188E+02  2.826988350E+02  5.394796609E-06  0.00000E+00  9.000E+00
#rwgt            1           1   2.8712945765160137E-002           8      279899           0
</event>
<event>
      5   9999  3.19816E-02  1.16734E+02 -1.00000E+00  1.20879E-01
      21    -1     0     0   502   501  0.000000000E+00  0.000000000E+00  1.785353050E+02  1.785353050E+02  0.000000000E+00  0.00000E+00  9.000E+00
      21    -1     0     0   501   511  0.000000000E+00  0.000000000E+00 -5.686546325E+02  5.686546325E+02  0.000000000E+00  0.00000E+00  9.000E+00
      25     1     1     2     0     0  4.396800009E+01 -1.371270013E+02 -1.988377608E+02  2.754967416E+02  1.250000000E+02  0.00000E+00  9.000E+00
      25     1     1     2     0     0 -8.441517358E+01  2.466302300E+02 -5.861367334E+01  2.949795833E+02  1.250000000E+02  0.00000E+00  9.000E+00
      21     1     1     2   502   511  4.044717349E+01 -1.095032287E+02 -1.326678934E+02  1.767136126E+02  3.814697266E-06  0.00000E+00  9.000E+00
#rwgt            1           1   2.8297860493531120E-002           8      280105           0
</event>
<event>
      5   9999  3.19816E-02  2.95627E+01 -1.00000E+00  1.53484E-01
      21    -1     0     0   502   501  0.000000000E+00  0.000000000E+00  5.343931149E+02  5.343931149E+02  0.000000000E+00  0.00000E+00  9.000E+00
       2    -1     0     0   501     0  0.000000000E+00  0.000000000E+00 -9.029870165E+02  9.029870165E+02  0.000000000E+00  0.00000E+00  9.000E+00
      25     1     1     2     0     0 -5.679440745E+02 -1.601308808E+02 -3.984443378E+02  7.229005887E+02  1.250000000E+02  0.00000E+00  9.000E+00
      25     1     1     2     0     0  5.621440835E+02  1.891189921E+02  1.214910935E+02  6.181885226E+02  1.250000000E+02  0.00000E+00  9.000E+00
       2     1     1     2   502     0  5.799991082E+00 -2.898811132E+01 -9.164065722E+01  9.629102009E+01  1.348699152E-06  0.00000E+00  9.000E+00
#rwgt            1           1   3.0925099163340550E-002           8      280157           0
</event>
<event>
      5   9999  3.19816E-02  1.50594E+03 -1.00000E+00  8.69170E-02
       2    -1     0     0   502     0  0.000000000E+00  0.000000000E+00  2.097716646E+03  2.097716646E+03  0.000000000E+00  0.00000E+00  9.000E+00
      21    -1     0     0   501   502  0.000000000E+00  0.000000000E+00 -2.478749122E+03  2.478749122E+03  0.000000000E+00  0.00000E+00  9.000E+00
      25     1     1     2     0     0  8.267212783E+02  1.575869434E+02 -1.832065333E+02  8.703397903E+02  1.250000000E+02  0.00000E+00  9.000E+00
      25     1     1     2     0     0 -1.694081619E+03 -1.388664026E+03 -1.559375401E+02  2.199600378E+03  1.250000000E+02  0.00000E+00  9.000E+00
       2     1     1     2   501     0  8.673603406E+02  1.231077083E+03 -4.188840275E+01  1.506525599E+03  1.053367712E-05  0.00000E+00  9.000E+00
#rwgt            2          18   6.4658364321156761E-004           8      280348           0
</event>
<event>
      5   9999  3.19816E-02  2.75246E+01 -1.00000E+00  1.55684E-01
      21    -1     0     0   502   501  0.000000000E+00  0.000000000E+00  2.867055188E+02  2.867055188E+02  0.000000000E+00  0.00000E+00  9.000E+00
       2    -1     0     0   501     0  0.000000000E+00  0.000000000E+00 -5.109792448E+02  5.109792448E+02  0.000000000E+00  0.00000E+00  9.000E+00
      25     1     1     2     0     0  2.216581712E+02  3.936283846E+00 -3.094219920E+02  4.006429936E+02  1.250000000E+02  0.00000E+00  9.000E+00
      25     1     1     2     0     0 -2.004480708E+02  1.360609281E+01  1.806212428E+02  2.976803456E+02  1.250000000E+02  0.00000E+00  9.000E+00
       2     1     1     2   502     0 -2.121010044E+01 -1.754237665E+01 -9.547297675E+01  9.936142425E+01  1.348699152E-06  0.00000E+00  9.000E+00
#rwgt            1           1   2.4278801461862259E-002           8      280397           0
</event>
<event>
      5   9999  3.19816E-02  4.27298E+02 -1.00000E+00  1.00830E-01
      21    -1     0     0   502   501  0.000000000E+00  0.000000000E+00  1.778714953E+02  1.778714953E+02  0.000000000E+00  0.00000E+00  9.000E+00
       2    -1     0     0   501     0  0.000000000E+00  0.000000000E+00 -4.302008232E+03  4.302008232E+03  0.000000000E+00  0.00000E+00  9.000E+00
      25     1     1     2     0     0  5.438410110E+02  3.722326785E+02 -1.864304000E+03  1.981306291E+03  1.250000000E+02  0.00000E+00  9.000E+00
      25     1     1     2     0     0 -2.606110405E+02 -5.228850175E+01 -1.213352823E+02  3.178041104E+02  1.250000000E+02  0.00000E+00  9.000E+00
       2     1     1     2   502     0 -2.832299705E+02 -3.199441768E+02 -2.138497454E+03  2.180769326E+03  3.051757812E-05  0.00000E+00  9.000E+00
#rwgt            2          13   8.6675761143162702E-004           8      280633           0
</event>
<event>
      5   9999  3.19816E-02  5.27293E+01 -1.00000E+00  1.37771E-01
      21    -1     0     0   502   501  0.000000000E+00  0.000000000E+00  5.181151727E+02  5.181151727E+02  0.000000000E+00  0.00000E+00  9.000E+00
      21    -1     0     0   501   511  0.000000000E+00  0.000000000E+00 -5.250690879E+02  5.250690879E+02  0.000000000E+00  0.00000E+00  9.000E+00
      25     1     1     2     0     0  3.474539744E+02  2.862938745E+02  7.826088521E+01  4.737491035E+02  1.250000000E+02  0.00000E+00  9.000E+00
      25     1     1     2     0     0 -3.620221910E+02 -3.369707416E+02 -8.119367680E+01  5.165527665E+02  1.250000000E+02  0.00000E+00  9.000E+00
      21     1     1     2   502   511  1.456821656E+01  5.067686707E+01 -4.021123668E+00  5.288239051E+01  1.047754039E-06  0.00000E+00  9.000E+00
#rwgt            1           1   3.1896343686114499E-002           8      280652           0
</event>
<event>
      5   9999  3.19816E-02  9.04941E+00 -1.00000E+00  2.00909E-01
      21    -1     0     0   502   501  0.000000000E+00  0.000000000E+00  8.383246028E+02  8.383246028E+02  0.000000000E+00  0.00000E+00  9.000E+00
       1    -1     0     0   501     0  0.000000000E+00  0.000000000E+00 -2.363710282E+03  2.363710282E+03  0.000000000E+00  0.00000E+00  9.000E+00
      25     1     1     2     0     0 -1.037311270E+01 -1.004882522E+02  5.220616969E+02  5.462407031E+02  1.250000000E+02  0.00000E+00  9.000E+00
      25     1     1     2     0     0  1.714354219E+01  9.448382765E+01  2.837430355E+02  3.245862057E+02  1.250000000E+02  0.00000E+00  9.000E+00
       1     1     1     2   502     0 -6.770429494E+00  6.004424507E+00 -2.331190412E+03  2.331207976E+03  0.000000000E+00  0.00000E+00  9.000E+00
#rwgt            1           1   2.6446756450575183E-002           8      280769           0
</event>
<event>
      5   9999  3.19816E-02  1.03209E+02 -1.00000E+00  1.23214E-01
      21    -1     0     0   502   501  0.000000000E+00  0.000000000E+00  7.064717356E+02  7.064717356E+02  0.000000000E+00  0.00000E+00  9.000E+00
      21    -1     0     0   501   511  0.000000000E+00  0.000000000E+00 -1.013116672E+03  1.013116672E+03  0.000000000E+00  0.00000E+00  9.000E+00
      25     1     1     2     0     0  1.280485956E+02  6.065040696E+02 -5.326466728E+02  8.267896391E+02  1.250000000E+02  0.00000E+00  9.000E+00
      25     1     1     2     0     0 -1.611758232E+02 -7.042517085E+02  2.690119524E+02  7.809869048E+02  1.250000000E+02  0.00000E+00  9.000E+00
      21     1     1     2   502   511  3.312722765E+01  9.774763893E+01 -4.301021557E+01  1.118118633E+02  1.581489940E-06  0.00000E+00  9.000E+00
#rwgt            1           1   2.7412630174411815E-002           8      280958           0
</event>
<event>
      5   9999  3.19816E-02  6.30532E+01 -1.00000E+00  1.33562E-01
      21    -1     0     0   512   501  0.000000000E+00  0.000000000E+00  1.242644821E+02  1.242644821E+02  0.000000000E+00  0.00000E+00  9.000E+00
      21    -1     0     0   501   502  0.000000000E+00  0.000000000E+00 -2.972856434E+03  2.972856434E+03  0.000000000E+00  0.00000E+00  9.000E+00
      25     1     1     2     0     0 -3.848629302E+01 -2.969388305E+01  2.563543018E+01  1.365470495E+02  1.250000000E+02  0.00000E+00  9.000E+00
      25     1     1     2     0     0  1.012212323E+02  3.602084235E+01 -2.890707221E+03  2.895402645E+03  1.250000000E+02  0.00000E+00  9.000E+00
      21     1     1     2   512   502 -6.273493929E+01 -6.326959303E+00  1.647983906E+01  6.517122154E+01  1.668930054E-06  0.00000E+00  9.000E+00
#rwgt            1           1   5.2171553961014479E-002           8      281110           0
</event>
<event>
      5   9999  3.19816E-02  3.81822E+02 -1.00000E+00  1.02297E-01
      21    -1     0     0   502   501  0.000000000E+00  0.000000000E+00  2.982437377E+02  2.982437377E+02  0.000000000E+00  0.00000E+00  9.000E+00
       2    -1     0     0   501     0  0.000000000E+00  0.000000000E+00 -1.644460624E+03  1.644460624E+03  0.000000000E+00  0.00000E+00  9.000E+00
      25     1     1     2     0     0  2.593538191E+02 -3.208642425E+02  2.110855844E+01  4.316119053E+02  1.250000000E+02  0.00000E+00  9.000E+00
      25     1     1     2     0     0 -1.248566297E+02 -3.648469670E+01 -1.478784905E+02  2.332667122E+02  1.250000000E+02  0.00000E+00  9.000E+00
       2     1     1     2   502     0 -1.344971894E+02  3.573489392E+02 -1.219446955E+03  1.277825744E+03  1.525878906E-05  0.00000E+00  9.000E+00
#rwgt            2          13   2.4735875563380912E-003           8      281324           0
</event>
<event>
      5   9999  3.19816E-02  7.22886E+01 -1.00000E+00  1.30517E-01
      21    -1     0     0   502   501  0.000000000E+00  0.000000000E+00  2.550079979E+02  2.550079979E+02  0.000000000E+00  0.00000E+00  9.000E+00
      21    -1     0     0   501   511  0.000000000E+00  0.000000000E+00 -5.075060872E+02  5.075060872E+02  0.000000000E+00  0.00000E+00  9.000E+00
      25     1     1     2     0     0  1.119746980E+02 -9.370995156E+01  1.505315501E+02  2.441406062E+02  1.250000000E+02  0.00000E+00  9.000E+00
      25     1     1     2     0     0 -1.810631243E+02  7.243965456E+01 -2.115519341E+02  3.137046053E+02  1.250000000E+02  0.00000E+00  9.000E+00
      21     1     1     2   502   511  6.908842628E+01  2.127029700E+01 -1.914777053E+02  2.046688736E+02  0.000000000E+00  0.00000E+00  9.000E+00
#rwgt            1           1   2.6695110457247134E-002           8      281343           0
</event>
<event>
      5   9999  3.19816E-02  3.81581E+02 -1.00000E+00  1.02305E-01
      21    -1     0     0   502   501  0.000000000E+00  0.000000000E+00  1.956859235E+02  1.956859235E+02  0.000000000E+00  0.00000E+00  9.000E+00
      21    -1     0     0   501   512  0.000000000E+00  0.000000000E+00 -1.772397409E+03  1.772397409E+03  0.000000000E+00  0.00000E+00  9.000E+00
      25     1     1     2     0     0 -5.026516095E+01 -9.780527297E+01 -8.549376396E+02  8.709970295E+02  1.250000000E+02  0.00000E+00  9.000E+00
      25     1     1     2     0     0  1.740140968E+02 -2.631523881E+02 -7.717168164E+01  3.480094160E+02  1.250000000E+02  0.00000E+00  9.000E+00
      21     1     1     2   502   512 -1.237489358E+02  3.609576610E+02 -6.446021640E+02  7.490768865E+02  7.629394531E-06  0.00000E+00  9.000E+00
#rwgt            1           1   2.9593964803591069E-002           8      281420           0
</event>
<event>
      5   9999  3.19816E-02  4.81015E+02 -1.00000E+00  9.93320E-02
       1    -1     0     0   502     0  0.000000000E+00  0.000000000E+00  1.162618085E+03  1.162618085E+03  0.000000000E+00  0.00000E+00  9.000E+00
      21    -1     0     0   501   502  0.000000000E+00  0.000000000E+00 -1.640324442E+03  1.640324442E+03  0.000000000E+00  0.00000E+00  9.000E+00
      25     1     1     2     0     0  5.004068430E+02  2.488089954E+02 -6.566481897E+02  8.712776651E+02  1.250000000E+02  0.00000E+00  9.000E+00
      25     1     1     2     0     0 -9.540499432E+02 -4.087562295E+02 -4.514306270E+02  1.138730679E+03  1.250000000E+02  0.00000E+00  9.000E+00
       1     1     1     2   501     0  4.536431002E+02  1.599472340E+02  6.303724596E+02  7.929341826E+02  7.629394531E-06  0.00000E+00  9.000E+00
#rwgt            2          17   6.4292124212569338E-004           8      281516           0
</event>
<event>
      5   9999  3.19816E-02  4.14894E+01 -1.00000E+00  1.43862E-01
      21    -1     0     0   511   501  0.000000000E+00  0.000000000E+00  3.888079847E+02  3.888079847E+02  0.000000000E+00  0.00000E+00  9.000E+00
      21    -1     0     0   501   502  0.000000000E+00  0.000000000E+00 -1.805358793E+03  1.805358793E+03  0.000000000E+00  0.00000E+00  9.000E+00
      25     1     1     2     0     0 -5.468560136E+02 -3.097965826E+01 -1.447097137E+03  1.552329335E+03  1.250000000E+02  0.00000E+00  9.000E+00
      25     1     1     2     0     0  5.826204678E+02  5.200997768E+01  3.930232066E+01  5.994341662E+02  1.250000000E+02  0.00000E+00  9.000E+00
      21     1     1     2   511   502 -3.576445417E+01 -2.103031942E+01 -8.755992151E+00  4.240327718E+01  5.462855929E-07  0.00000E+00  9.000E+00
#rwgt            1           1   2.8943320900962320E-002           8      281535           0
</event>
<event>
      5   9999  3.19816E-02  8.13318E+01 -1.00000E+00  1.28003E-01
      21    -1     0     0   502   512  0.000000000E+00  0.000000000E+00  1.309973400E+02  1.309973400E+02  0.000000000E+00  0.00000E+00  9.000E+00
      21    -1     0     0   501   502  0.000000000E+00  0.000000000E+00 -3.391312487E+03  3.391312487E+03  0.000000000E+00  0.00000E+00  9.000E+00
      25     1     1     2     0     0  1.149381393E+02  2.259487286E+02 -9.272948504E+02  9.694144333E+02  1.250000000E+02  0.00000E+00  9.000E+00
      25     1     1     2     0     0 -4.404864144E+01 -1.860796078E+02 -2.421766398E+03  2.432517911E+03  1.250000000E+02  0.00000E+00  9.000E+00
      21     1     1     2   501   512 -7.088949786E+01 -3.986912085E+01  8.874610143E+01  1.203774822E+02  3.438521648E-06  0.00000E+00  9.000E+00
#rwgt            1           1   2.0160207557844843E-002           8      281755           0
</event>
<event>
      5   9999  3.19816E-02  2.21486E+01 -1.00000E+00  1.62794E-01
      21    -1     0     0   502   511  0.000000000E+00  0.000000000E+00  2.997778286E+02  2.997778286E+02  0.000000000E+00  0.00000E+00  9.000E+00
      21    -1     0     0   501   502  0.000000000E+00  0.000000000E+00 -3.410987424E+02  3.410987424E+02  0.000000000E+00  0.00000E+00  9.000E+00
      25     1     1     2     0     0 -4.594515347E+01  1.139043207E+02 -2.752744318E+02  3.263221785E+02  1.250000000E+02  0.00000E+00  9.000E+00
      25     1     1     2     0     0  2.768155586E+01 -1.264343084E+02  1.726361728E+02  2.493594816E+02  1.250000000E+02  0.00000E+00  9.000E+00
      21     1     1     2   501   511  1.826359761E+01  1.252998773E+01  6.131734515E+01  6.519491090E+01  6.743495762E-07  0.00000E+00  9.000E+00
#rwgt            1           1   2.6590339103455322E-002           8      281836           0
</event>
<event>
      5   9999  3.19816E-02  2.64749E+02 -1.00000E+00  1.07386E-01
       2    -1     0     0   502     0  0.000000000E+00  0.000000000E+00  1.057092174E+03  1.057092174E+03  0.000000000E+00  0.00000E+00  9.000E+00
      21    -1     0     0   501   502  0.000000000E+00  0.000000000E+00 -3.661762339E+02  3.661762339E+02  0.000000000E+00  0.00000E+00  9.000E+00
      25     1     1     2     0     0  2.900945288E+02  5.111735086E+01 -1.945511701E+01  3.205796637E+02  1.250000000E+02  0.00000E+00  9.000E+00
      25     1     1     2     0     0 -2.012666004E+02  1.982856601E+02 -3.572793298E+01  3.110095379E+02  1.250000000E+02  0.00000E+00  9.000E+00
       2     1     1     2   501     0 -8.882792834E+01 -2.494030110E+02  7.460989900E+02  7.916792062E+02  0.000000000E+00  0.00000E+00  9.000E+00
#rwgt            2          18   1.5111748283236071E-003           8      281979           0
</event>
<event>
      5   9999  3.19816E-02  4.38276E+01 -1.00000E+00  1.42421E-01
      21    -1     0     0   502   501  0.000000000E+00  0.000000000E+00  8.836892064E+02  8.836892064E+02  0.000000000E+00  0.00000E+00  9.000E+00
      21    -1     0     0   511   502  0.000000000E+00  0.000000000E+00 -5.778541593E+02  5.778541593E+02  0.000000000E+00  0.00000E+00  9.000E+00
      25     1     1     2     0     0  1.828864605E+02 -3.943094809E+02  5.857049489E+02  7.400018320E+02  1.250000000E+02  0.00000E+00  9.000E+00
      25     1     1     2     0     0 -1.893247123E+02  4.376616023E+02 -5.913916855E+01  4.965017281E+02  1.250000000E+02  0.00000E+00  9.000E+00
      21     1     1     2   511   501  6.438251814E+00 -4.335212137E+01 -2.207307332E+02  2.250398056E+02  2.697398305E-06  0.00000E+00  9.000E+00
#rwgt            1           1   2.4931373873696705E-002           8      282013           0
</event>
<event>
      5   9999  3.19816E-02  8.92481E+01 -1.00000E+00  1.26091E-01
      21    -1     0     0   502   512  0.000000000E+00  0.000000000E+00  1.133282040E+03  1.133282040E+03  0.000000000E+00  0.00000E+00  9.000E+00
      21    -1     0     0   501   502  0.000000000E+00  0.000000000E+00 -2.162217435E+02  2.162217435E+02  0.000000000E+00  0.00000E+00  9.000E+00
      25     1     1     2     0     0  1.875318287E+02 -1.587713268E+02 -4.975323162E+01  2.801372968E+02  1.250000000E+02  0.00000E+00  9.000E+00
      25     1     1     2     0     0 -2.316259451E+02  8.117666441E+01  3.463620532E+02  4.425289835E+02  1.250000000E+02  0.00000E+00  9.000E+00
      21     1     1     2   501   512  4.409411646E+01  7.759466244E+01  6.204514751E+02  6.268375034E+02  7.629394531E-06  0.00000E+00  9.000E+00
#rwgt            1           1   3.0483586144323345E-002           8      282135           0
</event>
<event>
      5   9999  3.19816E-02  3.53841E+01 -1.00000E+00  1.48222E-01
      21    -1     0     0   502   501  0.000000000E+00  0.000000000E+00  4.396913310E+02  4.396913310E+02  0.000000000E+00  0.00000E+00  9.000E+00
      21    -1     0     0   511   502  0.000000000E+00  0.000000000E+00 -3.046280962E+02  3.046280962E+02  0.000000000E+00  0.00000E+00  9.000E+00
      25     1     1     2     0     0  2.327842908E+02 -2.024461107E+02  1.873122331E+02  3.819474132E+02  1.250000000E+02  0.00000E+00  9.000E+00
      25     1     1     2     0     0 -2.320239585E+02  1.670701897E+02 -1.712561989E+01  3.125153636E+02  1.250000000E+02  0.00000E+00  9.000E+00
      21     1     1     2   511   501 -7.603323283E-01  3.537592098E+01 -3.512337841E+01  4.985665052E+01  0.000000000E+00  0.00000E+00  9.000E+00
#rwgt            1           1   2.9422181390484685E-002           8      282183           0
</event>
<event>
      5   9999  3.19816E-02  1.28671E+01 -1.00000E+00  1.83898E-01
      21    -1     0     0   502   501  0.000000000E+00  0.000000000E+00  1.361242456E+02  1.361242456E+02  0.000000000E+00  0.00000E+00  9.000E+00
      21    -1     0     0   512   502  0.000000000E+00  0.000000000E+00 -6.207382351E+02  6.207382351E+02  0.000000000E+00  0.00000E+00  9.000E+00
      25     1     1     2     0     0  8.046416182E+01  5.597807767E+01 -4.819874333E+02  5.074888298E+02  1.250000000E+02  0.00000E+00  9.000E+00
      25     1     1     2     0     0 -6.851950301E+01 -6.076211414E+01  7.396733364E+01  1.717065032E+02  1.250000000E+02  0.00000E+00  9.000E+00
      21     1     1     2   512   501 -1.194465880E+01  4.784036475E+00 -7.659388979E+01  7.766714770E+01  9.536743164E-07  0.00000E+00  9.000E+00
#rwgt            1           1   2.9870660085401454E-002           8      282265           0
</event>
<event>
      5   9999  3.19816E-02  1.08824E+02 -1.00000E+00  1.22198E-01
      21    -1     0     0   502   501  0.000000000E+00  0.000000000E+00  1.024314391E+03  1.024314391E+03  0.000000000E+00  0.00000E+00  9.000E+00
      21    -1     0     0   501   511  0.000000000E+00  0.000000000E+00 -7.389853102E+01  7.389853102E+01  0.000000000E+00  0.00000E+00  9.000E+00
      25     1     1     2     0     0  2.718392296E+01  5.349376032E+01  5.793641314E+02  5.957250581E+02  1.250000000E+02  0.00000E+00  9.000E+00
      25     1     1     2     0     0 -5.222808410E+01  5.240946806E+01  3.657455267E+02  3.935343891E+02  1.250000000E+02  0.00000E+00  9.000E+00
      21     1     1     2   502   511  2.504416114E+01 -1.059032284E+02  5.306201332E+00  1.089534743E+02  2.451773143E-06  0.00000E+00  9.000E+00
#rwgt            1           1   7.5214068976247415E-003           8      282501           0
</event>
<event>
      5   9999  3.19816E-02  9.63182E+01 -1.00000E+00  1.24565E-01
      21    -1     0     0   502   512  0.000000000E+00  0.000000000E+00  2.220646628E+02  2.220646628E+02  0.000000000E+00  0.00000E+00  9.000E+00
      21    -1     0     0   501   502  0.000000000E+00  0.000000000E+00 -2.412109111E+03  2.412109111E+03  0.000000000E+00  0.00000E+00  9.000E+00
      25     1     1     2     0     0 -2.574566535E+02 -1.963232543E+02 -2.247991652E+02  4.135050342E+02  1.250000000E+02  0.00000E+00  9.000E+00
      25     1     1     2     0     0  1.743565413E+02  1.476244953E+02 -2.065377794E+03  2.081730921E+03  1.250000000E+02  0.00000E+00  9.000E+00
      21     1     1     2   501   512  8.310011223E+01  4.869875905E+01  1.001325108E+02  1.389378189E+02  3.814697266E-06  0.00000E+00  9.000E+00
#rwgt            1           1   2.3829137564177018E-002           8      282543           0
</event>
<event>
      5   9999  3.19816E-02  1.41870E+02 -1.00000E+00  1.17361E-01
      21    -1     0     0   502   501  0.000000000E+00  0.000000000E+00  1.068643131E+02  1.068643131E+02  0.000000000E+00  0.00000E+00  9.000E+00
      21    -1     0     0   501   511  0.000000000E+00  0.000000000E+00 -6.885972736E+02  6.885972736E+02  0.000000000E+00  0.00000E+00  9.000E+00
      25     1     1     2     0     0 -7.433994300E+01 -6.519361447E+01 -1.509666922E+01  1.600922981E+02  1.250000000E+02  0.00000E+00  9.000E+00
      25     1     1     2     0     0 -1.895027671E+01 -4.168904531E+01 -3.674724818E+02  3.908428256E+02  1.250000000E+02  0.00000E+00  9.000E+00
      21     1     1     2   502   511  9.329021971E+01  1.068826598E+02 -1.991638095E+02  2.445264629E+02  3.814697266E-06  0.00000E+00  9.000E+00
#rwgt            1           1   2.6787872260173855E-002           8      282659           0
</event>
<event>
      5   9999  3.19816E-02  7.20469E+01 -1.00000E+00  1.30590E-01
      21    -1     0     0   502   501  0.000000000E+00  0.000000000E+00  1.415067636E+02  1.415067636E+02  0.000000000E+00  0.00000E+00  9.000E+00
      21    -1     0     0   512   502  0.000000000E+00  0.000000000E+00 -1.600244737E+03  1.600244737E+03  0.000000000E+00  0.00000E+00  9.000E+00
      25     1     1     2     0     0  2.075509082E+02 -9.020309183E+01 -8.079675540E+02  8.483221944E+02  1.250000000E+02  0.00000E+00  9.000E+00
      25     1     1     2     0     0 -1.656739555E+02  3.157647745E+01  2.716284525E+01  2.116784203E+02  1.250000000E+02  0.00000E+00  9.000E+00
      21     1     1     2   512   501 -4.187695275E+01  5.862661438E+01 -6.779332649E+02  6.817508861E+02  1.321449896E-05  0.00000E+00  9.000E+00
#rwgt            1           1   2.8954399772529484E-002           8      282701           0
</event>
<event>
      5   9999  3.19816E-02  1.64168E+02 -1.00000E+00  1.14861E-01
      21    -1     0     0   502   501  0.000000000E+00  0.000000000E+00  2.209365578E+03  2.209365578E+03  0.000000000E+00  0.00000E+00  9.000E+00
      21    -1     0     0   501   511  0.000000000E+00  0.000000000E+00 -7.034197291E+02  7.034197291E+02  0.000000000E+00  0.00000E+00  9.000E+00
      25     1     1     2     0     0 -9.169314377E+02  7.548958080E+02  7.591228136E+02  1.415105434E+03  1.250000000E+02  0.00000E+00  9.000E+00
      25     1     1     2     0     0  9.339936764E+02 -5.916165047E+02  7.341460872E+02  1.333022788E+03  1.250000000E+02  0.00000E+00  9.000E+00
      21     1     1     2   502   511 -1.706223870E+01 -1.632793033E+02  1.267694847E+01  1.646570857E+02  3.781021005E-06  0.00000E+00  9.000E+00
#rwgt            1           1   7.2303174681265694E-002           8      282812           0
</event>
<event>
      5   9999  3.19816E-02  8.03657E+01 -1.00000E+00  1.28254E-01
      21    -1     0     0   502   512  0.000000000E+00  0.000000000E+00  9.376961260E+02  9.376961260E+02  0.000000000E+00  0.00000E+00  9.000E+00
      21    -1     0     0   501   502  0.000000000E+00  0.000000000E+00 -6.464212973E+02  6.464212973E+02  0.000000000E+00  0.00000E+00  9.000E+00
      25     1     1     2     0     0  5.925581224E+02 -2.615233464E+02  1.884083112E+02  6.860337316E+02  1.250000000E+02  0.00000E+00  9.000E+00
      25     1     1     2     0     0 -6.694676230E+02  2.382086288E+02 -5.224995104E+01  7.233846186E+02  1.250000000E+02  0.00000E+00  9.000E+00
      21     1     1     2   501   512  7.690950059E+01  2.331471758E+01  1.551164685E+02  1.746990731E+02  2.697398305E-06  0.00000E+00  9.000E+00
#rwgt            1           1   2.9061873342765828E-002           8      282909           0
</event>
<event>
      5   9999  3.19816E-02  5.43733E+01 -1.00000E+00  1.37029E-01
      21    -1     0     0   502   511  0.000000000E+00  0.000000000E+00  7.092020490E+02  7.092020490E+02  0.000000000E+00  0.00000E+00  9.000E+00
      21    -1     0     0   501   502  0.000000000E+00  0.000000000E+00 -1.351087460E+02  1.351087460E+02  0.000000000E+00  0.00000E+00  9.000E+00
      25     1     1     2     0     0 -9.010102595E+01 -7.813949060E+01  3.379567461E+02  3.795572909E+02  1.250000000E+02  0.00000E+00  9.000E+00
      25     1     1     2     0     0  3.680590574E+01  8.891377587E+01 -5.615494477E+01  1.674476398E+02  1.250000000E+02  0.00000E+00  9.000E+00
      21     1     1     2   501   511  5.329512020E+01 -1.077428527E+01  2.922915017E+02  2.973058644E+02  3.814697266E-06  0.00000E+00  9.000E+00
#rwgt            1           1   2.6081784266116757E-002           8      283008           0
</event>
<event>
      5   9999  3.19816E-02  2.80216E+01 -1.00000E+00  1.55127E-01
      21    -1     0     0   512   501  0.000000000E+00  0.000000000E+00  2.124091511E+03  2.124091511E+03  0.000000000E+00  0.00000E+00  9.000E+00
      21    -1     0     0   501   502  0.000000000E+00  0.000000000E+00 -9.608926564E+02  9.608926564E+02  0.000000000E+00  0.00000E+00  9.000E+00
      25     1     1     2     0     0  8.801704998E+02 -2.658281604E+02  1.699479451E+03  1.936290300E+03  1.250000000E+02  0.00000E+00  9.000E+00
      25     1     1     2     0     0 -8.929512565E+02  2.408910090E+02 -5.784911518E+02  1.098028887E+03  1.250000000E+02  0.00000E+00  9.000E+00
      21     1     1     2   512   502  1.278075673E+01  2.493715131E+01  4.221055475E+01  5.066497992E+01  6.743495762E-07  0.00000E+00  9.000E+00
#rwgt            1           1   4.9920548878338050E-002           8      283129           0
</event>
<event>
      5   9999  3.19816E-02  3.66676E+01 -1.00000E+00  1.47223E-01
      21    -1     0     0   502   501  0.000000000E+00  0.000000000E+00  1.648355847E+02  1.648355847E+02  0.000000000E+00  0.00000E+00  9.000E+00
      21    -1     0     0   501   511  0.000000000E+00  0.000000000E+00 -2.349310901E+02  2.349310901E+02  0.000000000E+00  0.00000E+00  9.000E+00
      25     1     1     2     0     0 -4.541134580E+00 -8.263528584E+01  7.422388221E+01  1.672823872E+02  1.250000000E+02  0.00000E+00  9.000E+00
      25     1     1     2     0     0 -2.839327317E+01  6.651575896E+01 -1.038713612E+02  1.778898081E+02  1.250000000E+02  0.00000E+00  9.000E+00
      21     1     1     2   502   511  3.293440775E+01  1.611952688E+01 -4.044802640E+01  5.459447958E+01  0.000000000E+00  0.00000E+00  9.000E+00
#rwgt            1           1   2.3482592927221435E-002           8      283351           0
</event>
<event>
      5   9999  3.19816E-02  4.28174E+01 -1.00000E+00  1.43030E-01
      21    -1     0     0   502   501  0.000000000E+00  0.000000000E+00  6.482265628E+02  6.482265628E+02  0.000000000E+00  0.00000E+00  9.000E+00
      21    -1     0     0   501   512  0.000000000E+00  0.000000000E+00 -4.320428182E+02  4.320428182E+02  0.000000000E+00  0.00000E+00  9.000E+00
      25     1     1     2     0     0 -1.125986970E+02  1.276182838E+02  3.229285723E+02  3.858403241E+02  1.250000000E+02  0.00000E+00  9.000E+00
      25     1     1     2     0     0  7.049500565E+01 -1.198333621E+02  2.627408855E+02  3.224707016E+02  1.250000000E+02  0.00000E+00  9.000E+00
      21     1     1     2   502   512  4.210369139E+01 -7.784921659E+00 -3.694857131E+02  3.719583552E+02  7.629394531E-06  0.00000E+00  9.000E+00
#rwgt            1           1   2.5965555653174058E-002           8      283451           0
</event>
<event>
      5   9999  3.19816E-02  5.88788E+01 -1.00000E+00  1.35143E-01
      21    -1     0     0   511   501  0.000000000E+00  0.000000000E+00  2.353057934E+03  2.353057934E+03  0.000000000E+00  0.00000E+00  9.000E+00
      21    -1     0     0   501   502  0.000000000E+00  0.000000000E+00 -1.251576769E+02  1.251576769E+02  0.000000000E+00  0.00000E+00  9.000E+00
      25     1     1     2     0     0  1.600888099E+02 -8.712696197E+00  2.073736791E+02  2.904017578E+02  1.250000000E+02  0.00000E+00  9.000E+00
      25     1     1     2     0     0 -1.853246188E+02  6.190918162E+01  7.847499528E+01  2.448699369E+02  1.250000000E+02  0.00000E+00  9.000E+00
      21     1     1     2   511   502  2.523580893E+01 -5.319648542E+01  1.942051583E+03  1.942943917E+03  0.000000000E+00  0.00000E+00  9.000E+00
#rwgt            1           1   2.7782164155841452E-002           8      283541           0
</event>
<event>
      5   9999  3.19816E-02  1.95166E+01 -1.00000E+00  1.67251E-01
      21    -1     0     0   502   501  0.000000000E+00  0.000000000E+00  3.007948977E+02  3.007948977E+02  0.000000000E+00  0.00000E+00  9.000E+00
      21    -1     0     0   512   502  0.000000000E+00  0.000000000E+00 -2.820998195E+02  2.820998195E+02  0.000000000E+00  0.00000E+00  9.000E+00
      25     1     1     2     0     0  7.318750546E+01 -6.624515135E+01 -1.923821660E+02  2.497613438E+02  1.250000000E+02  0.00000E+00  9.000E+00
      25     1     1     2     0     0 -5.499426365E+01  5.918090760E+01  2.492244178E+02  2.902835842E+02  1.250000000E+02  0.00000E+00  9.000E+00
      21     1     1     2   512   501 -1.819324182E+01  7.064243746E+00 -3.814717355E+01  4.284978924E+01  6.743495762E-07  0.00000E+00  9.000E+00
#rwgt            1           1   2.5803953096729528E-002           8      283639           0
</event>
<event>
      5   9999  3.19816E-02  1.42013E+02 -1.00000E+00  1.17343E-01
      21    -1     0     0   511   501  0.000000000E+00  0.000000000E+00  1.379115060E+03  1.379115060E+03  0.000000000E+00  0.00000E+00  9.000E+00
      21    -1     0     0   501   502  0.000000000E+00  0.000000000E+00 -6.866986342E+02  6.866986342E+02  0.000000000E+00  0.00000E+00  9.000E+00
      25     1     1     2     0     0 -1.599564076E+00 -4.888083028E+02  9.506553751E+02  1.076246606E+03  1.250000000E+02  0.00000E+00  9.000E+00
      25     1     1     2     0     0 -1.280723684E+02  5.467129072E+02 -4.643379126E+02  7.392781828E+02  1.250000000E+02  0.00000E+00  9.000E+00
      21     1     1     2   511   502  1.296719325E+02 -5.790460445E+01  2.060989630E+02  2.502889047E+02  5.394796609E-06  0.00000E+00  9.000E+00
#rwgt            1           1   3.1514187825801294E-002           8      283801           0
</event>
<event>
      5   9999  3.19816E-02  8.86198E+01 -1.00000E+00  1.26235E-01
      21    -1     0     0   502   501  0.000000000E+00  0.000000000E+00  9.833313852E+02  9.833313852E+02  0.000000000E+00  0.00000E+00  9.000E+00
      21    -1     0     0   501   512  0.000000000E+00  0.000000000E+00 -2.246453933E+02  2.246453933E+02  0.000000000E+00  0.00000E+00  9.000E+00
      25     1     1     2     0     0  3.313325792E+02 -1.000648449E+02  7.184456689E+01  3.749411861E+02  1.250000000E+02  0.00000E+00  9.000E+00
      25     1     1     2     0     0 -2.899751393E+02  1.784423796E+02  6.324028828E+02  7.290306375E+02  1.250000000E+02  0.00000E+00  9.000E+00
      21     1     1     2   502   512 -4.135743988E+01 -7.837753462E+01  5.443854220E+01  1.040049549E+02  6.743495762E-07  0.00000E+00  9.000E+00
#rwgt            1           1   2.9226856130585070E-002           8      283941           0
</event>
<event>
      5   9999  3.19816E-02  3.82775E+01 -1.00000E+00  1.46036E-01
      21    -1     0     0   502   501  0.000000000E+00  0.000000000E+00  1.385497653E+02  1.385497653E+02  0.000000000E+00  0.00000E+00  9.000E+00
      21    -1     0     0   501   511  0.000000000E+00  0.000000000E+00 -5.130904659E+02  5.130904659E+02  0.000000000E+00  0.00000E+00  9.000E+00
      25     1     1     2     0     0 -1.003728907E+01 -1.898363427E+02 -2.777408698E+02  3.590314400E+02  1.250000000E+02  0.00000E+00  9.000E+00
      25     1     1     2     0     0  4.813995487E+01  1.934902128E+02 -6.879598082E+01  2.451811671E+02  1.250000000E+02  0.00000E+00  9.000E+00
      21     1     1     2   502   511 -3.810266580E+01 -3.653870080E+00 -2.800385006E+01  4.742762408E+01  7.539457465E-07  0.00000E+00  9.000E+00
#rwgt            1           1   2.6791107231209872E-002           8      284116           0
</event>
<event>
      5   9999  3.19816E-02  8.18603E+01 -1.00000E+00  1.27868E-01
      21    -1     0     0   502   501  0.000000000E+00  0.000000000E+00  4.809870834E+02  4.809870834E+02  0.000000000E+00  0.00000E+00  9.000E+00
      21    -1     0     0   501   512  0.000000000E+00  0.000000000E+00 -1.959893131E+02  1.959893131E+02  0.000000000E+00  0.00000E+00  9.000E+00
      25     1     1     2     0     0 -1.785699918E+02  1.667663330E+02  1.345477666E+02  3.056572481E+02  1.250000000E+02  0.00000E+00  9.000E+00
      25     1     1     2     0     0  2.009718104E+02 -8.803091674E+01  1.401838431E+02  2.888176254E+02  1.250000000E+02  0.00000E+00  9.000E+00
      21     1     1     2   502   512 -2.240181859E+01 -7.873541629E+01  1.026616059E+01  8.250152306E+01  2.407909617E-06  0.00000E+00  9.000E+00
#rwgt            1           1   3.2530579658576149E-002           8      284200           0
</event>
<event>
      5   9999  3.19816E-02  1.53744E+01 -1.00000E+00  1.76381E-01
      21    -1     0     0   502   501  0.000000000E+00  0.000000000E+00  3.641888728E+02  3.641888728E+02  0.000000000E+00  0.00000E+00  9.000E+00
      21    -1     0     0   511   502  0.000000000E+00  0.000000000E+00 -2.655061766E+02  2.655061766E+02  0.000000000E+00  0.00000E+00  9.000E+00
      25     1     1     2     0     0  6.318192144E+01  1.369203361E+02  2.882315315E+02  3.484846473E+02  1.250000000E+02  0.00000E+00  9.000E+00
      25     1     1     2     0     0 -7.250349603E+01 -1.246941183E+02 -1.832497309E+02  2.645956234E+02  1.250000000E+02  0.00000E+00  9.000E+00
      21     1     1     2   511   501  9.321574593E+00 -1.222621787E+01 -6.299104289E+00  1.661477870E+01  1.192092896E-07  0.00000E+00  9.000E+00
#rwgt            1           1   2.8880085935805933E-002           8      284289           0
</event>
<event>
      5   9999  3.19816E-02  2.33767E+02 -1.00000E+00  1.09236E-01
      21    -1     0     0   502   501  0.000000000E+00  0.000000000E+00  1.326502424E+03  1.326502424E+03  0.000000000E+00  0.00000E+00  9.000E+00
      21    -1     0     0   501   512  0.000000000E+00  0.000000000E+00 -6.468551218E+02  6.468551218E+02  0.000000000E+00  0.00000E+00  9.000E+00
      25     1     1     2     0     0 -2.591802309E+02  4.021585745E+02  1.075472416E+03  1.183711041E+03  1.250000000E+02  0.00000E+00  9.000E+00
      25     1     1     2     0     0  3.039664812E+02 -1.727215700E+02 -4.128668540E+02  5.552588600E+02  1.250000000E+02  0.00000E+00  9.000E+00
      21     1     1     2   502   512 -4.478625034E+01 -2.294370044E+02  1.704174040E+01  2.343876450E+02  2.929736549E-06  0.00000E+00  9.000E+00
#rwgt            1           1   3.5087456629343705E-002           8      284359           0
</event>
<event>
      5   9999  3.19816E-02  1.05466E+02 -1.00000E+00  1.22797E-01
      21    -1     0     0   511   501  0.000000000E+00  0.000000000E+00  3.755033464E+02  3.755033464E+02  0.000000000E+00  0.00000E+00  9.000E+00
      21    -1     0     0   501   502  0.000000000E+00  0.000000000E+00 -5.540273820E+02  5.540273820E+02  0.000000000E+00  0.00000E+00  9.000E+00
      25     1     1     2     0     0 -2.856608689E+02 -1.051543116E+02 -3.109318305E+02  4.527285771E+02  1.250000000E+02  0.00000E+00  9.000E+00
      25     1     1     2     0     0  1.812773813E+02  9.008266694E+01 -7.048773458E+01  2.481328205E+02  1.250000000E+02  0.00000E+00  9.000E+00
      21     1     1     2   511   502  1.043834876E+02  1.507164467E+01  2.028955296E+02  2.286693309E+02  2.697398305E-06  0.00000E+00  9.000E+00
#rwgt            1           1   2.5235334724122843E-002           8      284433           0
</event>
<event>
      5   9999  3.19816E-02  4.25673E+01 -1.00000E+00  1.43184E-01
      21    -1     0     0   502   501  0.000000000E+00  0.000000000E+00  7.785179489E+02  7.785179489E+02  0.000000000E+00  0.00000E+00  9.000E+00
      21    -1     0     0   501   512  0.000000000E+00  0.000000000E+00 -2.376850039E+02  2.376850039E+02  0.000000000E+00  0.00000E+00  9.000E+00
      25     1     1     2     0     0  2.033508434E+02  7.818033768E+01 -1.105949305E+02  2.744448385E+02  1.250000000E+02  0.00000E+00  9.000E+00
      25     1     1     2     0     0 -2.022870556E+02 -1.207343230E+02  6.459534615E+02  6.988402565E+02  1.250000000E+02  0.00000E+00  9.000E+00
      21     1     1     2   502   512 -1.063787835E+00  4.255398530E+01  5.474414015E+00  4.291785781E+01  7.862392639E-07  0.00000E+00  9.000E+00
#rwgt            1           1   2.7945247276342434E-002           8      284485           0
</event>
<event>
      5   9999  3.19816E-02  8.53297E+01 -1.00000E+00  1.27008E-01
      21    -1     0     0   502   501  0.000000000E+00  0.000000000E+00  1.274336049E+02  1.274336049E+02  0.000000000E+00  0.00000E+00  9.000E+00
       1    -1     0     0   501     0  0.000000000E+00  0.000000000E+00 -7.167173414E+02  7.167173414E+02  0.000000000E+00  0.00000E+00  9.000E+00
      25     1     1     2     0     0  1.648565212E+01  5.289157448E+01 -3.659609179E+02  3.906682592E+02  1.250000000E+02  0.00000E+00  9.000E+00
      25     1     1     2     0     0  4.928697928E+01  1.469461633E+00  6.751785791E+01  1.503829338E+02  1.250000000E+02  0.00000E+00  9.000E+00
       1     1     1     2   502     0 -6.577263140E+01 -5.436103611E+01 -2.908406766E+02  3.030997533E+02  5.394796609E-06  0.00000E+00  9.000E+00
#rwgt            1           1   2.5087628909895701E-002           8      284661           0
</event>
<event>
      5   9999  3.19816E-02  4.71867E+01 -1.00000E+00  1.40526E-01
      21    -1     0     0   502   501  0.000000000E+00  0.000000000E+00  3.303038262E+02  3.303038262E+02  0.000000000E+00  0.00000E+00  9.000E+00
      21    -1     0     0   511   502  0.000000000E+00  0.000000000E+00 -1.074643749E+03  1.074643749E+03  0.000000000E+00  0.00000E+00  9.000E+00
      25     1     1     2     0     0 -2.919764511E+02 -3.958134367E+02 -1.786549182E+02  5.380158961E+02  1.250000000E+02  0.00000E+00  9.000E+00
      25     1     1     2     0     0  3.083229689E+02  4.400782849E+02 -3.667261656E+02  6.624537951E+02  1.250000000E+02  0.00000E+00  9.000E+00
      21     1     1     2   511   501 -1.634651784E+01 -4.426484827E+01 -1.989588394E+02  2.044778844E+02  2.697398305E-06  0.00000E+00  9.000E+00
#rwgt            1           1   2.6548592030861778E-002           8      284714           0
</event>
<event>
      5   9999  3.19816E-02  1.04051E+02 -1.00000E+00  1.23057E-01
      21    -1     0     0   512   501  0.000000000E+00  0.000000000E+00  2.348718535E+02  2.348718535E+02  0.000000000E+00  0.00000E+00  9.000E+00
      21    -1     0     0   501   502  0.000000000E+00  0.000000000E+00 -4.575101890E+02  4.575101890E+02  0.000000000E+00  0.00000E+00  9.000E+00
      25     1     1     2     0     0 -1.537438275E+02  1.828129112E+02 -1.675565111E+01  2.701175242E+02  1.250000000E+02  0.00000E+00  9.000E+00
      25     1     1     2     0     0  5.051075480E+01 -1.958377163E+02 -2.112855645E+02  3.180728490E+02  1.250000000E+02  0.00000E+00  9.000E+00
      21     1     1     2   512   502  1.032330727E+02  1.302480509E+01  5.402880208E+00  1.041916694E+02  2.037921071E-06  0.00000E+00  9.000E+00
#rwgt            1           1   2.5359924567100449E-002           8      284812           0
</event>
<event>
      5   9999  3.19816E-02  2.59017E+02 -1.00000E+00  1.07707E-01
      -1    -1     0     0     0   501  0.000000000E+00  0.000000000E+00  8.057321025E+02  8.057321025E+02  0.000000000E+00  0.00000E+00  9.000E+00
      21    -1     0     0   501   502  0.000000000E+00  0.000000000E+00 -1.030365174E+03  1.030365174E+03  0.000000000E+00  0.00000E+00  9.000E+00
      25     1     1     2     0     0  1.611671972E+02  4.453416883E+02 -7.297116582E+02  8.788675605E+02  1.250000000E+02  0.00000E+00  9.000E+00
      25     1     1     2     0     0 -4.287450605E+01 -2.149145740E+02 -1.209107712E+02  2.797693907E+02  1.250000000E+02  0.00000E+00  9.000E+00
      -1     1     1     2     0   502 -1.182926912E+02 -2.304271143E+02  6.259893580E+02  6.774603251E+02  7.629394531E-06  0.00000E+00  9.000E+00
#rwgt            1           1   2.7913931875221346E-002           8      284851           0
</event>
<event>
      5   9999  3.19816E-02  8.43254E+01 -1.00000E+00  1.27252E-01
      21    -1     0     0   511   501  0.000000000E+00  0.000000000E+00  1.461498956E+02  1.461498956E+02  0.000000000E+00  0.00000E+00  9.000E+00
      21    -1     0     0   501   502  0.000000000E+00  0.000000000E+00 -1.618979356E+03  1.618979356E+03  0.000000000E+00  0.00000E+00  9.000E+00
      25     1     1     2     0     0  1.870379242E+02  4.251682025E+01 -9.348601463E+02  9.624860301E+02  1.250000000E+02  0.00000E+00  9.000E+00
      25     1     1     2     0     0 -1.588335241E+02 -1.219855721E+02 -6.330018308E+02  6.755922483E+02  1.250000000E+02  0.00000E+00  9.000E+00
      21     1     1     2   511   502 -2.820440014E+01  7.946875189E+01  9.503251628E+01  1.270509735E+02  3.015782986E-06  0.00000E+00  9.000E+00
#rwgt            1           1   2.9043829078900091E-002           8      284922           0
</event>
<event>
      5   9999  3.19816E-02  6.79698E+01 -1.00000E+00  1.31871E-01
      21    -1     0     0   502   501  0.000000000E+00  0.000000000E+00  1.234858216E+02  1.234858216E+02  0.000000000E+00  0.00000E+00  9.000E+00
      21    -1     0     0   501   512  0.000000000E+00  0.000000000E+00 -3.225577027E+02  3.225577027E+02  0.000000000E+00  0.00000E+00  9.000E+00
      25     1     1     2     0     0 -8.113787237E+01  3.709570352E+01  1.271279102E+01  1.540975685E+02  1.250000000E+02  0.00000E+00  9.000E+00
      25     1     1     2     0     0  2.821552172E+01  5.555417448E+00 -1.069433163E+02  1.669995546E+02  1.250000000E+02  0.00000E+00  9.000E+00
      21     1     1     2   502   512  5.292235065E+01 -4.265112096E+01 -1.048413558E+02  1.249464013E+02  1.348699152E-06  0.00000E+00  9.000E+00
#rwgt            1           1   4.5604878611799245E-002           8      284986           0
</event>
<event>
      5   9999  3.19816E-02  2.45579E+01 -1.00000E+00  1.59333E-01
      21    -1     0     0   511   501  0.000000000E+00  0.000000000E+00  5.756924847E+02  5.756924847E+02  0.000000000E+00  0.00000E+00  9.000E+00
      21    -1     0     0   501   502  0.000000000E+00  0.000000000E+00 -1.272647110E+02  1.272647110E+02  0.000000000E+00  0.00000E+00  9.000E+00
      25     1     1     2     0     0  6.929584973E+01  1.648891850E+02  1.634976535E+02  2.726661710E+02  1.250000000E+02  0.00000E+00  9.000E+00
      25     1     1     2     0     0 -7.565867795E+01 -1.411698609E+02  7.139670258E+01  2.153500739E+02  1.250000000E+02  0.00000E+00  9.000E+00
      21     1     1     2   511   502  6.362828223E+00 -2.371932404E+01  2.135334176E+02  2.149409509E+02  3.814697266E-06  0.00000E+00  9.000E+00
#rwgt            1           1   3.5108051261081935E-002           8      285032           0
</event>
<event>
      5   9999  3.19816E-02  1.05793E+02 -1.00000E+00  1.22738E-01
      21    -1     0     0   512   501  0.000000000E+00  0.000000000E+00  7.170192042E+02  7.170192042E+02  0.000000000E+00  0.00000E+00  9.000E+00
      21    -1     0     0   501   502  0.000000000E+00  0.000000000E+00 -2.708892259E+02  2.708892259E+02  0.000000000E+00  0.00000E+00  9.000E+00
      25     1     1     2     0     0  3.413876893E+01  2.566762373E+01  5.412658271E+02  5.571516652E+02  1.250000000E+02  0.00000E+00  9.000E+00
      25     1     1     2     0     0  6.863822903E+01 -5.074869987E+01 -2.200368997E+02  2.670727883E+02  1.250000000E+02  0.00000E+00  9.000E+00
      21     1     1     2   512   502 -1.027769980E+02  2.508107614E+01  1.249010509E+02  1.636839766E+02  0.000000000E+00  0.00000E+00  9.000E+00
#rwgt            1           1   2.8357136403441372E-002           8      285195           0
</event>
<event>
      5   9999  3.19816E-02  7.97452E+01 -1.00000E+00  1.28417E-01
      21    -1     0     0   511   501  0.000000000E+00  0.000000000E+00  8.360359119E+02  8.360359119E+02  0.000000000E+00  0.00000E+00  9.000E+00
      21    -1     0     0   501   502  0.000000000E+00  0.000000000E+00 -1.433748080E+02  1.433748080E+02  0.000000000E+00  0.00000E+00  9.000E+00
      25     1     1     2     0     0 -1.043796308E+02  7.977168067E+01  1.264560949E+02  2.210763947E+02  1.250000000E+02  0.00000E+00  9.000E+00
      25     1     1     2     0     0  1.788257722E+02 -5.118733175E+01  4.188812427E+01  2.279877512E+02  1.250000000E+02  0.00000E+00  9.000E+00
      21     1     1     2   511   502 -7.444614136E+01 -2.858434892E+01  5.243168847E+02  5.303465740E+02  7.629394531E-06  0.00000E+00  9.000E+00
#rwgt            1           1   2.7667086274738024E-002           8      285267           0
</event>
<event>
      5   9999  3.19816E-02  9.89571E+01 -1.00000E+00  1.24033E-01
      21    -1     0     0   502   501  0.000000000E+00  0.000000000E+00  2.432498824E+02  2.432498824E+02  0.000000000E+00  0.00000E+00  9.000E+00
      21    -1     0     0   512   502  0.000000000E+00  0.000000000E+00 -1.637372056E+03  1.637372056E+03  0.000000000E+00  0.00000E+00  9.000E+00
      25     1     1     2     0     0  5.024842393E+02  9.527770606E+00 -2.159136960E+02  5.610926067E+02  1.250000000E+02  0.00000E+00  9.000E+00
      25     1     1     2     0     0 -4.614579960E+02 -9.957972025E+01 -8.955049139E+02  1.020006693E+03  1.250000000E+02  0.00000E+00  9.000E+00
      21     1     1     2   512   501 -4.102624325E+01  9.005194964E+01 -2.827035638E+02  2.995226389E+02  5.394796609E-06  0.00000E+00  9.000E+00
#rwgt            1           1   3.0539085034310211E-002           8      285340           0
</event>
<event>
      5   9999  3.19816E-02  2.19564E+02 -1.00000E+00  1.10192E-01
      21    -1     0     0   511   501  0.000000000E+00  0.000000000E+00  1.233196107E+03  1.233196107E+03  0.000000000E+00  0.00000E+00  9.000E+00
      21    -1     0     0   501   502  0.000000000E+00  0.000000000E+00 -7.046864219E+02  7.046864219E+02  0.000000000E+00  0.00000E+00  9.000E+00
      25     1     1     2     0     0  2.302501003E+01 -4.839795353E+00 -6.435944376E+02  6.560429672E+02  1.250000000E+02  0.00000E+00  9.000E+00
      25     1     1     2     0     0 -2.226467963E+02  9.627097762E+01  8.442451990E+02  8.872511782E+02  1.250000000E+02  0.00000E+00  9.000E+00
      21     1     1     2   511   502  1.996217862E+02 -9.143118226E+01  3.278589241E+02  3.945883840E+02  3.814697266E-06  0.00000E+00  9.000E+00
#rwgt            1           1   3.0490803035411695E-002           8      285431           0
</event>
<event>
      5   9999  3.19816E-02  7.74479E+01 -1.00000E+00  1.29035E-01
      21    -1     0     0   502   501  0.000000000E+00  0.000000000E+00  4.578218258E+02  4.578218258E+02  0.000000000E+00  0.00000E+00  9.000E+00
      -1    -1     0     0     0   502  0.000000000E+00  0.000000000E+00 -4.181338134E+02  4.181338134E+02  0.000000000E+00  0.00000E+00  9.000E+00
      25     1     1     2     0     0  3.001357622E+02 -1.636180125E+02  2.346035929E+01  3.647296509E+02  1.250000000E+02  0.00000E+00  9.000E+00
      25     1     1     2     0     0 -3.775325216E+02  1.608038049E+02  3.835414429E+01  4.306793574E+02  1.250000000E+02  0.00000E+00  9.000E+00
      -1     1     1     2     0   501  7.739675942E+01  2.814207650E+00 -2.212649118E+01  8.054663087E+01  1.488923549E-06  0.00000E+00  9.000E+00
#rwgt            1           1   2.5808184991207295E-002           8      285463           0
</event>
<event>
      5   9999  3.19816E-02  1.42021E+02 -1.00000E+00  1.17342E-01
      21    -1     0     0   502   501  0.000000000E+00  0.000000000E+00  1.207098624E+03  1.207098624E+03  0.000000000E+00  0.00000E+00  9.000E+00
      21    -1     0     0   511   502  0.000000000E+00  0.000000000E+00 -1.254400165E+03  1.254400165E+03  0.000000000E+00  0.00000E+00  9.000E+00
      25     1     1     2     0     0 -7.978104453E+02 -3.942990641E+02  7.799522945E+02  1.189925981E+03  1.250000000E+02  0.00000E+00  9.000E+00
      25     1     1     2     0     0  6.637158950E+02  4.410811626E+02 -7.794768491E+02  1.121731046E+03  1.250000000E+02  0.00000E+00  9.000E+00
      21     1     1     2   511   501  1.340945503E+02 -4.678209847E+01 -4.777698713E+01  1.498417621E+02  2.431401974E-06  0.00000E+00  9.000E+00
#rwgt            1           1   5.0009588486686976E-002           8      285607           0
</event>
<event>
      5   9999  3.19816E-02  1.10092E+01 -1.00000E+00  1.91051E-01
      21    -1     0     0   512   501  0.000000000E+00  0.000000000E+00  4.691139450E+02  4.691139450E+02  0.000000000E+00  0.00000E+00  9.000E+00
      21    -1     0     0   501   502  0.000000000E+00  0.000000000E+00 -8.850209803E+01  8.850209803E+01  0.000000000E+00  0.00000E+00  9.000E+00
      25     1     1     2     0     0 -1.013375515E+02  8.656078624E+00  8.030958758E+01  1.800523727E+02  1.250000000E+02  0.00000E+00  9.000E+00
      25     1     1     2     0     0  1.063869039E+02 -1.843905240E+01  1.389826099E+02  2.158687977E+02  1.250000000E+02  0.00000E+00  9.000E+00
      21     1     1     2   512   502 -5.049352402E+00  9.782973772E+00  1.613196494E+02  1.616948726E+02  0.000000000E+00  0.00000E+00  9.000E+00
#rwgt            1           1   2.4452383919589163E-002           8      285720           0
</event>
<event>
      5   9999  3.19816E-02  2.44168E+02 -1.00000E+00  1.08582E-01
      21    -1     0     0   511   501  0.000000000E+00  0.000000000E+00  1.990785915E+02  1.990785915E+02  0.000000000E+00  0.00000E+00  9.000E+00
      21    -1     0     0   501   502  0.000000000E+00  0.000000000E+00 -1.362299482E+03  1.362299482E+03  0.000000000E+00  0.00000E+00  9.000E+00
      25     1     1     2     0     0 -2.771059653E+02  1.621543122E+02 -3.914393623E+02  5.214705278E+02  1.250000000E+02  0.00000E+00  9.000E+00
      25     1     1     2     0     0  1.895449401E+02 -3.900825158E+02 -5.323408783E+02  6.979279792E+02  1.250000000E+02  0.00000E+00  9.000E+00
      21     1     1     2   511   502  8.756102517E+01  2.279282036E+02 -2.394406504E+02  3.419795669E+02  4.672030912E-06  0.00000E+00  9.000E+00
#rwgt            1           1   2.6359624147188988E-002           8      285916           0
</event>
<event>
      5   9999  3.19816E-02  1.14431E+02 -1.00000E+00  1.21251E-01
      21    -1     0     0   502   501  0.000000000E+00  0.000000000E+00  1.151192368E+02  1.151192368E+02  0.000000000E+00  0.00000E+00  9.000E+00
       2    -1     0     0   501     0  0.000000000E+00  0.000000000E+00 -2.404400643E+03  2.404400643E+03  0.000000000E+00  0.00000E+00  9.000E+00
      25     1     1     2     0     0  2.731803703E+02  7.363589424E+01 -2.116901212E+02  3.748165779E+02  1.250000000E+02  0.00000E+00  9.000E+00
      25     1     1     2     0     0 -3.335450659E+02 -1.708493421E+02 -1.298868430E+03  1.357617769E+03  1.250000000E+02  0.00000E+00  9.000E+00
       2     1     1     2   502     0  6.036469564E+01  9.721344788E+01 -7.787228544E+02  7.870855321E+02  0.000000000E+00  0.00000E+00  9.000E+00
#rwgt            1           1   2.6835365645930375E-002           8      285996           0
</event>
<event>
      5   9999  3.19816E-02  4.91956E+02 -1.00000E+00  9.90525E-02
       2    -1     0     0   502     0  0.000000000E+00  0.000000000E+00  2.079598708E+03  2.079598708E+03  0.000000000E+00  0.00000E+00  9.000E+00
      21    -1     0     0   501   502  0.000000000E+00  0.000000000E+00 -2.536905518E+02  2.536905518E+02  0.000000000E+00  0.00000E+00  9.000E+00
      25     1     1     2     0     0  3.131210718E+02  2.005191300E+02  6.343023196E+02  7.457996780E+02  1.250000000E+02  0.00000E+00  9.000E+00
      25     1     1     2     0     0  1.617758027E+02 -3.289453200E+02  1.153270192E+02  4.041061188E+02  1.250000000E+02  0.00000E+00  9.000E+00
       2     1     1     2   501     0 -4.748968745E+02  1.284261900E+02  1.076278818E+03  1.183383463E+03  1.525878906E-05  0.00000E+00  9.000E+00
#rwgt            2          18   1.5175528399726042E-003           8      286068           0
</event>
<event>
      5   9999  3.19816E-02  9.86602E+01 -1.00000E+00  1.24092E-01
      -1    -1     0     0     0   501  0.000000000E+00  0.000000000E+00  2.273826189E+02  2.273826189E+02  0.000000000E+00  0.00000E+00  9.000E+00
      21    -1     0     0   501   502  0.000000000E+00  0.000000000E+00 -4.604786370E+02  4.604786370E+02  0.000000000E+00  0.00000E+00  9.000E+00
      25     1     1     2     0     0 -1.007820845E+02  2.119789038E+01  8.684464387E+01  1.837753283E+02  1.250000000E+02  0.00000E+00  9.000E+00
      25     1     1     2     0     0  1.461407645E+02 -1.088130724E+02 -3.379721798E+02  4.037915329E+02  1.250000000E+02  0.00000E+00  9.000E+00
      -1     1     1     2     0   502 -4.535867998E+01  8.761518199E+01  1.803151786E+01  1.002943947E+02  2.050954167E-06  0.00000E+00  9.000E+00
#rwgt            1           1   2.0927955502446052E-002           8      286087           0
</event>
<event>
      5   9999  3.19816E-02  6.83260E+01 -1.00000E+00  1.31755E-01
      21    -1     0     0   502   501  0.000000000E+00  0.000000000E+00  4.263106862E+02  4.263106862E+02  0.000000000E+00  0.00000E+00  9.000E+00
      21    -1     0     0   511   502  0.000000000E+00  0.000000000E+00 -4.988733436E+02  4.988733436E+02  0.000000000E+00  0.00000E+00  9.000E+00
      25     1     1     2     0     0  1.589329092E+02 -3.926151581E+02 -2.047269894E+01  4.420977985E+02  1.250000000E+02  0.00000E+00  9.000E+00
      25     1     1     2     0     0 -9.205565885E+01  3.786196299E+02 -2.629438990E+01  4.100530007E+02  1.250000000E+02  0.00000E+00  9.000E+00
      21     1     1     2   511   501 -6.687725032E+01  1.399552826E+01 -2.579556854E+01  7.303323064E+01  5.840038640E-07  0.00000E+00  9.000E+00
#rwgt            1           1   2.8996504836248729E-002           8      286158           0
</event>
<event>
      5   9999  3.19816E-02  1.30617E+02 -1.00000E+00  1.18826E-01
      21    -1     0     0   502   501  0.000000000E+00  0.000000000E+00  1.127921414E+03  1.127921414E+03  0.000000000E+00  0.00000E+00  9.000E+00
       1    -1     0     0   501     0  0.000000000E+00  0.000000000E+00 -4.253851744E+02  4.253851744E+02  0.000000000E+00  0.00000E+00  9.000E+00
      25     1     1     2     0     0 -1.280482611E+02  4.765915870E+01  9.133450724E+02  9.319291678E+02  1.250000000E+02  0.00000E+00  9.000E+00
      25     1     1     2     0     0  1.693794423E+02 -1.715641575E+02  9.590931839E+01  2.880056475E+02  1.250000000E+02  0.00000E+00  9.000E+00
       1     1     1     2   502     0 -4.133118117E+01  1.239049988E+02 -3.067181508E+02  3.333717734E+02  7.629394531E-06  0.00000E+00  9.000E+00
#rwgt            1           1   3.1536857125058035E-002           8      286246           0
</event>
<event>
      5   9999  3.19816E-02  6.04346E+01 -1.00000E+00  1.34536E-01
      21    -1     0     0   502   511  0.000000000E+00  0.000000000E+00  1.604073844E+02  1.604073844E+02  0.000000000E+00  0.00000E+00  9.000E+00
      21    -1     0     0   501   502  0.000000000E+00  0.000000000E+00 -1.712561129E+03  1.712561129E+03  0.000000000E+00  0.00000E+00  9.000E+00
      25     1     1     2     0     0 -1.366408774E+02 -1.657035561E+02 -1.398876550E+01  2.488957280E+02  1.250000000E+02  0.00000E+00  9.000E+00
      25     1     1     2     0     0  1.940989967E+02  1.844360956E+02 -1.535399097E+03  1.563574904E+03  1.250000000E+02  0.00000E+00  9.000E+00
      21     1     1     2   501   511 -5.745811937E+01 -1.873253951E+01 -2.765882128E+00  6.049788114E+01  1.490414113E-06  0.00000E+00  9.000E+00
#rwgt            1           1   3.3886703750309805E-002           8      286324           0
</event>
<event>
      5   9999  3.19816E-02  3.35424E+01 -1.00000E+00  1.49748E-01
      21    -1     0     0   502   501  0.000000000E+00  0.000000000E+00  9.244745474E+02  9.244745474E+02  0.000000000E+00  0.00000E+00  9.000E+00
      21    -1     0     0   512   502  0.000000000E+00  0.000000000E+00 -4.128680504E+02  4.128680504E+02  0.000000000E+00  0.00000E+00  9.000E+00
      25     1     1     2     0     0  1.692805879E+02  2.044988875E+02 -2.446705384E+02  3.820528560E+02  1.250000000E+02  0.00000E+00  9.000E+00
      25     1     1     2     0     0 -1.885513639E+02 -1.770447986E+02  8.278350236E+02  8.762604087E+02  1.250000000E+02  0.00000E+00  9.000E+00
      21     1     1     2   512   501  1.927077597E+01 -2.745408888E+01 -7.155798819E+01  7.902933301E+01  9.536743164E-07  0.00000E+00  9.000E+00
#rwgt            1           1   1.8820324020503529E-002           8      286440           0
</event>
<event>
      5   9999  3.19816E-02  7.49616E+00 -1.00000E+00  2.11434E-01
      21    -1     0     0   502   501  0.000000000E+00  0.000000000E+00  2.425373826E+02  2.425373826E+02  0.000000000E+00  0.00000E+00  9.000E+00
      21    -1     0     0   501   511  0.000000000E+00  0.000000000E+00 -3.936328952E+02  3.936328952E+02  0.000000000E+00  0.00000E+00  9.000E+00
      25     1     1     2     0     0  1.434718781E+02  1.956713364E+02  3.153298313E+01  2.747558566E+02  1.250000000E+02  0.00000E+00  9.000E+00
      25     1     1     2     0     0 -1.377840138E+02 -1.907886488E+02 -1.098166118E+02  2.882176802E+02  1.250000000E+02  0.00000E+00  9.000E+00
      21     1     1     2   502   511 -5.687864318E+00 -4.882687619E+00 -7.281188400E+01  7.319674098E+01  1.348699152E-06  0.00000E+00  9.000E+00
#rwgt            1           1   2.6802935230729644E-002           8      286612           0
</event>
<event>
      5   9999  3.19816E-02  1.29011E+02 -1.00000E+00  1.19049E-01
      21    -1     0     0   502   501  0.000000000E+00  0.000000000E+00  1.033482838E+03  1.033482838E+03  0.000000000E+00  0.00000E+00  9.000E+00
      21    -1     0     0   501   512  0.000000000E+00  0.000000000E+00 -9.918014988E+01  9.918014988E+01  0.000000000E+00  0.00000E+00  9.000E+00
      25     1     1     2     0     0  9.102371547E+01  9.483696290E+01  3.469518869E+02  3.915098698E+02  1.250000000E+02  0.00000E+00  9.000E+00
      25     1     1     2     0     0 -2.198879123E+02 -8.868153315E+01  5.415580066E+02  6.042558918E+02  1.250000000E+02  0.00000E+00  9.000E+00
      21     1     1     2   502   512  1.288641968E+02 -6.155429755E+00  4.579279472E+01  1.368972264E+02  1.168007728E-06  0.00000E+00  9.000E+00
#rwgt            1           1   3.2975558100138282E-002           8      286813           0
</event>
<event>
      5   9999  3.19816E-02  1.11882E+02 -1.00000E+00  1.21674E-01
      21    -1     0     0   502   511  0.000000000E+00  0.000000000E+00  6.178814543E+02  6.178814543E+02  0.000000000E+00  0.00000E+00  9.000E+00
      21    -1     0     0   501   502  0.000000000E+00  0.000000000E+00 -1.553859343E+02  1.553859343E+02  0.000000000E+00  0.00000E+00  9.000E+00
      25     1     1     2     0     0  1.564967109E+02  2.846777101E+01  8.101228769E+01  2.179211446E+02  1.250000000E+02  0.00000E+00  9.000E+00
      25     1     1     2     0     0 -2.451971449E+02 -9.665723460E+01  2.763712307E+02  4.018336945E+02  1.250000000E+02  0.00000E+00  9.000E+00
      21     1     1     2   501   511  8.870043408E+01  6.818946359E+01  1.051120016E+02  1.535125495E+02  2.336015456E-06  0.00000E+00  9.000E+00
#rwgt            1           1   2.8191280419771786E-002           8      286862           0
</event>
<event>
      5   9999  3.19816E-02  2.72059E+02 -1.00000E+00  1.06990E-01
       2    -1     0     0   502     0  0.000000000E+00  0.000000000E+00  9.674856983E+02  9.674856983E+02  0.000000000E+00  0.00000E+00  9.000E+00
      21    -1     0     0   501   502  0.000000000E+00  0.000000000E+00 -2.947577684E+02  2.947577684E+02  0.000000000E+00  0.00000E+00  9.000E+00
      25     1     1     2     0     0  1.721612757E+02 -3.607312753E+02  2.472646230E+02  4.863448896E+02  1.250000000E+02  0.00000E+00  9.000E+00
      25     1     1     2     0     0 -3.008022954E+02  1.210077561E+02  1.218727140E+02  3.682429312E+02  1.250000000E+02  0.00000E+00  9.000E+00
       2     1     1     2   501     0  1.286410197E+02  2.397235192E+02  3.035905929E+02  4.076556460E+02  3.814697266E-06  0.00000E+00  9.000E+00
#rwgt            1           1   2.8940417462943336E-002           8      286916           0
</event>
<event>
      5   9999  3.19816E-02  1.55488E+01 -1.00000E+00  1.75926E-01
      21    -1     0     0   502   501  0.000000000E+00  0.000000000E+00  6.222790083E+02  6.222790083E+02  0.000000000E+00  0.00000E+00  9.000E+00
      21    -1     0     0   501   511  0.000000000E+00  0.000000000E+00 -1.345947166E+03  1.345947166E+03  0.000000000E+00  0.00000E+00  9.000E+00
      25     1     1     2     0     0 -2.236377351E+02 -1.269885089E+02  5.443479354E+02  6.148817713E+02  1.250000000E+02  0.00000E+00  9.000E+00
      25     1     1     2     0     0  2.240194342E+02  1.425326030E+02 -4.629703316E+02  5.481484997E+02  1.250000000E+02  0.00000E+00  9.000E+00
      21     1     1     2   502   511 -3.816990937E-01 -1.554409411E+01 -8.050457615E+02  8.051959033E+02  0.000000000E+00  0.00000E+00  9.000E+00
#rwgt            1           1   2.7186596933710928E-002           8      286980           0
</event>
<event>
      5   9999  3.19816E-02  5.61729E+01 -1.00000E+00  1.36251E-01
      21    -1     0     0   512   501  0.000000000E+00  0.000000000E+00  2.068171298E+02  2.068171298E+02  0.000000000E+00  0.00000E+00  9.000E+00
      21    -1     0     0   501   502  0.000000000E+00  0.000000000E+00 -6.152740173E+02  6.152740173E+02  0.000000000E+00  0.00000E+00  9.000E+00
      25     1     1     2     0     0 -2.306741568E+02  6.134931480E+00 -1.270723191E+02  2.915828841E+02  1.250000000E+02  0.00000E+00  9.000E+00
      25     1     1     2     0     0  2.377873185E+02 -6.185565709E+01 -3.476207801E+02  4.436599350E+02  1.250000000E+02  0.00000E+00  9.000E+00
      21     1     1     2   512   502 -7.113161719E+00  5.572072561E+01  6.623621177E+01  8.684832803E+01  1.651812370E-06  0.00000E+00  9.000E+00
#rwgt            2          11   1.8769147691223152E-003           8      287262           0
</event>
<event>
      5   9999  3.19816E-02  2.88705E+01 -1.00000E+00  1.54207E-01
      21    -1     0     0   511   501  0.000000000E+00  0.000000000E+00  3.508665440E+02  3.508665440E+02  0.000000000E+00  0.00000E+00  9.000E+00
      21    -1     0     0   501   502  0.000000000E+00  0.000000000E+00 -2.456342217E+02  2.456342217E+02  0.000000000E+00  0.00000E+00  9.000E+00
      25     1     1     2     0     0 -6.744166155E+01 -1.694821412E+02 -1.117899945E+02  2.477792904E+02  1.250000000E+02  0.00000E+00  9.000E+00
      25     1     1     2     0     0  9.147453613E+01  1.854798784E+02  1.777734114E+02  2.999979365E+02  1.250000000E+02  0.00000E+00  9.000E+00
      21     1     1     2   511   502 -2.403287458E+01 -1.599773727E+01  3.924890541E+01  4.872353881E+01  6.743495762E-07  0.00000E+00  9.000E+00
#rwgt            1           1   2.6346919463523404E-002           8      287282           0
</event>
<event>
      5   9999  3.19816E-02  3.82770E+01 -1.00000E+00  1.46036E-01
      21    -1     0     0   502   501  0.000000000E+00  0.000000000E+00  1.478841429E+03  1.478841429E+03  0.000000000E+00  0.00000E+00  9.000E+00
      21    -1     0     0   501   512  0.000000000E+00  0.000000000E+00 -5.456915741E+01  5.456915741E+01  0.000000000E+00  0.00000E+00  9.000E+00
      25     1     1     2     0     0  1.223394688E+02 -1.446841639E+02  4.599624491E+02  5.129238808E+02  1.250000000E+02  0.00000E+00  9.000E+00
      25     1     1     2     0     0 -1.604135004E+02  1.486207299E+02  9.442566927E+02  9.772749430E+02  1.250000000E+02  0.00000E+00  9.000E+00
      21     1     1     2   502   512  3.807403155E+01 -3.936565991E+00  2.005313014E+01  4.321176297E+01  7.539457465E-07  0.00000E+00  9.000E+00
#rwgt            1           1   4.0595346807306615E-002           8      287382           0
</event>
<event>
      5   9999  3.19816E-02  1.69781E+01 -1.00000E+00  1.72461E-01
       2    -1     0     0   502     0  0.000000000E+00  0.000000000E+00  6.305909425E+02  6.305909425E+02  0.000000000E+00  0.00000E+00  9.000E+00
      21    -1     0     0   501   502  0.000000000E+00  0.000000000E+00 -1.279053042E+03  1.279053042E+03  0.000000000E+00  0.00000E+00  9.000E+00
      25     1     1     2     0     0 -6.999917697E+01 -6.900338400E+01 -3.495833396E+02  3.840505996E+02  1.250000000E+02  0.00000E+00  9.000E+00
      25     1     1     2     0     0  5.892652543E+01  8.187398892E+01 -9.050455639E+02  9.191888588E+02  1.250000000E+02  0.00000E+00  9.000E+00
       2     1     1     2   501     0  1.107265154E+01 -1.287060492E+01  6.061668035E+02  6.064045265E+02  1.078959322E-05  0.00000E+00  9.000E+00
#rwgt            1           1   4.0082448075591318E-002           8      287477           0
</event>
<event>
      5   9999  3.19816E-02  2.59456E+01 -1.00000E+00  1.57553E-01
      21    -1     0     0   502   501  0.000000000E+00  0.000000000E+00  1.281131072E+03  1.281131072E+03  0.000000000E+00  0.00000E+00  9.000E+00
      21    -1     0     0   511   502  0.000000000E+00  0.000000000E+00 -2.248518895E+02  2.248518895E+02  0.000000000E+00  0.00000E+00  9.000E+00
      25     1     1     2     0     0 -4.570191942E+02  6.563641995E+01  2.605796321E+02  5.447030642E+02  1.250000000E+02  0.00000E+00  9.000E+00
      25     1     1     2     0     0  4.713397478E+02 -4.400094166E+01  7.969157932E+02  9.353058442E+02  1.250000000E+02  0.00000E+00  9.000E+00
      21     1     1     2   511   501 -1.432055363E+01 -2.163547829E+01 -1.216243035E+00  2.597405290E+01  5.031211083E-07  0.00000E+00  9.000E+00
#rwgt            1           1   2.3210433046049674E-002           8      287552           0
</event>
<event>
      5   9999  3.19816E-02  2.61240E+01 -1.00000E+00  1.57333E-01
      21    -1     0     0   502   501  0.000000000E+00  0.000000000E+00  4.776406057E+02  4.776406057E+02  0.000000000E+00  0.00000E+00  9.000E+00
      21    -1     0     0   512   502  0.000000000E+00  0.000000000E+00 -5.466735599E+02  5.466735599E+02  0.000000000E+00  0.00000E+00  9.000E+00
      25     1     1     2     0     0 -7.382698162E+01 -1.559426636E+02  1.586543991E+02  2.656402754E+02  1.250000000E+02  0.00000E+00  9.000E+00
      25     1     1     2     0     0  9.599779448E+01  1.697599446E+02  2.145066309E+02  3.157089008E+02  1.250000000E+02  0.00000E+00  9.000E+00
      21     1     1     2   512   501 -2.217081286E+01 -1.381728100E+01 -4.421939842E+02  4.429649894E+02  0.000000000E+00  0.00000E+00  9.000E+00
#rwgt            1           1   2.7128769801992556E-002           8      287676           0
</event>
<event>
      5   9999  3.19816E-02  6.54327E+01 -1.00000E+00  1.32722E-01
      21    -1     0     0   511   501  0.000000000E+00  0.000000000E+00  1.453094113E+02  1.453094113E+02  0.000000000E+00  0.00000E+00  9.000E+00
      21    -1     0     0   501   502  0.000000000E+00  0.000000000E+00 -6.788585826E+02  6.788585826E+02  0.000000000E+00  0.00000E+00  9.000E+00
      25     1     1     2     0     0  3.482539531E+01 -1.238347364E-01 -2.271063798E+01  1.317330504E+02  1.250000000E+02  0.00000E+00  9.000E+00
      25     1     1     2     0     0  3.043209138E+01 -4.661479825E+00 -5.818221780E+02  5.958941923E+02  1.250000000E+02  0.00000E+00  9.000E+00
      21     1     1     2   511   502 -6.525748669E+01  4.785314562E+00  7.098364472E+01  9.654075110E+01  9.536743164E-07  0.00000E+00  9.000E+00
#rwgt            1           1   2.7741534081457596E-002           8      287760           0
</event>
<event>
      5   9999  3.19816E-02  4.98086E+01 -1.00000E+00  1.39171E-01
       2    -1     0     0   502     0  0.000000000E+00  0.000000000E+00  2.610171518E+03  2.610171518E+03  0.000000000E+00  0.00000E+00  9.000E+00
      21    -1     0     0   501   502  0.000000000E+00  0.000000000E+00 -1.807075778E+02  1.807075778E+02  0.000000000E+00  0.00000E+00  9.000E+00
      25     1     1     2     0     0  1.374334861E+02  3.189189739E+02  5.841643168E+01  3.736773401E+02  1.250000000E+02  0.00000E+00  9.000E+00
      25     1     1     2     0     0 -9.133580463E+01 -3.377842975E+02  1.522211417E+03  1.566905568E+03  1.250000000E+02  0.00000E+00  9.000E+00
       2     1     1     2   501     0 -4.609768147E+01  1.886532359E+01  8.488360913E+02  8.502961875E+02  1.525878906E-05  0.00000E+00  9.000E+00
#rwgt            1           1   2.9740970786433819E-002           8      287857           0
</event>
<event>
      5   9999  3.19816E-02  2.04381E+02 -1.00000E+00  1.11307E-01
       2    -1     0     0   502     0  0.000000000E+00  0.000000000E+00  6.314613015E+02  6.314613015E+02  0.000000000E+00  0.00000E+00  9.000E+00
      21    -1     0     0   501   502  0.000000000E+00  0.000000000E+00 -2.837304803E+02  2.837304803E+02  0.000000000E+00  0.00000E+00  9.000E+00
      25     1     1     2     0     0  1.760516432E+02 -2.308873229E+02  1.829009617E+00  3.161194114E+02  1.250000000E+02  0.00000E+00  9.000E+00
      25     1     1     2     0     0 -1.824303231E+02  2.660609235E+01  3.276399351E+01  2.251381492E+02  1.250000000E+02  0.00000E+00  9.000E+00
       2     1     1     2   501     0  6.378679930E+00  2.042812306E+02  3.131378181E+02  3.739342213E+02  3.814697266E-06  0.00000E+00  9.000E+00
#rwgt            1           1   2.7433851505422453E-002           8      287977           0
</event>
<event>
      5   9999  3.19816E-02  1.85952E+01 -1.00000E+00  1.69022E-01
      21    -1     0     0   502   501  0.000000000E+00  0.000000000E+00  1.670203055E+02  1.670203055E+02  0.000000000E+00  0.00000E+00  9.000E+00
      21    -1     0     0   511   502  0.000000000E+00  0.000000000E+00 -9.576812497E+02  9.576812497E+02  0.000000000E+00  0.00000E+00  9.000E+00
      25     1     1     2     0     0  7.202084729E+01  8.506332142E+01 -7.746639768E+02  7.925604381E+02  1.250000000E+02  0.00000E+00  9.000E+00
      25     1     1     2     0     0 -8.847658123E+01 -7.640369535E+01  1.108700292E+02  2.039185952E+02  1.250000000E+02  0.00000E+00  9.000E+00
      21     1     1     2   511   501  1.645573394E+01 -8.659626067E+00 -1.268669966E+02  1.282225220E+02  1.348699152E-06  0.00000E+00  9.000E+00
#rwgt            1           1   2.6257598468709238E-002           8      288012           0
</event>
<event>
      5   9999  3.19816E-02  2.59700E+02 -1.00000E+00  1.07668E-01
      21    -1     0     0   512   501  0.000000000E+00  0.000000000E+00  2.065076808E+02  2.065076808E+02  0.000000000E+00  0.00000E+00  9.000E+00
      21    -1     0     0   501   502  0.000000000E+00  0.000000000E+00 -7.418969532E+02  7.418969532E+02  0.000000000E+00  0.00000E+00  9.000E+00
      25     1     1     2     0     0  2.348407761E+02  2.130199195E+02 -3.365767569E+02  4.789953962E+02  1.250000000E+02  0.00000E+00  9.000E+00
      25     1     1     2     0     0 -7.995494924E+01 -4.562268895E+00 -1.379900832E+02  2.026816994E+02  1.250000000E+02  0.00000E+00  9.000E+00
      21     1     1     2   512   502 -1.548858269E+02 -2.084576506E+02 -6.082243217E+01  2.667275384E+02  6.572746635E-06  0.00000E+00  9.000E+00
#rwgt            1           1   3.5153005985153155E-002           8      288243           0
</event>
<event>
      5   9999  3.19816E-02  8.79547E+01 -1.00000E+00  1.26388E-01
      21    -1     0     0   511   501  0.000000000E+00  0.000000000E+00  6.051255046E+02  6.051255046E+02  0.000000000E+00  0.00000E+00  9.000E+00
      21    -1     0     0   501   502  0.000000000E+00  0.000000000E+00 -2.140432905E+02  2.140432905E+02  0.000000000E+00  0.00000E+00  9.000E+00
      25     1     1     2     0     0 -2.251478922E+02  1.823701127E+02  1.527868767E+01  3.159254179E+02  1.250000000E+02  0.00000E+00  9.000E+00
      25     1     1     2     0     0  1.842297141E+02 -1.045130327E+02  2.917443585E+02  3.815800470E+02  1.250000000E+02  0.00000E+00  9.000E+00
      21     1     1     2   511   502  4.091817818E+01 -7.785708000E+01  8.405916792E+01  1.216633302E+02  9.536743164E-07  0.00000E+00  9.000E+00
#rwgt            1           1   2.7028211282238899E-002           8      288289           0
</event>
<event>
      5   9999  3.19816E-02  4.29520E+02 -1.00000E+00  1.00763E-01
      21    -1     0     0   502   512  0.000000000E+00  0.000000000E+00  9.277663784E+02  9.277663784E+02  0.000000000E+00  0.00000E+00  9.000E+00
      21    -1     0     0   501   502  0.000000000E+00  0.000000000E+00 -6.463222671E+02  6.463222671E+02  0.000000000E+00  0.00000E+00  9.000E+00
      25     1     1     2     0     0 -1.035039325E+02  2.575356849E+02 -4.752455449E+02  5.643766659E+02  1.250000000E+02  0.00000E+00  9.000E+00
      25     1     1     2     0     0 -1.977199813E+01  1.539137384E+02  9.478158452E+01  2.206556583E+02  1.250000000E+02  0.00000E+00  9.000E+00
      21     1     1     2   501   512  1.232759306E+02 -4.114494233E+02  6.619080717E+02  7.890563214E+02  7.629394531E-06  0.00000E+00  9.000E+00
#rwgt            2          11   3.9221278544706046E-003           8      288472           0
</event>
<event>
      5   9999  3.19816E-02  1.31086E+02 -1.00000E+00  1.18762E-01
      21    -1     0     0   511   501  0.000000000E+00  0.000000000E+00  1.499354613E+03  1.499354613E+03  0.000000000E+00  0.00000E+00  9.000E+00
      21    -1     0     0   501   502  0.000000000E+00  0.000000000E+00 -2.275476283E+02  2.275476283E+02  0.000000000E+00  0.00000E+00  9.000E+00
      25     1     1     2     0     0 -4.144318430E+02 -1.083735734E+02  5.260769172E+02  6.898409286E+02  1.250000000E+02  0.00000E+00  9.000E+00
      25     1     1     2     0     0  5.420578939E+02  7.845406912E+01  4.727322950E+02  7.342224623E+02  1.250000000E+02  0.00000E+00  9.000E+00
      21     1     1     2   511   502 -1.276260509E+02  2.991950430E+01  2.729977726E+02  3.028388506E+02  3.814697266E-06  0.00000E+00  9.000E+00
#rwgt            1           1   3.1131529723747307E-002           8      288537           0
</event>
<event>
      5   9999  3.19816E-02  4.68403E+01 -1.00000E+00  1.40713E-01
       2    -1     0     0   502     0  0.000000000E+00  0.000000000E+00  1.328452280E+03  1.328452280E+03  0.000000000E+00  0.00000E+00  9.000E+00
      21    -1     0     0   501   502  0.000000000E+00  0.000000000E+00 -3.238555038E+02  3.238555038E+02  0.000000000E+00  0.00000E+00  9.000E+00
      25     1     1     2     0     0  2.407715764E+02 -2.845416868E+02 -2.966312075E+00  3.931522892E+02  1.250000000E+02  0.00000E+00  9.000E+00
      25     1     1     2     0     0 -2.847732692E+02  2.684835378E+02  2.122121008E+02  4.624264273E+02  1.250000000E+02  0.00000E+00  9.000E+00
       2     1     1     2   501     0  4.400169286E+01  1.605814897E+01  7.953509879E+02  7.967290675E+02  0.000000000E+00  0.00000E+00  9.000E+00
#rwgt            1           1   3.2469132712952854E-002           8      288602           0
</event>
<event>
      5   9999  3.19816E-02  5.67604E+00 -1.00000E+00  2.29282E-01
      21    -1     0     0   511   501  0.000000000E+00  0.000000000E+00  4.752643315E+02  4.752643315E+02  0.000000000E+00  0.00000E+00  9.000E+00
      21    -1     0     0   501   502  0.000000000E+00  0.000000000E+00 -2.302389500E+02  2.302389500E+02  0.000000000E+00  0.00000E+00  9.000E+00
      25     1     1     2     0     0 -9.122039945E+01 -1.943293600E+02 -5.790315266E+01  2.550741785E+02  1.250000000E+02  0.00000E+00  9.000E+00
      25     1     1     2     0     0  9.354048629E+01  1.891491422E+02  1.303304819E+02  2.777377452E+02  1.250000000E+02  0.00000E+00  9.000E+00
      21     1     1     2   511   502 -2.320086843E+00  5.180217794E+00  1.725980522E+02  1.726913579E+02  2.697398305E-06  0.00000E+00  9.000E+00
#rwgt            1           1   2.4148055603250403E-002           8      288691           0
</event>
<event>
      5   9999  3.19816E-02  3.45528E+01 -1.00000E+00  1.48897E-01
      21    -1     0     0   512   501  0.000000000E+00  0.000000000E+00  1.146636586E+03  1.146636586E+03  0.000000000E+00  0.00000E+00  9.000E+00
      21    -1     0     0   501   502  0.000000000E+00  0.000000000E+00 -2.000697885E+03  2.000697885E+03  0.000000000E+00  0.00000E+00  9.000E+00
      25     1     1     2     0     0 -4.722016878E+02  1.293074128E+03 -1.703351499E+02  1.392714686E+03  1.250000000E+02  0.00000E+00  9.000E+00
      25     1     1     2     0     0  4.422155495E+02 -1.275906544E+03 -8.395706035E+02  1.594990877E+03  1.250000000E+02  0.00000E+00  9.000E+00
      21     1     1     2   512   502  2.998613832E+01 -1.716758374E+01  1.558444534E+02  1.596289074E+02  2.697398305E-06  0.00000E+00  9.000E+00
#rwgt            1           1   4.7900484441524699E-002           8      289053           0
</event>
<event>
      5   9999  3.19816E-02  2.14280E+02 -1.00000E+00  1.10568E-01
      21    -1     0     0   502   511  0.000000000E+00  0.000000000E+00  2.386205117E+02  2.386205117E+02  0.000000000E+00  0.00000E+00  9.000E+00
      21    -1     0     0   501   502  0.000000000E+00  0.000000000E+00 -1.401309484E+03  1.401309484E+03  0.000000000E+00  0.00000E+00  9.000E+00
      25     1     1     2     0     0 -8.744857047E+01  2.676263648E+02 -2.397332463E+02  3.903436345E+02  1.250000000E+02  0.00000E+00  9.000E+00
      25     1     1     2     0     0 -1.137879444E+02 -3.412444212E+02 -9.594129125E+02  1.032227488E+03  1.250000000E+02  0.00000E+00  9.000E+00
      21     1     1     2   501   511  2.012365149E+02  7.361805643E+01  3.645718632E+01  2.173588728E+02  2.523185073E-06  0.00000E+00  9.000E+00
#rwgt            1           1   2.7600684391997893E-002           8      289229           0
</event>
<event>
      5   9999  3.19816E-02  2.99219E+02 -1.00000E+00  1.05629E-01
       2    -1     0     0   502     0  0.000000000E+00  0.000000000E+00  2.948258280E+03  2.948258280E+03  0.000000000E+00  0.00000E+00  9.000E+00
      21    -1     0     0   501   502  0.000000000E+00  0.000000000E+00 -7.359432462E+01  7.359432462E+01  0.000000000E+00  0.00000E+00  9.000E+00
      25     1     1     2     0     0 -3.655255341E+02  6.508768358E+01  1.186735611E+03  1.249724663E+03  1.250000000E+02  0.00000E+00  9.000E+00
      25     1     1     2     0     0  6.731252814E+01 -8.960047110E+01  2.355915775E+02  2.892881129E+02  1.250000000E+02  0.00000E+00  9.000E+00
       2     1     1     2   501     0  2.982130059E+02  2.451278753E+01  1.452336767E+03  1.482839829E+03  2.157918644E-05  0.00000E+00  9.000E+00
#rwgt            2          18   1.5566376887385515E-003           8      289307           0
</event>
<event>
      5   9999  3.19816E-02  1.35202E+01 -1.00000E+00  1.81741E-01
      21    -1     0     0   511   501  0.000000000E+00  0.000000000E+00  6.257033532E+02  6.257033532E+02  0.000000000E+00  0.00000E+00  9.000E+00
      21    -1     0     0   501   502  0.000000000E+00  0.000000000E+00 -4.171311211E+02  4.171311211E+02  0.000000000E+00  0.00000E+00  9.000E+00
      25     1     1     2     0     0  4.298230351E+02  2.194533656E+02  1.965355761E+02  5.358720499E+02  1.250000000E+02  0.00000E+00  9.000E+00
      25     1     1     2     0     0 -4.180071078E+02 -2.260244220E+02  4.302259769E+00  4.913862950E+02  1.250000000E+02  0.00000E+00  9.000E+00
      21     1     1     2   511   502 -1.181592734E+01  6.571056434E+00  7.734396260E+00  1.557612940E+01  1.685873940E-07  0.00000E+00  9.000E+00
#rwgt            1           1   2.8746713101126784E-002           8      289326           0
</event>
<event>
      5   9999  3.19816E-02  2.03908E+02 -1.00000E+00  1.11343E-01
      21    -1     0     0   502   501  0.000000000E+00  0.000000000E+00  5.336489364E+02  5.336489364E+02  0.000000000E+00  0.00000E+00  9.000E+00
      21    -1     0     0   512   502  0.000000000E+00  0.000000000E+00 -1.732357561E+03  1.732357561E+03  0.000000000E+00  0.00000E+00  9.000E+00
      25     1     1     2     0     0 -8.478499296E+02  2.510956847E+02 -9.615307541E+02  1.312274719E+03  1.250000000E+02  0.00000E+00  9.000E+00
      25     1     1     2     0     0  6.606324515E+02 -1.703001856E+02 -8.390797434E+01  6.986436412E+02  1.250000000E+02  0.00000E+00  9.000E+00
      21     1     1     2   512   501  1.872174781E+02 -8.079549909E+01 -1.532698957E+02  2.550881371E+02  3.814697266E-06  0.00000E+00  9.000E+00
#rwgt            1           1   2.3374477631689976E-002           8      289518           0
</event>
<event>
      5   9999  3.19816E-02  4.42928E+01 -1.00000E+00  1.42147E-01
      21    -1     0     0   502   501  0.000000000E+00  0.000000000E+00  2.156827297E+03  2.156827297E+03  0.000000000E+00  0.00000E+00  9.000E+00
      21    -1     0     0   501   511  0.000000000E+00  0.000000000E+00 -3.420883564E+01  3.420883564E+01  0.000000000E+00  0.00000E+00  9.000E+00
      25     1     1     2     0     0  1.121241316E+02 -1.762033352E+02  1.176057461E+03  1.200981094E+03  1.250000000E+02  0.00000E+00  9.000E+00
      25     1     1     2     0     0 -1.436556538E+02  1.450967496E+02  8.615879318E+02  8.942308303E+02  1.250000000E+02  0.00000E+00  9.000E+00
      21     1     1     2   502   511  3.153152219E+01  3.110658558E+01  8.497306876E+01  9.582420869E+01  0.000000000E+00  0.00000E+00  9.000E+00
#rwgt            1           1   8.4916269179495962E-002           8      289651           0
</event>
<event>
      5   9999  3.19816E-02  4.05212E+01 -1.00000E+00  1.44492E-01
      21    -1     0     0   502   512  0.000000000E+00  0.000000000E+00  7.362238925E+02  7.362238925E+02  0.000000000E+00  0.00000E+00  9.000E+00
      21    -1     0     0   501   502  0.000000000E+00  0.000000000E+00 -1.178322764E+03  1.178322764E+03  0.000000000E+00  0.00000E+00  9.000E+00
      25     1     1     2     0     0  2.745286145E+02 -3.846678354E+02  5.644151396E+02  7.466758022E+02  1.250000000E+02  0.00000E+00  9.000E+00
      25     1     1     2     0     0 -2.579861172E+02  3.476771598E+02 -1.027694162E+03  1.122148179E+03  1.250000000E+02  0.00000E+00  9.000E+00
      21     1     1     2   501   512 -1.654249730E+01  3.699067565E+01  2.118015071E+01  4.572267584E+01  7.907449699E-07  0.00000E+00  9.000E+00
#rwgt            1           1   3.2299835090743315E-002           8      289741           0
</event>
<event>
      5   9999  3.19816E-02  6.41112E+01 -1.00000E+00  1.33183E-01
      21    -1     0     0   502   501  0.000000000E+00  0.000000000E+00  1.604915427E+02  1.604915427E+02  0.000000000E+00  0.00000E+00  9.000E+00
      -3    -1     0     0     0   502  0.000000000E+00  0.000000000E+00 -8.934245142E+02  8.934245142E+02  0.000000000E+00  0.00000E+00  9.000E+00
      25     1     1     2     0     0  1.975279624E+02  1.191111825E+02 -2.514729051E+01  2.635567414E+02  1.250000000E+02  0.00000E+00  9.000E+00
      25     1     1     2     0     0 -1.376961003E+02 -1.421414855E+02 -3.153848847E+02  3.927557045E+02  1.250000000E+02  0.00000E+00  9.000E+00
      -3     1     1     2     0   501 -5.983186207E+01  2.303030305E+01 -3.924007963E+02  3.976036110E+02  0.000000000E+00  0.00000E+00  9.000E+00
#rwgt            1           1   2.1034788576866383E-002           8      289875           0
</event>
<event>
      5   9999  3.19816E-02  1.30550E+02 -1.00000E+00  1.18835E-01
      21    -1     0     0   502   501  0.000000000E+00  0.000000000E+00  4.960295392E+02  4.960295392E+02  0.000000000E+00  0.00000E+00  9.000E+00
       1    -1     0     0   501     0  0.000000000E+00  0.000000000E+00 -3.435112155E+03  3.435112155E+03  0.000000000E+00  0.00000E+00  9.000E+00
      25     1     1     2     0     0  5.224820691E+02  8.405430781E+02 -5.537066931E+02  1.140927816E+03  1.250000000E+02  0.00000E+00  9.000E+00
      25     1     1     2     0     0 -6.296743800E+02 -9.150625958E+02 -1.377729760E+03  1.774145899E+03  1.250000000E+02  0.00000E+00  9.000E+00
       1     1     1     2   502     0  1.071923108E+02  7.451951768E+01 -1.007646163E+03  1.016067980E+03  0.000000000E+00  0.00000E+00  9.000E+00
#rwgt            2          12   4.0507528558934793E-004           8      289994           0
</event>
<event>
      5   9999  3.19816E-02  1.22318E+01 -1.00000E+00  1.86158E-01
      21    -1     0     0   502   501  0.000000000E+00  0.000000000E+00  1.030733703E+03  1.030733703E+03  0.000000000E+00  0.00000E+00  9.000E+00
      21    -1     0     0   501   511  0.000000000E+00  0.000000000E+00 -3.730254233E+02  3.730254233E+02  0.000000000E+00  0.00000E+00  9.000E+00
      25     1     1     2     0     0  3.250186838E+02 -5.009009275E+02  4.137608575E+02  7.371308779E+02  1.250000000E+02  0.00000E+00  9.000E+00
      25     1     1     2     0     0 -3.332081421E+02  4.918151849E+02  2.443202436E+02  6.543907269E+02  1.250000000E+02  0.00000E+00  9.000E+00
      21     1     1     2   502   511  8.189458259E+00  9.085742650E+00 -3.728210227E-01  1.223752187E+01  1.088651955E-07  0.00000E+00  9.000E+00
#rwgt            1           1   3.1465857388262672E-002           8      290058           0
</event>
<event>
      5   9999  3.19816E-02  3.51080E+01 -1.00000E+00  1.48444E-01
      21    -1     0     0   502   501  0.000000000E+00  0.000000000E+00  1.164623286E+03  1.164623286E+03  0.000000000E+00  0.00000E+00  9.000E+00
      21    -1     0     0   512   502  0.000000000E+00  0.000000000E+00 -3.694518134E+02  3.694518134E+02  0.000000000E+00  0.00000E+00  9.000E+00
      25     1     1     2     0     0  2.897511076E+02  3.301743917E+02  8.224303260E+02  9.407377289E+02  1.250000000E+02  0.00000E+00  9.000E+00
      25     1     1     2     0     0 -2.994383049E+02 -2.964293375E+02  1.088471728E+02  4.527762776E+02  1.250000000E+02  0.00000E+00  9.000E+00
      21     1     1     2   512   501  9.687197290E+00 -3.374505425E+01 -1.361060262E+02  1.405610930E+02  0.000000000E+00  0.00000E+00  9.000E+00
#rwgt            1           1   2.8373866621362050E-002           8      290318           0
</event>
<event>
      5   9999  3.19816E-02  3.10799E+01 -1.00000E+00  1.51981E-01
      21    -1     0     0   511   501  0.000000000E+00  0.000000000E+00  1.798272878E+02  1.798272878E+02  0.000000000E+00  0.00000E+00  9.000E+00
      21    -1     0     0   501   502  0.000000000E+00  0.000000000E+00 -3.020741528E+03  3.020741528E+03  0.000000000E+00  0.00000E+00  9.000E+00
      25     1     1     2     0     0  5.904274854E+02  1.178017372E+01 -7.974073046E+02  1.000113392E+03  1.250000000E+02  0.00000E+00  9.000E+00
      25     1     1     2     0     0 -6.058598383E+02 -3.875801552E+01 -2.069255427E+03  2.160095218E+03  1.250000000E+02  0.00000E+00  9.000E+00
      21     1     1     2   511   502  1.543235289E+01  2.697784180E+01  2.574849100E+01  4.036020630E+01  8.259061849E-07  0.00000E+00  9.000E+00
#rwgt            1           1   6.2288968108321692E-002           8      290396           0
</event>
<event>
      5   9999  3.19816E-02  2.86552E+01 -1.00000E+00  1.54436E-01
      21    -1     0     0   512   501  0.000000000E+00  0.000000000E+00  3.593070439E+02  3.593070439E+02  0.000000000E+00  0.00000E+00  9.000E+00
      21    -1     0     0   501   502  0.000000000E+00  0.000000000E+00 -3.590329439E+02  3.590329439E+02  0.000000000E+00  0.00000E+00  9.000E+00
      25     1     1     2     0     0  1.064027650E+02 -2.552942446E+02 -1.660810038E+02  3.459835249E+02  1.250000000E+02  0.00000E+00  9.000E+00
      25     1     1     2     0     0 -1.310011535E+02  2.405958709E+02  1.656880108E+02  3.436934568E+02  1.250000000E+02  0.00000E+00  9.000E+00
      21     1     1     2   512   502  2.459838855E+01  1.469837370E+01  6.670929972E-01  2.866300615E+01  4.059711911E-07  0.00000E+00  9.000E+00
#rwgt            1           1   2.7330014772196397E-002           8      290596           0
</event>
<event>
      5   9999  3.19816E-02  1.49265E+01 -1.00000E+00  1.77585E-01
      21    -1     0     0   511   501  0.000000000E+00  0.000000000E+00  4.193931386E+03  4.193931386E+03  0.000000000E+00  0.00000E+00  9.000E+00
      21    -1     0     0   501   502  0.000000000E+00  0.000000000E+00 -2.424424879E+02  2.424424879E+02  0.000000000E+00  0.00000E+00  9.000E+00
      25     1     1     2     0     0  3.922409705E+02 -8.595268011E+02  1.381077065E+03  1.677986341E+03  1.250000000E+02  0.00000E+00  9.000E+00
      25     1     1     2     0     0 -4.065702654E+02  8.553467679E+02  2.339788758E+03  2.527281920E+03  1.250000000E+02  0.00000E+00  9.000E+00
      21     1     1     2   511   502  1.432929486E+01  4.180033228E+00  2.306230752E+02  2.311056126E+02  2.697398305E-06  0.00000E+00  9.000E+00
#rwgt            1           1   3.2902598370139577E-002           8      290688           0
</event>
<event>
      5   9999  3.19816E-02  4.39650E+01 -1.00000E+00  1.42340E-01
      21    -1     0     0   502   501  0.000000000E+00  0.000000000E+00  1.741928747E+03  1.741928747E+03  0.000000000E+00  0.00000E+00  9.000E+00
       2    -1     0     0   501     0  0.000000000E+00  0.000000000E+00 -7.006777970E+02  7.006777970E+02  0.000000000E+00  0.00000E+00  9.000E+00
      25     1     1     2     0     0 -8.018968497E+01 -1.550396833E+02 -4.834402336E+02  5.289680032E+02  1.250000000E+02  0.00000E+00  9.000E+00
      25     1     1     2     0     0  1.077745194E+02  1.208051711E+02  1.710507080E+03  1.722692285E+03  1.250000000E+02  0.00000E+00  9.000E+00
       2     1     1     2   502     0 -2.758483447E+01  3.423451219E+01 -1.858158971E+02  1.909462556E+02  4.672030912E-06  0.00000E+00  9.000E+00
#rwgt            1           1   3.4444318487892450E-002           8      290945           0
</event>
<event>
      5   9999  3.19816E-02  1.04786E+02 -1.00000E+00  1.22922E-01
      21    -1     0     0   511   501  0.000000000E+00  0.000000000E+00  5.756335515E+02  5.756335515E+02  0.000000000E+00  0.00000E+00  9.000E+00
      21    -1     0     0   501   502  0.000000000E+00  0.000000000E+00 -1.809468686E+03  1.809468686E+03  0.000000000E+00  0.00000E+00  9.000E+00
      25     1     1     2     0     0 -5.435616092E+02  4.038566620E+02 -5.192082534E+01  6.905651299E+02  1.250000000E+02  0.00000E+00  9.000E+00
      25     1     1     2     0     0  5.641193472E+02 -5.066065549E+02 -1.316262463E+03  1.524156393E+03  1.250000000E+02  0.00000E+00  9.000E+00
      21     1     1     2   511   502 -2.055773796E+01  1.027498928E+02  1.343481545E+02  1.703807139E+02  5.046370146E-06  0.00000E+00  9.000E+00
#rwgt            1           1   2.8586086929761483E-002           8      291094           0
</event>
<event>
      5   9999  3.19816E-02  2.20417E+02 -1.00000E+00  1.10133E-01
      21    -1     0     0   502   501  0.000000000E+00  0.000000000E+00  7.918256858E+02  7.918256858E+02  0.000000000E+00  0.00000E+00  9.000E+00
      21    -1     0     0   512   502  0.000000000E+00  0.000000000E+00 -4.555217358E+02  4.555217358E+02  0.000000000E+00  0.00000E+00  9.000E+00
      25     1     1     2     0     0 -3.447935563E+02 -1.928338995E+02  4.592498727E+02  6.185490723E+02  1.250000000E+02  0.00000E+00  9.000E+00
      25     1     1     2     0     0  2.321293830E+02  3.385969325E+00  1.294284858E+02  2.937213785E+02  1.250000000E+02  0.00000E+00  9.000E+00
      21     1     1     2   512   501  1.126641733E+02  1.894479302E+02 -2.523744085E+02  3.350769707E+02  5.394796609E-06  0.00000E+00  9.000E+00
#rwgt            2          11   4.0628555785631581E-003           8      291321           0
</event>
<event>
      5   9999  3.19816E-02  4.91525E+01 -1.00000E+00  1.39500E-01
       1    -1     0     0   502     0  0.000000000E+00  0.000000000E+00  8.246031476E+02  8.246031476E+02  0.000000000E+00  0.00000E+00  9.000E+00
      21    -1     0     0   501   502  0.000000000E+00  0.000000000E+00 -4.799432902E+02  4.799432902E+02  0.000000000E+00  0.00000E+00  9.000E+00
      25     1     1     2     0     0  4.035844017E+02 -2.295325570E+02  5.542958119E+02  7.337809013E+02  1.250000000E+02  0.00000E+00  9.000E+00
      25     1     1     2     0     0 -3.894104953E+02  1.824680002E+02 -1.122719951E+02  4.616980678E+02  1.250000000E+02  0.00000E+00  9.000E+00
       1     1     1     2   501     0 -1.417390644E+01  4.706455682E+01 -9.736395939E+01  1.090674687E+02  0.000000000E+00  0.00000E+00  9.000E+00
#rwgt            1           1   3.0272479650747468E-002           8      291356           0
</event>
<event>
      5   9999  3.19816E-02  3.70448E+01 -1.00000E+00  1.46938E-01
      21    -1     0     0   502   501  0.000000000E+00  0.000000000E+00  2.212369485E+03  2.212369485E+03  0.000000000E+00  0.00000E+00  9.000E+00
      21    -1     0     0   511   502  0.000000000E+00  0.000000000E+00 -1.373346257E+02  1.373346257E+02  0.000000000E+00  0.00000E+00  9.000E+00
      25     1     1     2     0     0  5.171899756E+01  8.451249005E+01  1.942558329E+03  1.949095964E+03  1.250000000E+02  0.00000E+00  9.000E+00
      25     1     1     2     0     0 -8.662649675E+01 -7.211155310E+01  2.364470910E+02  2.902351683E+02  1.250000000E+02  0.00000E+00  9.000E+00
      21     1     1     2   511   501  3.490749919E+01 -1.240093696E+01 -1.039705610E+02  1.103729781E+02  4.473129043E-06  0.00000E+00  9.000E+00
#rwgt            1           1   6.9653733577439786E-002           8      291508           0
</event>
<event>
      5   9999  3.19816E-02  1.51320E+01 -1.00000E+00  1.77026E-01
       2    -1     0     0   502     0  0.000000000E+00  0.000000000E+00  1.206402029E+03  1.206402029E+03  0.000000000E+00  0.00000E+00  9.000E+00
      21    -1     0     0   501   502  0.000000000E+00  0.000000000E+00 -1.025256300E+02  1.025256300E+02  0.000000000E+00  0.00000E+00  9.000E+00
      25     1     1     2     0     0 -9.092372373E+01 -1.652376502E+01  2.703429489E+02  3.118500735E+02  1.250000000E+02  0.00000E+00  9.000E+00
      25     1     1     2     0     0  9.846067196E+01  2.964515741E+01 -1.540703891E+00  1.618663432E+02  1.250000000E+02  0.00000E+00  9.000E+00
       2     1     1     2   501     0 -7.536948234E+00 -1.312139239E+01  8.350741542E+02  8.352112425E+02  1.078959322E-05  0.00000E+00  9.000E+00
#rwgt            1           1   2.6726209772511587E-002           8      291633           0
</event>
<event>
      5   9999  3.19816E-02  9.81620E+01 -1.00000E+00  1.24191E-01
       2    -1     0     0   502     0  0.000000000E+00  0.000000000E+00  1.490836174E+03  1.490836174E+03  0.000000000E+00  0.00000E+00  9.000E+00
      21    -1     0     0   501   502  0.000000000E+00  0.000000000E+00 -2.842891954E+02  2.842891954E+02  0.000000000E+00  0.00000E+00  9.000E+00
      25     1     1     2     0     0 -2.237196578E+02 -1.504705738E+02 -7.825000658E+00  2.972845598E+02  1.250000000E+02  0.00000E+00  9.000E+00
      25     1     1     2     0     0  2.816433636E+02  2.297209868E+02  1.557896088E+02  4.147169134E+02  1.250000000E+02  0.00000E+00  9.000E+00
       2     1     1     2   501     0 -5.792370579E+01 -7.925041305E+01  1.058582370E+03  1.063123896E+03  1.525878906E-05  0.00000E+00  9.000E+00
#rwgt            1           1   2.8632743507423949E-002           8      291782           0
</event>
<event>
      5   9999  3.19816E-02  1.16316E+02 -1.00000E+00  1.20946E-01
      21    -1     0     0   502   501  0.000000000E+00  0.000000000E+00  1.541321293E+03  1.541321293E+03  0.000000000E+00  0.00000E+00  9.000E+00
      21    -1     0     0   511   502  0.000000000E+00  0.000000000E+00 -2.304054156E+02  2.304054156E+02  0.000000000E+00  0.00000E+00  9.000E+00
      25     1     1     2     0     0 -3.715019353E+02 -1.693328777E+02  1.181291563E+03  1.256089992E+03  1.250000000E+02  0.00000E+00  9.000E+00
      25     1     1     2     0     0  2.872014007E+02  8.919058859E+01  1.975814413E+02  3.809239184E+02  1.250000000E+02  0.00000E+00  9.000E+00
      21     1     1     2   511   501  8.430053466E+01  8.014228909E+01 -6.795712750E+01  1.347127975E+02  1.907348633E-06  0.00000E+00  9.000E+00
#rwgt            1           1   2.6354801039135772E-002           8      291862           0
</event>
<event>
      5   9999  3.19816E-02  2.50205E+01 -1.00000E+00  1.58724E-01
      21    -1     0     0   502   512  0.000000000E+00  0.000000000E+00  3.143432422E+02  3.143432422E+02  0.000000000E+00  0.00000E+00  9.000E+00
      21    -1     0     0   501   502  0.000000000E+00  0.000000000E+00 -1.517876823E+02  1.517876823E+02  0.000000000E+00  0.00000E+00  9.000E+00
      25     1     1     2     0     0 -9.544422606E+01 -2.543702533E-01  3.923401427E+01  1.620924825E+02  1.250000000E+02  0.00000E+00  9.000E+00
      25     1     1     2     0     0  7.381008334E+01 -1.231491084E+01 -2.995407576E+01  1.487340986E+02  1.250000000E+02  0.00000E+00  9.000E+00
      21     1     1     2   501   512  2.163414272E+01  1.256928109E+01  1.532756214E+02  1.553043434E+02  0.000000000E+00  0.00000E+00  9.000E+00
#rwgt            1           1   6.0283108350355628E-002           8      291930           0
</event>
<event>
      5   9999  3.19816E-02  3.81723E+01 -1.00000E+00  1.46111E-01
      21    -1     0     0   502   501  0.000000000E+00  0.000000000E+00  6.970717123E+01  6.970717123E+01  0.000000000E+00  0.00000E+00  9.000E+00
      21    -1     0     0   501   511  0.000000000E+00  0.000000000E+00 -1.439123328E+03  1.439123328E+03  0.000000000E+00  0.00000E+00  9.000E+00
      25     1     1     2     0     0 -2.021932369E+02 -1.467372172E+02 -6.109174172E+02  6.717581459E+02  1.250000000E+02  0.00000E+00  9.000E+00
      25     1     1     2     0     0  1.755882918E+02  1.193637984E+02 -3.570170401E+02  4.337800497E+02  1.250000000E+02  0.00000E+00  9.000E+00
      21     1     1     2   502   511  2.660494512E+01  2.737341880E+01 -4.014816996E+02  4.032923038E+02  7.629394531E-06  0.00000E+00  9.000E+00
#rwgt            1           1   3.5247009583156567E-002           8      292064           0
</event>
<event>
      5   9999  3.19816E-02  7.03820E+01 -1.00000E+00  1.31101E-01
      21    -1     0     0   502   501  0.000000000E+00  0.000000000E+00  8.476951716E+02  8.476951716E+02  0.000000000E+00  0.00000E+00  9.000E+00
      21    -1     0     0   512   502  0.000000000E+00  0.000000000E+00 -1.110487241E+02  1.110487241E+02  0.000000000E+00  0.00000E+00  9.000E+00
      25     1     1     2     0     0  1.169015644E+02  1.010825427E+02  5.215496378E+02  5.581421691E+02  1.250000000E+02  0.00000E+00  9.000E+00
      25     1     1     2     0     0 -1.058767858E+02 -1.705956637E+02  2.286055952E+02  3.289350884E+02  1.250000000E+02  0.00000E+00  9.000E+00
      21     1     1     2   512   501 -1.102477856E+01  6.951312102E+01 -1.350878550E+01  7.166663814E+01  1.420542632E-06  0.00000E+00  9.000E+00
#rwgt            1           1   2.7186324422073343E-002           8      292168           0
</event>
<event>
      5   9999  3.19816E-02  2.18494E+01 -1.00000E+00  1.63261E-01
      21    -1     0     0   511   501  0.000000000E+00  0.000000000E+00  6.234250522E+01  6.234250522E+01  0.000000000E+00  0.00000E+00  9.000E+00
      21    -1     0     0   501   502  0.000000000E+00  0.000000000E+00 -1.004688413E+03  1.004688413E+03  0.000000000E+00  0.00000E+00  9.000E+00
      25     1     1     2     0     0 -3.668673892E+01 -1.577558798E+02 -3.706230905E+02  4.233430165E+02  1.250000000E+02  0.00000E+00  9.000E+00
      25     1     1     2     0     0  5.816200926E+01  1.617820620E+02 -5.819569385E+02  6.195604355E+02  1.250000000E+02  0.00000E+00  9.000E+00
      21     1     1     2   511   502 -2.147527034E+01 -4.026182237E+00  1.023412138E+01  2.412746609E+01  4.915124924E-07  0.00000E+00  9.000E+00
#rwgt            1           1   3.8122156060765189E-002           8      292298           0
</event>
<event>
      5   9999  3.19816E-02  5.58762E+01 -1.00000E+00  1.36377E-01
      21    -1     0     0   512   501  0.000000000E+00  0.000000000E+00  1.277259322E+03  1.277259322E+03  0.000000000E+00  0.00000E+00  9.000E+00
      21    -1     0     0   501   502  0.000000000E+00  0.000000000E+00 -1.245640213E+02  1.245640213E+02  0.000000000E+00  0.00000E+00  9.000E+00
      25     1     1     2     0     0 -1.513414079E+02  7.828850306E+01  6.705527328E+00  2.114314914E+02  1.250000000E+02  0.00000E+00  9.000E+00
      25     1     1     2     0     0  2.060597079E+02 -8.960482955E+01  8.113420316E+02  8.511113446E+02  1.250000000E+02  0.00000E+00  9.000E+00
      21     1     1     2   512   502 -5.471829996E+01  1.131632649E+01  3.346477420E+02  3.392805076E+02  0.000000000E+00  0.00000E+00  9.000E+00
#rwgt            1           1   3.4248546746693524E-002           8      292392           0
</event>
<event>
      5   9999  3.19816E-02  5.07013E+01 -1.00000E+00  1.38731E-01
      21    -1     0     0   502   501  0.000000000E+00  0.000000000E+00  5.212359433E+02  5.212359433E+02  0.000000000E+00  0.00000E+00  9.000E+00
       2    -1     0     0   501     0  0.000000000E+00  0.000000000E+00 -3.548750165E+03  3.548750165E+03  0.000000000E+00  0.00000E+00  9.000E+00
      25     1     1     2     0     0  4.432231800E+02  1.747446645E+02 -1.444231991E+02  5.132889493E+02  1.250000000E+02  0.00000E+00  9.000E+00
      25     1     1     2     0     0 -4.935799264E+02 -1.806459271E+02  1.197972017E+02  5.533809396E+02  1.250000000E+02  0.00000E+00  9.000E+00
       2     1     1     2   502     0  5.035674643E+01  5.901262630E+00 -3.002888224E+03  3.003316220E+03  0.000000000E+00  0.00000E+00  9.000E+00
#rwgt            1           1   2.4838456843704934E-002           8      292466           0
</event>
<event>
      5   9999  3.19816E-02  2.92859E+01 -1.00000E+00  1.53770E-01
      21    -1     0     0   502   501  0.000000000E+00  0.000000000E+00  5.004930061E+02  5.004930061E+02  0.000000000E+00  0.00000E+00  9.000E+00
       2    -1     0     0   501     0  0.000000000E+00  0.000000000E+00 -1.753284028E+02  1.753284028E+02  0.000000000E+00  0.00000E+00  9.000E+00
      25     1     1     2     0     0 -9.834166777E+01 -2.046040359E+02  2.401293877E+02  3.533001811E+02  1.250000000E+02  0.00000E+00  9.000E+00
      25     1     1     2     0     0  7.101687097E+01  2.151405214E+02  1.127021366E+02  2.822332573E+02  1.250000000E+02  0.00000E+00  9.000E+00
       2     1     1     2   502     0  2.732479680E+01 -1.053648553E+01 -2.766692109E+01  4.028797054E+01  0.000000000E+00  0.00000E+00  9.000E+00
#rwgt            1           1   2.3897207372445248E-002           8      292591           0
</event>
<event>
      5   9999  3.19816E-02  1.01229E+01 -1.00000E+00  1.95146E-01
      21    -1     0     0   502   511  0.000000000E+00  0.000000000E+00  3.314790570E+03  3.314790570E+03  0.000000000E+00  0.00000E+00  9.000E+00
      21    -1     0     0   501   502  0.000000000E+00  0.000000000E+00 -3.169842487E+01  3.169842487E+01  0.000000000E+00  0.00000E+00  9.000E+00
      25     1     1     2     0     0  1.901422408E+00 -5.120034936E+01  1.234890794E+02  1.830290794E+02  1.250000000E+02  0.00000E+00  9.000E+00
      25     1     1     2     0     0  5.659445446E+00  5.793140625E+01  3.094864001E+03  3.097934192E+03  1.250000000E+02  0.00000E+00  9.000E+00
      21     1     1     2   501   511 -7.560867854E+00 -6.731056889E+00  6.473906471E+01  6.552572280E+01  9.536743164E-07  0.00000E+00  9.000E+00
#rwgt            1           1   2.0975177605585003E-002           8      292694           0
</event>
<event>
      5   9999  3.19816E-02  3.17370E+01 -1.00000E+00  1.51361E-01
      21    -1     0     0   502   501  0.000000000E+00  0.000000000E+00  1.092139959E+03  1.092139959E+03  0.000000000E+00  0.00000E+00  9.000E+00
      21    -1     0     0   512   502  0.000000000E+00  0.000000000E+00 -1.004145124E+02  1.004145124E+02  0.000000000E+00  0.00000E+00  9.000E+00
      25     1     1     2     0     0  1.196010462E+02 -1.135426225E+02  9.448939912E+02  9.672879571E+02  1.250000000E+02  0.00000E+00  9.000E+00
      25     1     1     2     0     0 -8.897693697E+01  1.052118006E+02  5.185820303E+01  1.931338694E+02  1.250000000E+02  0.00000E+00  9.000E+00
      21     1     1     2   512   501 -3.062410925E+01  8.330821930E+00 -5.026747723E+00  3.213264468E+01  5.809542146E-07  0.00000E+00  9.000E+00
#rwgt            1           1   2.8121993615077716E-002           8      292931           0
</event>
<event>
      5   9999  3.19816E-02  7.84278E+00 -1.00000E+00  2.08804E-01
      21    -1     0     0   502   501  0.000000000E+00  0.000000000E+00  9.520007712E+02  9.520007712E+02  0.000000000E+00  0.00000E+00  9.000E+00
      21    -1     0     0   511   502  0.000000000E+00  0.000000000E+00 -3.266588242E+02  3.266588242E+02  0.000000000E+00  0.00000E+00  9.000E+00
      25     1     1     2     0     0  8.029360579E+01 -1.607921639E+02  7.943998558E+02  8.240129332E+02  1.250000000E+02  0.00000E+00  9.000E+00
      25     1     1     2     0     0 -7.370829296E+01  1.650515978E+02  5.812456644E+01  2.273288534E+02  1.250000000E+02  0.00000E+00  9.000E+00
      21     1     1     2   511   501 -6.585312832E+00 -4.259433907E+00 -2.271824753E+02  2.273178088E+02  7.136645101E-06  0.00000E+00  9.000E+00
#rwgt            1           1   2.7066450699844806E-002           8      293029           0
</event>
<event>
      5   9999  3.19816E-02  1.00966E+02 -1.00000E+00  1.23640E-01
      21    -1     0     0   502   501  0.000000000E+00  0.000000000E+00  1.767895319E+02  1.767895319E+02  0.000000000E+00  0.00000E+00  9.000E+00
      21    -1     0     0   512   502  0.000000000E+00  0.000000000E+00 -1.049883993E+03  1.049883993E+03  0.000000000E+00  0.00000E+00  9.000E+00
      25     1     1     2     0     0  2.036994907E+02  4.433634097E+00 -4.767184345E-01  2.390363297E+02  1.250000000E+02  0.00000E+00  9.000E+00
      25     1     1     2     0     0 -2.550362167E+02 -9.137459437E+01 -3.716371558E+02  4.765836379E+02  1.250000000E+02  0.00000E+00  9.000E+00
      21     1     1     2   512   501  5.133672593E+01  8.694096028E+01 -5.009805864E+02  5.110535568E+02  7.629394531E-06  0.00000E+00  9.000E+00
#rwgt            1           1   2.8844513569298232E-002           8      293281           0
</event>
<event>
      5   9999  3.19816E-02  1.21135E+02 -1.00000E+00  1.20195E-01
      21    -1     0     0   502   511  0.000000000E+00  0.000000000E+00  1.136558405E+03  1.136558405E+03  0.000000000E+00  0.00000E+00  9.000E+00
      21    -1     0     0   501   502  0.000000000E+00  0.000000000E+00 -4.813363808E+02  4.813363808E+02  0.000000000E+00  0.00000E+00  9.000E+00
      25     1     1     2     0     0  3.861373347E+02  2.767423210E+02 -1.354020519E+02  5.095557566E+02  1.250000000E+02  0.00000E+00  9.000E+00
      25     1     1     2     0     0 -4.907507595E+02 -2.156710790E+02  3.521521403E+02  6.534420037E+02  1.250000000E+02  0.00000E+00  9.000E+00
      21     1     1     2   501   511  1.046134248E+02 -6.107124201E+01  4.384719356E+02  4.548970252E+02  0.000000000E+00  0.00000E+00  9.000E+00
#rwgt            1           1   3.0179965349065512E-002           8      293367           0
</event>
<event>
      5   9999  3.19816E-02  3.61361E+01 -1.00000E+00  1.47630E-01
      -3    -1     0     0     0   501  0.000000000E+00  0.000000000E+00  9.932618536E+02  9.932618536E+02  0.000000000E+00  0.00000E+00  9.000E+00
      21    -1     0     0   501   502  0.000000000E+00  0.000000000E+00 -1.855165382E+02  1.855165382E+02  0.000000000E+00  0.00000E+00  9.000E+00
      25     1     1     2     0     0  3.432490091E+02 -6.133649114E+01  3.670097686E+02  5.214433983E+02  1.250000000E+02  0.00000E+00  9.000E+00
      25     1     1     2     0     0 -3.675349932E+02  8.809488294E+01  2.656959390E+02  4.786042328E+02  1.250000000E+02  0.00000E+00  9.000E+00
      -3     1     1     2     0   502  2.428598417E+01 -2.675839180E+01  1.750396077E+02  1.787307607E+02  1.907348633E-06  0.00000E+00  9.000E+00
#rwgt            1           1   2.6499597439339270E-002           8      293453           0
</event>
<event>
      5   9999  3.19816E-02  8.14720E+00 -1.00000E+00  2.06641E-01
      21    -1     0     0   502   501  0.000000000E+00  0.000000000E+00  5.512586787E+02  5.512586787E+02  0.000000000E+00  0.00000E+00  9.000E+00
      21    -1     0     0   511   502  0.000000000E+00  0.000000000E+00 -1.313715370E+02  1.313715370E+02  0.000000000E+00  0.00000E+00  9.000E+00
      25     1     1     2     0     0  1.141737783E+01  2.152359539E+02  2.520612270E+02  3.544245117E+02  1.250000000E+02  0.00000E+00  9.000E+00
      25     1     1     2     0     0 -3.473112634E+00 -2.170430223E+02  1.835201654E+02  3.105227643E+02  1.250000000E+02  0.00000E+00  9.000E+00
      21     1     1     2   511   501 -7.944265198E+00  1.807068395E+00 -1.569425075E+01  1.768293958E+01  2.384185791E-07  0.00000E+00  9.000E+00
#rwgt            1           1   3.3377825695452598E-002           8      293549           0
</event>
<event>
      5   9999  3.19816E-02  1.20639E+02 -1.00000E+00  1.20270E-01
      -4    -1     0     0     0   501  0.000000000E+00  0.000000000E+00  1.187438658E+03  1.187438658E+03  0.000000000E+00  0.00000E+00  9.000E+00
      21    -1     0     0   501   502  0.000000000E+00  0.000000000E+00 -4.774063896E+02  4.774063896E+02  0.000000000E+00  0.00000E+00  9.000E+00
      25     1     1     2     0     0  5.601464185E+01  2.210322924E+02  1.002712625E+02  2.786973994E+02  1.250000000E+02  0.00000E+00  9.000E+00
      25     1     1     2     0     0 -1.642902607E+02 -2.742326381E+02 -3.075871271E+02  4.609009333E+02  1.250000000E+02  0.00000E+00  9.000E+00
      -4     1     1     2     0   502  1.082756189E+02  5.320034573E+01  9.173481330E+02  9.252467150E+02  1.525878906E-05  0.00000E+00  9.000E+00
#rwgt            1           1   3.1494935438320264E-002           8      293699           0
</event>
<event>
      5   9999  3.19816E-02  4.55966E+01 -1.00000E+00  1.41399E-01
      21    -1     0     0   502   511  0.000000000E+00  0.000000000E+00  1.929903674E+02  1.929903674E+02  0.000000000E+00  0.00000E+00  9.000E+00
      21    -1     0     0   501   502  0.000000000E+00  0.000000000E+00 -3.454007294E+02  3.454007294E+02  0.000000000E+00  0.00000E+00  9.000E+00
      25     1     1     2     0     0 -7.405830670E+01 -5.884437906E-01  8.613723132E+01  1.689070800E+02  1.250000000E+02  0.00000E+00  9.000E+00
      25     1     1     2     0     0  1.102823220E+02  2.828080384E+01 -2.667864220E+02  3.158512140E+02  1.250000000E+02  0.00000E+00  9.000E+00
      21     1     1     2   501   511 -3.622401529E+01 -2.769236005E+01  2.823882869E+01  5.363280279E+01  5.840038640E-07  0.00000E+00  9.000E+00
#rwgt            1           1   3.2018947456437505E-002           8      293745           0
</event>
<event>
      5   9999  3.19816E-02  2.32628E+02 -1.00000E+00  1.09310E-01
      21    -1     0     0   512   501  0.000000000E+00  0.000000000E+00  6.142090423E+02  6.142090423E+02  0.000000000E+00  0.00000E+00  9.000E+00
      21    -1     0     0   501   502  0.000000000E+00  0.000000000E+00 -5.425882476E+02  5.425882476E+02  0.000000000E+00  0.00000E+00  9.000E+00
      25     1     1     2     0     0  9.502890594E+01 -7.376943339E+01  3.248459957E+02  3.682693895E+02  1.250000000E+02  0.00000E+00  9.000E+00
      25     1     1     2     0     0 -2.835199922E+02 -6.256435920E+01 -4.027520997E+02  5.119884167E+02  1.250000000E+02  0.00000E+00  9.000E+00
      21     1     1     2   512   502  1.884910863E+02  1.363337926E+02  1.495268986E+02  2.765394837E+02  4.264961200E-06  0.00000E+00  9.000E+00
#rwgt            1           1   2.5676748641996542E-002           8      293872           0
</event>
<event>
      5   9999  3.19816E-02  1.04107E+02 -1.00000E+00  1.23047E-01
      21    -1     0     0   511   501  0.000000000E+00  0.000000000E+00  7.002603679E+02  7.002603679E+02  0.000000000E+00  0.00000E+00  9.000E+00
      21    -1     0     0   501   502  0.000000000E+00  0.000000000E+00 -3.196628793E+02  3.196628793E+02  0.000000000E+00  0.00000E+00  9.000E+00
      25     1     1     2     0     0  5.630239724E+01  2.726855464E+02 -1.508255615E+02  3.404419439E+02  1.250000000E+02  0.00000E+00  9.000E+00
      25     1     1     2     0     0 -8.704290430E+01 -1.732207544E+02  1.299976945E+02  2.647759383E+02  1.250000000E+02  0.00000E+00  9.000E+00
      21     1     1     2   511   502  3.074050706E+01 -9.946479206E+01  4.014253557E+02  4.147053651E+02  0.000000000E+00  0.00000E+00  9.000E+00
#rwgt            2          11   2.2008923832704959E-003           8      293986           0
</event>
<event>
      5   9999  3.19816E-02  7.75225E+01 -1.00000E+00  1.29014E-01
      21    -1     0     0   502   501  0.000000000E+00  0.000000000E+00  7.307152592E+01  7.307152592E+01  0.000000000E+00  0.00000E+00  9.000E+00
      21    -1     0     0   512   502  0.000000000E+00  0.000000000E+00 -8.282614071E+02  8.282614071E+02  0.000000000E+00  0.00000E+00  9.000E+00
      25     1     1     2     0     0  5.868136065E+01 -2.519732673E+01 -5.634217025E+01  1.512542479E+02  1.250000000E+02  0.00000E+00  9.000E+00
      25     1     1     2     0     0 -5.989839869E+01  1.027102607E+02 -3.216231878E+02  3.649708081E+02  1.250000000E+02  0.00000E+00  9.000E+00
      21     1     1     2   512   501  1.217038043E+00 -7.751293396E+01 -3.772245231E+02  3.851078770E+02  5.394796609E-06  0.00000E+00  9.000E+00
#rwgt            1           1   2.5219173765842099E-002           8      294021           0
</event>
<event>
      5   9999  3.19816E-02  6.75764E+00 -1.00000E+00  2.17739E-01
      21    -1     0     0   502   501  0.000000000E+00  0.000000000E+00  5.590325091E+01  5.590325091E+01  0.000000000E+00  0.00000E+00  9.000E+00
      21    -1     0     0   511   502  0.000000000E+00  0.000000000E+00 -5.679382359E+02  5.679382359E+02  0.000000000E+00  0.00000E+00  9.000E+00
      25     1     1     2     0     0 -6.910501031E+01  3.893526163E+01 -3.233307428E+02  3.556110604E+02  1.250000000E+02  0.00000E+00  9.000E+00
      25     1     1     2     0     0  7.374779778E+01 -3.402504114E+01 -1.005334343E+02  1.798010359E+02  1.250000000E+02  0.00000E+00  9.000E+00
      21     1     1     2   511   501 -4.642787478E+00 -4.910220495E+00 -8.817080786E+01  8.842939048E+01  1.348699152E-06  0.00000E+00  9.000E+00
#rwgt            1           1   2.8443846126497113E-002           8      294082           0
</event>
<event>
      5   9999  3.19816E-02  1.58577E+02 -1.00000E+00  1.15444E-01
      21    -1     0     0   512   501  0.000000000E+00  0.000000000E+00  1.074780873E+03  1.074780873E+03  0.000000000E+00  0.00000E+00  9.000E+00
      21    -1     0     0   501   502  0.000000000E+00  0.000000000E+00 -1.684198101E+03  1.684198101E+03  0.000000000E+00  0.00000E+00  9.000E+00
      25     1     1     2     0     0  8.197567991E+02 -8.262821929E+02 -5.531449590E+02  1.294734651E+03  1.250000000E+02  0.00000E+00  9.000E+00
      25     1     1     2     0     0 -8.677564173E+02  6.751437435E+02 -3.240630347E+02  1.153023037E+03  1.250000000E+02  0.00000E+00  9.000E+00
      21     1     1     2   512   502  4.799961822E+01  1.511384494E+02  2.677907652E+02  3.112212849E+02  5.394796609E-06  0.00000E+00  9.000E+00
#rwgt            2          11   6.4586501529915212E-003           8      294321           0
</event>
<event>
      5   9999  3.19816E-02  6.00768E+01 -1.00000E+00  1.34674E-01
      21    -1     0     0   502   501  0.000000000E+00  0.000000000E+00  3.432890964E+02  3.432890964E+02  0.000000000E+00  0.00000E+00  9.000E+00
      21    -1     0     0   501   511  0.000000000E+00  0.000000000E+00 -1.172098003E+03  1.172098003E+03  0.000000000E+00  0.00000E+00  9.000E+00
      25     1     1     2     0     0  3.346939722E+02 -2.832543373E+02  5.698731616E+01  4.594840899E+02  1.250000000E+02  0.00000E+00  9.000E+00
      25     1     1     2     0     0 -3.901152591E+02  3.064428082E+02 -7.554006440E+02  9.123334057E+02  1.250000000E+02  0.00000E+00  9.000E+00
      21     1     1     2   502   511  5.542128682E+01 -2.318847095E+01 -1.303955792E+02  1.435696044E+02  0.000000000E+00  0.00000E+00  9.000E+00
#rwgt            1           1   2.4176639793143957E-002           8      294341           0
</event>
<event>
      5   9999  3.19816E-02  2.31918E+02 -1.00000E+00  1.09356E-01
      21    -1     0     0   512   501  0.000000000E+00  0.000000000E+00  3.060505765E+02  3.060505765E+02  0.000000000E+00  0.00000E+00  9.000E+00
      21    -1     0     0   501   502  0.000000000E+00  0.000000000E+00 -1.154310884E+03  1.154310884E+03  0.000000000E+00  0.00000E+00  9.000E+00
      25     1     1     2     0     0 -1.884006455E+02 -1.658547899E+02 -1.539586095E+02  3.198919630E+02  1.250000000E+02  0.00000E+00  9.000E+00
      25     1     1     2     0     0  3.583592736E+02  3.236525540E+02 -7.511567651E+02  9.016838861E+02  1.250000000E+02  0.00000E+00  9.000E+00
      21     1     1     2   512   502 -1.699586281E+02 -1.577977641E+02  5.685506694E+01  2.387856115E+02  3.015782986E-06  0.00000E+00  9.000E+00
#rwgt            1           1   2.8575272168096629E-002           8      294443           0
</event>
<event>
      5   9999  3.19816E-02  7.08151E+02 -1.00000E+00  9.47395E-02
      21    -1     0     0   502   511  0.000000000E+00  0.000000000E+00  1.946159710E+03  1.946159710E+03  0.000000000E+00  0.00000E+00  9.000E+00
      21    -1     0     0   501   502  0.000000000E+00  0.000000000E+00 -1.552204313E+03  1.552204313E+03  0.000000000E+00  0.00000E+00  9.000E+00
      25     1     1     2     0     0  5.444442884E+02 -1.447817941E+03  2.906268403E+02  1.578824035E+03  1.250000000E+02  0.00000E+00  9.000E+00
      25     1     1     2     0     0 -8.229916847E+02  7.967505963E+02 -1.613901676E+02  1.163528518E+03  1.250000000E+02  0.00000E+00  9.000E+00
      21     1     1     2   501   511  2.785473963E+02  6.510673450E+02  2.647187246E+02  7.560114700E+02  1.078959322E-05  0.00000E+00  9.000E+00
#rwgt            2          11   5.6945763495343015E-003           8      294614           0
</event>
<event>
      5   9999  3.19816E-02  5.13271E+02 -1.00000E+00  9.85299E-02
      21    -1     0     0   502   501  0.000000000E+00  0.000000000E+00  6.726958955E+02  6.726958955E+02  0.000000000E+00  0.00000E+00  9.000E+00
      21    -1     0     0   512   502  0.000000000E+00  0.000000000E+00 -1.509181551E+03  1.509181551E+03  0.000000000E+00  0.00000E+00  9.000E+00
      25     1     1     2     0     0  5.159648241E+01 -7.463602698E+02  2.545435333E+02  8.000832829E+02  1.250000000E+02  0.00000E+00  9.000E+00
      25     1     1     2     0     0 -2.227284781E+01  2.339273395E+02 -6.596380404E+02  7.113124660E+02  1.250000000E+02  0.00000E+00  9.000E+00
      21     1     1     2   512   501 -2.932363460E+01  5.124329303E+02 -4.313911479E+02  6.704816971E+02  1.078959322E-05  0.00000E+00  9.000E+00
#rwgt            1           1   2.9288998149976351E-002           8      294649           0
</event>
<event>
      5   9999  3.19816E-02  2.01592E+02 -1.00000E+00  1.11523E-01
      21    -1     0     0   502   501  0.000000000E+00  0.000000000E+00  5.136392350E+02  5.136392350E+02  0.000000000E+00  0.00000E+00  9.000E+00
      21    -1     0     0   501   511  0.000000000E+00  0.000000000E+00 -1.505322798E+03  1.505322798E+03  0.000000000E+00  0.00000E+00  9.000E+00
      25     1     1     2     0     0  1.677141655E+02 -5.601280687E+02  1.348983351E+02  6.129388676E+02  1.250000000E+02  0.00000E+00  9.000E+00
      25     1     1     2     0     0  2.427916068E+01  6.215926440E+02 -9.180683947E+02  1.115993490E+03  1.250000000E+02  0.00000E+00  9.000E+00
      21     1     1     2   502   511 -1.919933262E+02 -6.146457531E+01 -2.085135029E+02  2.900296747E+02  0.000000000E+00  0.00000E+00  9.000E+00
#rwgt            1           1   3.5156624912430295E-002           8      294677           0
</event>
<event>
      5   9999  3.19816E-02  3.78146E+01 -1.00000E+00  1.46370E-01
      21    -1     0     0   502   512  0.000000000E+00  0.000000000E+00  5.377834569E+02  5.377834569E+02  0.000000000E+00  0.00000E+00  9.000E+00
      21    -1     0     0   501   502  0.000000000E+00  0.000000000E+00 -2.794888342E+02  2.794888342E+02  0.000000000E+00  0.00000E+00  9.000E+00
      25     1     1     2     0     0 -2.820543262E+02 -1.390287809E+02 -6.177118948E+01  3.439830296E+02  1.250000000E+02  0.00000E+00  9.000E+00
      25     1     1     2     0     0  2.634325593E+02  1.061171931E+02  2.766420037E+02  4.157082754E+02  1.250000000E+02  0.00000E+00  9.000E+00
      21     1     1     2   501   512  1.862176684E+01  3.291158783E+01  4.342380850E+01  5.758098608E+01  9.536743164E-07  0.00000E+00  9.000E+00
#rwgt            1           1   2.9034048365198198E-002           8      294741           0
</event>
<event>
      5   9999  3.19816E-02  5.95348E+01 -1.00000E+00  1.34884E-01
      21    -1     0     0   502   501  0.000000000E+00  0.000000000E+00  8.617614979E+02  8.617614979E+02  0.000000000E+00  0.00000E+00  9.000E+00
      21    -1     0     0   501   511  0.000000000E+00  0.000000000E+00 -1.704681868E+02  1.704681868E+02  0.000000000E+00  0.00000E+00  9.000E+00
      25     1     1     2     0     0 -1.166604581E+02  2.578193883E+02  4.794672095E+02  5.706087139E+02  1.250000000E+02  0.00000E+00  9.000E+00
      25     1     1     2     0     0  1.725176956E+02 -2.784193356E+02  1.788387942E+02  3.935581228E+02  1.250000000E+02  0.00000E+00  9.000E+00
      21     1     1     2   502   511 -5.585723749E+01  2.059994730E+01  3.298730748E+01  6.806284789E+01  0.000000000E+00  0.00000E+00  9.000E+00
#rwgt            1           1   2.9195783415168257E-002           8      294861           0
</event>
<event>
      5   9999  3.19816E-02  1.20658E+02 -1.00000E+00  1.20268E-01
      21    -1     0     0   502   512  0.000000000E+00  0.000000000E+00  3.837203398E+02  3.837203398E+02  0.000000000E+00  0.00000E+00  9.000E+00
      21    -1     0     0   501   502  0.000000000E+00  0.000000000E+00 -6.976507316E+02  6.976507316E+02  0.000000000E+00  0.00000E+00  9.000E+00
      25     1     1     2     0     0 -1.545014408E+00  2.249664545E+02 -5.865233537E+02  6.405052202E+02  1.250000000E+02  0.00000E+00  9.000E+00
      25     1     1     2     0     0 -9.681559282E+01 -1.550834250E+02  2.088113140E+02  3.043867483E+02  1.250000000E+02  0.00000E+00  9.000E+00
      21     1     1     2   501   512  9.836060723E+01 -6.988302957E+01  6.378164795E+01  1.364791028E+02  1.348699152E-06  0.00000E+00  9.000E+00
#rwgt            1           1   2.8996920672882540E-002           8      294958           0
</event>
<event>
      5   9999  3.19816E-02  1.46873E+02 -1.00000E+00  1.16757E-01
      21    -1     0     0   502   501  0.000000000E+00  0.000000000E+00  5.871076949E+02  5.871076949E+02  0.000000000E+00  0.00000E+00  9.000E+00
      21    -1     0     0   501   511  0.000000000E+00  0.000000000E+00 -1.195862183E+03  1.195862183E+03  0.000000000E+00  0.00000E+00  9.000E+00
      25     1     1     2     0     0  6.334126435E+02  8.283783692E+01 -6.332857595E+02  9.081572206E+02  1.250000000E+02  0.00000E+00  9.000E+00
      25     1     1     2     0     0 -6.575809081E+02  6.203335683E+01  1.416181852E+02  6.869799840E+02  1.250000000E+02  0.00000E+00  9.000E+00
      21     1     1     2   502   511  2.416826452E+01 -1.448711938E+02 -1.170869138E+02  1.878326734E+02  1.348699152E-06  0.00000E+00  9.000E+00
#rwgt            1           1   2.4152621382824088E-002           8      295012           0
</event>
<event>
      5   9999  3.19816E-02  4.96424E+01 -1.00000E+00  1.39254E-01
       3    -1     0     0   502     0  0.000000000E+00  0.000000000E+00  2.526614996E+02  2.526614996E+02  0.000000000E+00  0.00000E+00  9.000E+00
      21    -1     0     0   501   502  0.000000000E+00  0.000000000E+00 -4.122125333E+02  4.122125333E+02  0.000000000E+00  0.00000E+00  9.000E+00
      25     1     1     2     0     0 -3.617995194E+01 -1.018174112E+02 -3.234277083E+02  3.631890096E+02  1.250000000E+02  0.00000E+00  9.000E+00
      25     1     1     2     0     0 -1.253889782E+01  9.228632271E+01  2.978793541E+01  1.587019547E+02  1.250000000E+02  0.00000E+00  9.000E+00
       3     1     1     2   501     0  4.871884976E+01  9.531088512E+00  1.340887392E+02  1.429830687E+02  0.000000000E+00  0.00000E+00  9.000E+00
#rwgt            1           1   2.5248764096707739E-002           8      295086           0
</event>
<event>
      5   9999  3.19816E-02  5.58582E+01 -1.00000E+00  1.36385E-01
      21    -1     0     0   502   501  0.000000000E+00  0.000000000E+00  3.801549505E+02  3.801549505E+02  0.000000000E+00  0.00000E+00  9.000E+00
      21    -1     0     0   511   502  0.000000000E+00  0.000000000E+00 -6.959547898E+02  6.959547898E+02  0.000000000E+00  0.00000E+00  9.000E+00
      25     1     1     2     0     0  1.349544987E+02  1.063505657E+02  7.419474932E+01  2.250622589E+02  1.250000000E+02  0.00000E+00  9.000E+00
      25     1     1     2     0     0 -8.810793960E+01 -7.592794204E+01  1.974029777E+02  2.609999943E+02  1.250000000E+02  0.00000E+00  9.000E+00
      21     1     1     2   511   501 -4.684655914E+01 -3.042262363E+01 -5.873975663E+02  5.900474871E+02  0.000000000E+00  0.00000E+00  9.000E+00
#rwgt            1           1   2.8998957358446275E-002           8      295161           0
</event>
<event>
      5   9999  3.19816E-02  6.43521E+01 -1.00000E+00  1.33098E-01
      21    -1     0     0   512   501  0.000000000E+00  0.000000000E+00  2.357583324E+02  2.357583324E+02  0.000000000E+00  0.00000E+00  9.000E+00
      21    -1     0     0   501   502  0.000000000E+00  0.000000000E+00 -5.072700055E+02  5.072700055E+02  0.000000000E+00  0.00000E+00  9.000E+00
      25     1     1     2     0     0 -1.632770912E+02 -2.138021065E+02 -1.263844297E+02  3.224418914E+02  1.250000000E+02  0.00000E+00  9.000E+00
      25     1     1     2     0     0  2.236240420E+02  1.914539076E+02 -1.551306883E+02  3.554614485E+02  1.250000000E+02  0.00000E+00  9.000E+00
      21     1     1     2   512   502 -6.034695079E+01  2.234819889E+01  1.000344477E+01  6.512499805E+01  2.064765462E-07  0.00000E+00  9.000E+00
#rwgt            1           1   2.8267089601668953E-002           8      295222           0
</event>
<event>
      5   9999  3.19816E-02  1.13476E+02 -1.00000E+00  1.21408E-01
      21    -1     0     0   502   501  0.000000000E+00  0.000000000E+00  1.714376742E+02  1.714376742E+02  0.000000000E+00  0.00000E+00  9.000E+00
       1    -1     0     0   501     0  0.000000000E+00  0.000000000E+00 -1.535151519E+03  1.535151519E+03  0.000000000E+00  0.00000E+00  9.000E+00
      25     1     1     2     0     0 -1.415346087E+02  1.159922773E+02  1.664104596E+01  2.222345119E+02  1.250000000E+02  0.00000E+00  9.000E+00
      25     1     1     2     0     0  1.815784342E+02 -2.221676312E+02 -1.318456583E+03  1.355094811E+03  1.250000000E+02  0.00000E+00  9.000E+00
       1     1     1     2   502     0 -4.004382547E+01  1.061753539E+02 -6.189830794E+01  1.292598710E+02  9.536743164E-07  0.00000E+00  9.000E+00
#rwgt            1           1   3.1850987015350024E-002           8      295304           0
</event>
<event>
      5   9999  3.19816E-02  2.16652E+01 -1.00000E+00  1.63553E-01
      21    -1     0     0   502   501  0.000000000E+00  0.000000000E+00  1.010338328E+02  1.010338328E+02  0.000000000E+00  0.00000E+00  9.000E+00
       2    -1     0     0   501     0  0.000000000E+00  0.000000000E+00 -2.058433022E+03  2.058433022E+03  0.000000000E+00  0.00000E+00  9.000E+00
      25     1     1     2     0     0 -7.699054247E+01 -2.447924444E+02 -3.674792088E+02  4.653137150E+02  1.250000000E+02  0.00000E+00  9.000E+00
      25     1     1     2     0     0  8.702245814E+01  2.255897847E+02 -3.039967041E+02  4.080473690E+02  1.250000000E+02  0.00000E+00  9.000E+00
       2     1     1     2   502     0 -1.003191567E+01  1.920265966E+01 -1.285923277E+03  1.286105771E+03  3.051757812E-05  0.00000E+00  9.000E+00
#rwgt            1           1   2.7441894919647492E-002           8      295376           0
</event>
<event>
      5   9999  3.19816E-02  7.26566E+01 -1.00000E+00  1.30407E-01
      21    -1     0     0   511   501  0.000000000E+00  0.000000000E+00  3.509024738E+03  3.509024738E+03  0.000000000E+00  0.00000E+00  9.000E+00
      21    -1     0     0   501   502  0.000000000E+00  0.000000000E+00 -6.151325756E+01  6.151325756E+01  0.000000000E+00  0.00000E+00  9.000E+00
      25     1     1     2     0     0 -9.107410420E+01  1.715454784E+02  2.035922888E+02  3.078914804E+02  1.250000000E+02  0.00000E+00  9.000E+00
      25     1     1     2     0     0  1.091229442E+02 -1.011663109E+02  1.069462639E+03  1.086976437E+03  1.250000000E+02  0.00000E+00  9.000E+00
      21     1     1     2   511   502 -1.804884004E+01 -7.037916746E+01  2.174456553E+03  2.175670078E+03  4.315837288E-05  0.00000E+00  9.000E+00
#rwgt            1           1   3.7858380726026167E-002           8      295515           0
</event>
<event>
      5   9999  3.19816E-02  5.18461E+01 -1.00000E+00  1.38183E-01
      21    -1     0     0   502   501  0.000000000E+00  0.000000000E+00  1.518974751E+02  1.518974751E+02  0.000000000E+00  0.00000E+00  9.000E+00
      21    -1     0     0   512   502  0.000000000E+00  0.000000000E+00 -6.873011293E+02  6.873011293E+02  0.000000000E+00  0.00000E+00  9.000E+00
      25     1     1     2     0     0 -1.856116582E+02 -1.407988656E+02 -2.858058899E+02  3.893404871E+02  1.250000000E+02  0.00000E+00  9.000E+00
      25     1     1     2     0     0  1.985662341E+02  1.910003906E+02 -1.502628922E+02  3.378070978E+02  1.250000000E+02  0.00000E+00  9.000E+00
      21     1     1     2   512   501 -1.295457592E+01 -5.020152503E+01 -9.933487213E+01  1.120510195E+02  1.907348633E-06  0.00000E+00  9.000E+00
#rwgt            1           1   2.6922459440906883E-002           8      295582           0
</event>
<event>
      5   9999  3.19816E-02  4.49802E+01 -1.00000E+00  1.41749E-01
      21    -1     0     0   502   501  0.000000000E+00  0.000000000E+00  2.068705102E+02  2.068705102E+02  0.000000000E+00  0.00000E+00  9.000E+00
      21    -1     0     0   501   511  0.000000000E+00  0.000000000E+00 -5.837835613E+02  5.837835613E+02  0.000000000E+00  0.00000E+00  9.000E+00
      25     1     1     2     0     0 -1.363612032E+02  4.390789482E+01 -3.378327564E+02  3.876573903E+02  1.250000000E+02  0.00000E+00  9.000E+00
      25     1     1     2     0     0  1.344910619E+02 -8.884922791E+01  1.206946126E+02  2.370110135E+02  1.250000000E+02  0.00000E+00  9.000E+00
      21     1     1     2   502   511  1.870141268E+00  4.494133308E+01 -1.597749073E+02  1.659856676E+02  1.907348633E-06  0.00000E+00  9.000E+00
#rwgt            1           1   2.9950767935833237E-002           8      295680           0
</event>
<event>
      5   9999  3.19816E-02  1.10485E+02 -1.00000E+00  1.21911E-01
      21    -1     0     0   502   501  0.000000000E+00  0.000000000E+00  2.627112031E+02  2.627112031E+02  0.000000000E+00  0.00000E+00  9.000E+00
       2    -1     0     0   501     0  0.000000000E+00  0.000000000E+00 -6.716914584E+02  6.716914584E+02  0.000000000E+00  0.00000E+00  9.000E+00
      25     1     1     2     0     0 -9.106020877E+01  8.569754826E+01  1.287361591E+02  2.187099222E+02  1.250000000E+02  0.00000E+00  9.000E+00
      25     1     1     2     0     0 -1.453629176E+01 -1.181980687E+02 -6.140548163E+00  1.727564573E+02  1.250000000E+02  0.00000E+00  9.000E+00
       2     1     1     2   502     0  1.055965005E+02  3.250052040E+01 -5.315758663E+02  5.429362820E+02  0.000000000E+00  0.00000E+00  9.000E+00
#rwgt            1           1   2.4971582378187043E-002           8      295792           0
</event>
<event>
      5   9999  3.19816E-02  1.32324E+02 -1.00000E+00  1.18593E-01
      21    -1     0     0   502   501  0.000000000E+00  0.000000000E+00  2.054206012E+02  2.054206012E+02  0.000000000E+00  0.00000E+00  9.000E+00
      21    -1     0     0   501   511  0.000000000E+00  0.000000000E+00 -6.849106703E+02  6.849106703E+02  0.000000000E+00  0.00000E+00  9.000E+00
      25     1     1     2     0     0  1.189816716E+02 -1.231319632E+02  7.665403649E+01  2.254306098E+02  1.250000000E+02  0.00000E+00  9.000E+00
      25     1     1     2     0     0 -1.932793196E+02  1.363518957E+01 -3.236537923E+02  3.973909801E+02  1.250000000E+02  0.00000E+00  9.000E+00
      21     1     1     2   502   511  7.429764804E+01  1.094967736E+02 -2.324903133E+02  2.675096815E+02  2.697398305E-06  0.00000E+00  9.000E+00
#rwgt            1           1   2.6498911081867478E-002           8      295842           0
</event>
<event>
      5   9999  3.19816E-02  7.26484E+01 -1.00000E+00  1.30409E-01
      21    -1     0     0   502   501  0.000000000E+00  0.000000000E+00  1.035039513E+03  1.035039513E+03  0.000000000E+00  0.00000E+00  9.000E+00
      21    -1     0     0   512   502  0.000000000E+00  0.000000000E+00 -2.621895602E+02  2.621895602E+02  0.000000000E+00  0.00000E+00  9.000E+00
      25     1     1     2     0     0 -3.441396087E+02  2.644928169E+02  2.103544660E+02  4.982594925E+02  1.250000000E+02  0.00000E+00  9.000E+00
      25     1     1     2     0     0  4.068481951E+02 -2.278127267E+02  5.367186482E+02  7.218836468E+02  1.250000000E+02  0.00000E+00  9.000E+00
      21     1     1     2   512   501 -6.270858633E+01 -3.668009023E+01  2.577683883E+01  7.708593412E+01  5.840038640E-07  0.00000E+00  9.000E+00
#rwgt            1           1   2.3191099386867531E-002           8      295882           0
</event>
<event>
      5   9999  3.19816E-02  1.90019E+01 -1.00000E+00  1.68225E-01
      21    -1     0     0   502   511  0.000000000E+00  0.000000000E+00  2.545520172E+03  2.545520172E+03  0.000000000E+00  0.00000E+00  9.000E+00
      21    -1     0     0   501   502  0.000000000E+00  0.000000000E+00 -2.003063060E+02  2.003063060E+02  0.000000000E+00  0.00000E+00  9.000E+00
      25     1     1     2     0     0  4.690094955E+02 -2.019005249E+02  2.549275793E+02  5.842489191E+02  1.250000000E+02  0.00000E+00  9.000E+00
      25     1     1     2     0     0 -4.670168439E+02  2.207976323E+02  2.011470367E+03  2.080503392E+03  1.250000000E+02  0.00000E+00  9.000E+00
      21     1     1     2   501   511 -1.992651559E+00 -1.889710744E+01  7.881591896E+01  8.107416612E+01  0.000000000E+00  0.00000E+00  9.000E+00
#rwgt            1           1   3.3237752993627384E-002           8      295987           0
</event>
<event>
      5   9999  3.19816E-02  1.68552E+02 -1.00000E+00  1.14421E-01
      21    -1     0     0   502   512  0.000000000E+00  0.000000000E+00  2.304674688E+03  2.304674688E+03  0.000000000E+00  0.00000E+00  9.000E+00
      21    -1     0     0   501   502  0.000000000E+00  0.000000000E+00 -3.061255185E+02  3.061255185E+02  0.000000000E+00  0.00000E+00  9.000E+00
      25     1     1     2     0     0  3.272505945E+02 -4.367298430E+02  1.296138419E+02  5.746743908E+02  1.250000000E+02  0.00000E+00  9.000E+00
      25     1     1     2     0     0 -1.670901072E+02  3.842080054E+02  5.320125747E+02  6.886198334E+02  1.250000000E+02  0.00000E+00  9.000E+00
      21     1     1     2   501   512 -1.601604873E+02  5.252183756E+01  1.336922753E+03  1.347505982E+03  0.000000000E+00  0.00000E+00  9.000E+00
#rwgt            1           1   2.3032781608744266E-002           8      296170           0
</event>
<event>
      5   9999  3.19816E-02  1.92231E+01 -1.00000E+00  1.67801E-01
      21    -1     0     0   502   501  0.000000000E+00  0.000000000E+00  1.345536980E+02  1.345536980E+02  0.000000000E+00  0.00000E+00  9.000E+00
      21    -1     0     0   501   511  0.000000000E+00  0.000000000E+00 -2.959688980E+03  2.959688980E+03  0.000000000E+00  0.00000E+00  9.000E+00
      25     1     1     2     0     0  5.334051811E+02  2.641657375E+02 -1.010594287E+03  1.179504318E+03  1.250000000E+02  0.00000E+00  9.000E+00
      25     1     1     2     0     0 -5.222421660E+02 -2.485159841E+02 -1.745186845E+03  1.842769437E+03  1.250000000E+02  0.00000E+00  9.000E+00
      21     1     1     2   502   511 -1.116301504E+01 -1.564975342E+01 -6.935415083E+01  7.196892333E+01  0.000000000E+00  0.00000E+00  9.000E+00
#rwgt            1           1   7.1468651244492101E-002           8      296235           0
</event>
<event>
      5   9999  3.19816E-02  6.29233E+01 -1.00000E+00  1.33609E-01
      21    -1     0     0   502   501  0.000000000E+00  0.000000000E+00  4.803021975E+02  4.803021975E+02  0.000000000E+00  0.00000E+00  9.000E+00
       1    -1     0     0   501     0  0.000000000E+00  0.000000000E+00 -4.007913953E+02  4.007913953E+02  0.000000000E+00  0.00000E+00  9.000E+00
      25     1     1     2     0     0  2.034954902E+02  1.507911451E+02  3.691340270E+02  4.647938402E+02  1.250000000E+02  0.00000E+00  9.000E+00
      25     1     1     2     0     0 -1.542399295E+02 -1.116345932E+02 -1.816577158E+02  2.913361700E+02  1.250000000E+02  0.00000E+00  9.000E+00
       1     1     1     2   502     0 -4.925556075E+01 -3.915655191E+01 -1.079655090E+02  1.249635825E+02  1.348699152E-06  0.00000E+00  9.000E+00
#rwgt            1           1   3.0386536871970068E-002           8      296375           0
</event>
<event>
      5   9999  3.19816E-02  8.46400E+01 -1.00000E+00  1.27175E-01
      21    -1     0     0   502   501  0.000000000E+00  0.000000000E+00  2.174615723E+02  2.174615723E+02  0.000000000E+00  0.00000E+00  9.000E+00
       3    -1     0     0   501     0  0.000000000E+00  0.000000000E+00 -7.946980330E+02  7.946980330E+02  0.000000000E+00  0.00000E+00  9.000E+00
      25     1     1     2     0     0  1.752164302E+02 -1.274107749E+02 -2.976019295E+02  3.887495484E+02  1.250000000E+02  0.00000E+00  9.000E+00
      25     1     1     2     0     0 -2.514647395E+02  9.066679472E+01  3.539505519E+01  2.972083323E+02  1.250000000E+02  0.00000E+00  9.000E+00
       3     1     1     2   502     0  7.624830934E+01  3.674398023E+01 -3.150295864E+02  3.262017245E+02  3.814697266E-06  0.00000E+00  9.000E+00
#rwgt            1           1   2.8238717433604139E-002           8      296496           0
</event>
<event>
      5   9999  3.19816E-02  6.15797E+01 -1.00000E+00  1.34103E-01
      21    -1     0     0   511   501  0.000000000E+00  0.000000000E+00  1.601287139E+02  1.601287139E+02  0.000000000E+00  0.00000E+00  9.000E+00
      21    -1     0     0   501   502  0.000000000E+00  0.000000000E+00 -3.128014572E+02  3.128014572E+02  0.000000000E+00  0.00000E+00  9.000E+00
      25     1     1     2     0     0  5.417926305E+00 -6.879418046E+01 -5.144571726E+01  1.517684256E+02  1.250000000E+02  0.00000E+00  9.000E+00
      25     1     1     2     0     0  5.615530292E+01  6.968873830E+01 -1.697598841E+02  2.290269777E+02  1.250000000E+02  0.00000E+00  9.000E+00
      21     1     1     2   511   502 -6.157322922E+01 -8.945578413E-01  6.853285802E+01  9.213476770E+01  0.000000000E+00  0.00000E+00  9.000E+00
#rwgt            1           1   6.7375603658476391E-002           8      296548           0
</event>
<event>
      5   9999  3.19816E-02  6.12137E+02 -1.00000E+00  9.64180E-02
      21    -1     0     0   502   501  0.000000000E+00  0.000000000E+00  8.038987289E+02  8.038987289E+02  0.000000000E+00  0.00000E+00  9.000E+00
      21    -1     0     0   501   512  0.000000000E+00  0.000000000E+00 -8.659895295E+02  8.659895295E+02  0.000000000E+00  0.00000E+00  9.000E+00
      25     1     1     2     0     0 -4.268484210E+01 -1.593374896E+02  2.309889773E+02  3.101472859E+02  1.250000000E+02  0.00000E+00  9.000E+00
      25     1     1     2     0     0  5.973270872E+02 -9.966864511E+01  1.082741008E+02  6.277593239E+02  1.250000000E+02  0.00000E+00  9.000E+00
      21     1     1     2   502   512 -5.546422451E+02  2.590061347E+02 -4.013538787E+02  7.319816485E+02  1.618438983E-05  0.00000E+00  9.000E+00
#rwgt            2          11   2.6171850280822476E-003           8      296649           0
</event>
<event>
      5   9999  3.19816E-02  1.08033E+02 -1.00000E+00  1.22337E-01
      -1    -1     0     0     0   501  0.000000000E+00  0.000000000E+00  7.116010268E+02  7.116010268E+02  0.000000000E+00  0.00000E+00  9.000E+00
      21    -1     0     0   501   502  0.000000000E+00  0.000000000E+00 -3.114906431E+02  3.114906431E+02  0.000000000E+00  0.00000E+00  9.000E+00
      25     1     1     2     0     0  1.461107146E+02 -3.556867311E+02  3.324443837E+02  5.234554994E+02  1.250000000E+02  0.00000E+00  9.000E+00
      25     1     1     2     0     0 -2.226201691E+02  2.794142417E+02  1.337751597E+01  3.787294761E+02  1.250000000E+02  0.00000E+00  9.000E+00
      -1     1     1     2     0   502  7.650945454E+01  7.627248936E+01  5.428848401E+01  1.209066945E+02  6.743495762E-07  0.00000E+00  9.000E+00
#rwgt            1           1   2.6994471491258370E-002           8      296684           0
</event>
<event>
      5   9999  3.19816E-02  5.55285E+01 -1.00000E+00  1.36526E-01
      21    -1     0     0   502   501  0.000000000E+00  0.000000000E+00  1.482721460E+02  1.482721460E+02  0.000000000E+00  0.00000E+00  9.000E+00
      21    -1     0     0   501   511  0.000000000E+00  0.000000000E+00 -8.344066479E+02  8.344066479E+02  0.000000000E+00  0.00000E+00  9.000E+00
      25     1     1     2     0     0  1.914762749E+02 -1.928375564E+02 -4.356023312E+02  5.284163869E+02  1.250000000E+02  0.00000E+00  9.000E+00
      25     1     1     2     0     0 -1.920907470E+02  1.373124843E+02 -8.608652912E+01  2.806946097E+02  1.250000000E+02  0.00000E+00  9.000E+00
      21     1     1     2   502   511  6.144720077E-01  5.552507211E+01 -1.644456415E+02  1.735677972E+02  3.303624740E-06  0.00000E+00  9.000E+00
#rwgt            1           1   2.9552854261603444E-002           8      296814           0
</event>
<event>
      5   9999  3.19816E-02  1.08930E+02 -1.00000E+00  1.22180E-01
      21    -1     0     0   502   501  0.000000000E+00  0.000000000E+00  3.475601047E+02  3.475601047E+02  0.000000000E+00  0.00000E+00  9.000E+00
      21    -1     0     0   512   502  0.000000000E+00  0.000000000E+00 -1.753959280E+02  1.753959280E+02  0.000000000E+00  0.00000E+00  9.000E+00
      25     1     1     2     0     0 -2.869677995E+01 -1.253648285E+02  2.097728680E+02  2.759882272E+02  1.250000000E+02  0.00000E+00  9.000E+00
      25     1     1     2     0     0  4.270413950E+01  1.733949422E+01 -5.235516022E+00  1.333293374E+02  1.250000000E+02  0.00000E+00  9.000E+00
      21     1     1     2   512   501 -1.400735955E+01  1.080253343E+02 -3.237317528E+01  1.136384681E+02  1.846782373E-06  0.00000E+00  9.000E+00
#rwgt            1           1   2.4556872642367070E-002           8      296924           0
</event>
<event>
      5   9999  3.19816E-02  3.71726E+01 -1.00000E+00  1.46843E-01
      21    -1     0     0   502   511  0.000000000E+00  0.000000000E+00  3.236874903E+02  3.236874903E+02  0.000000000E+00  0.00000E+00  9.000E+00
      21    -1     0     0   501   502  0.000000000E+00  0.000000000E+00 -2.391682554E+02  2.391682554E+02  0.000000000E+00  0.00000E+00  9.000E+00
      25     1     1     2     0     0  2.761637208E+01 -1.989984321E+02 -8.110625735E+01  2.501324948E+02  1.250000000E+02  0.00000E+00  9.000E+00
      25     1     1     2     0     0 -6.007383873E+01  1.808789567E+02  1.385339631E+02  2.667259305E+02  1.250000000E+02  0.00000E+00  9.000E+00
      21     1     1     2   501   511  3.245746666E+01  1.811947547E+01  2.709152917E+01  4.599732042E+01  4.768371582E-07  0.00000E+00  9.000E+00
#rwgt            1           1   2.8425696973503584E-002           8      296979           0
</event>
<event>
      5   9999  3.19816E-02  1.37418E+01 -1.00000E+00  1.81044E-01
      21    -1     0     0   512   501  0.000000000E+00  0.000000000E+00  7.656673387E+02  7.656673387E+02  0.000000000E+00  0.00000E+00  9.000E+00
      21    -1     0     0   501   502  0.000000000E+00  0.000000000E+00 -1.621170314E+02  1.621170314E+02  0.000000000E+00  0.00000E+00  9.000E+00
      25     1     1     2     0     0  2.807261783E+02 -4.794007718E+01  8.585290391E+01  3.226471127E+02  1.250000000E+02  0.00000E+00  9.000E+00
      25     1     1     2     0     0 -2.688284666E+02  4.106382167E+01  4.891058608E+02  5.734147931E+02  1.250000000E+02  0.00000E+00  9.000E+00
      21     1     1     2   512   502 -1.189771176E+01  6.876255511E+00  2.859154264E+01  3.172246436E+01  0.000000000E+00  0.00000E+00  9.000E+00
#rwgt            1           1   1.2545332212207787E-002           8      297131           0
</event>
<event>
      5   9999  3.19816E-02  1.91518E+01 -1.00000E+00  1.67937E-01
      21    -1     0     0   502   511  0.000000000E+00  0.000000000E+00  8.404938300E+01  8.404938300E+01  0.000000000E+00  0.00000E+00  9.000E+00
      21    -1     0     0   501   502  0.000000000E+00  0.000000000E+00 -7.034144037E+02  7.034144037E+02  0.000000000E+00  0.00000E+00  9.000E+00
      25     1     1     2     0     0 -1.163905593E+02 -5.136630005E+01 -8.414464962E+01  1.972069500E+02  1.250000000E+02  0.00000E+00  9.000E+00
      25     1     1     2     0     0  1.028083757E+02  6.486867960E+01 -5.424510154E+02  5.697855841E+02  1.250000000E+02  0.00000E+00  9.000E+00
      21     1     1     2   501   511  1.358218354E+01 -1.350237955E+01  7.230644381E+00  2.047125256E+01  3.153981341E-07  0.00000E+00  9.000E+00
#rwgt            1           1   2.9473926053291809E-002           8      297371           0
</event>
<event>
      5   9999  3.19816E-02  6.85481E+01 -1.00000E+00  1.31683E-01
      21    -1     0     0   502   501  0.000000000E+00  0.000000000E+00  3.611945612E+02  3.611945612E+02  0.000000000E+00  0.00000E+00  9.000E+00
      21    -1     0     0   501   512  0.000000000E+00  0.000000000E+00 -1.090719870E+03  1.090719870E+03  0.000000000E+00  0.00000E+00  9.000E+00
      25     1     1     2     0     0 -1.984057990E+02 -1.589969797E+02  8.857556779E+01  2.968426045E+02  1.250000000E+02  0.00000E+00  9.000E+00
      25     1     1     2     0     0  2.585779564E+02  1.918322788E+02 -1.150801915E+01  3.455714358E+02  1.250000000E+02  0.00000E+00  9.000E+00
      21     1     1     2   502   512 -6.017215739E+01 -3.283529913E+01 -8.065928578E+02  8.095003914E+02  1.078959322E-05  0.00000E+00  9.000E+00
#rwgt            1           1   3.3227629377181149E-002           8      297523           0
</event>
<event>
      5   9999  3.19816E-02  7.70719E+01 -1.00000E+00  1.29138E-01
      21    -1     0     0   502   501  0.000000000E+00  0.000000000E+00  4.726896613E+01  4.726896613E+01  0.000000000E+00  0.00000E+00  9.000E+00
       2    -1     0     0   501     0  0.000000000E+00  0.000000000E+00 -2.273078769E+03  2.273078769E+03  0.000000000E+00  0.00000E+00  9.000E+00
      25     1     1     2     0     0 -1.030654023E+02 -1.200838214E+02 -2.888263438E+02  3.522616332E+02  1.250000000E+02  0.00000E+00  9.000E+00
      25     1     1     2     0     0  3.416666344E+01  1.546243550E+02 -6.943544625E+02  7.230692717E+02  1.250000000E+02  0.00000E+00  9.000E+00
       2     1     1     2   502     0  6.889873890E+01 -3.454053356E+01 -1.242628996E+03  1.245016830E+03  2.642899792E-05  0.00000E+00  9.000E+00
#rwgt            1           1   2.9697039715109997E-002           8      297603           0
</event>
<event>
      5   9999  3.19816E-02  1.73054E+01 -1.00000E+00  1.71727E-01
      21    -1     0     0   502   501  0.000000000E+00  0.000000000E+00  5.292194862E+02  5.292194862E+02  0.000000000E+00  0.00000E+00  9.000E+00
      21    -1     0     0   501   511  0.000000000E+00  0.000000000E+00 -7.767509454E+02  7.767509454E+02  0.000000000E+00  0.00000E+00  9.000E+00
      25     1     1     2     0     0 -2.648985105E+02 -4.054436566E+02  2.776670606E+01  5.009508653E+02  1.250000000E+02  0.00000E+00  9.000E+00
      25     1     1     2     0     0  2.753959685E+02  4.192015730E+02  1.214636829E+01  5.170545740E+02  1.250000000E+02  0.00000E+00  9.000E+00
      21     1     1     2   502   511 -1.049745802E+01 -1.375791642E+01 -2.874445336E+02  2.879649923E+02  3.814697266E-06  0.00000E+00  9.000E+00
#rwgt            1           1   3.2020849650153553E-002           8      297646           0
</event>
<event>
      5   9999  3.19816E-02  2.72487E+01 -1.00000E+00  1.55999E-01
       1    -1     0     0   502     0  0.000000000E+00  0.000000000E+00  2.256305968E+02  2.256305968E+02  0.000000000E+00  0.00000E+00  9.000E+00
      21    -1     0     0   501   502  0.000000000E+00  0.000000000E+00 -3.611703183E+02  3.611703183E+02  0.000000000E+00  0.00000E+00  9.000E+00
      25     1     1     2     0     0  2.268102582E+02  3.737508450E+01 -9.537056196E+01  2.784965606E+02  1.250000000E+02  0.00000E+00  9.000E+00
      25     1     1     2     0     0 -2.472380772E+02 -1.934185528E+01 -4.253239617E+01  2.809533393E+02  1.250000000E+02  0.00000E+00  9.000E+00
       1     1     1     2   501     0  2.042781892E+01 -1.803322922E+01  2.363236703E+00  2.735101514E+01  1.154238983E-07  0.00000E+00  9.000E+00
#rwgt            1           1   2.6793000604136637E-002           8      297816           0
</event>
<event>
      5   9999  3.19816E-02  1.90257E+02 -1.00000E+00  1.12443E-01
       1    -1     0     0   502     0  0.000000000E+00  0.000000000E+00  1.347278631E+03  1.347278631E+03  0.000000000E+00  0.00000E+00  9.000E+00
      21    -1     0     0   501   502  0.000000000E+00  0.000000000E+00 -3.948227068E+02  3.948227068E+02  0.000000000E+00  0.00000E+00  9.000E+00
      25     1     1     2     0     0 -2.525210891E+02 -2.383901617E+02  7.022259793E+02  7.933114745E+02  1.250000000E+02  0.00000E+00  9.000E+00
      25     1     1     2     0     0  4.260874925E+02  1.604652552E+02 -1.584229473E+02  4.980185535E+02  1.250000000E+02  0.00000E+00  9.000E+00
       1     1     1     2   501     0 -1.735664034E+02  7.792490648E+01  4.086528922E+02  4.507713098E+02  9.344061824E-06  0.00000E+00  9.000E+00
#rwgt            1           1   3.0611408714841186E-002           8      297958           0
</event>
<event>
      5   9999  3.19816E-02  2.19113E+01 -1.00000E+00  1.63164E-01
      21    -1     0     0   502   501  0.000000000E+00  0.000000000E+00  4.198955089E+01  4.198955089E+01  0.000000000E+00  0.00000E+00  9.000E+00
      21    -1     0     0   501   511  0.000000000E+00  0.000000000E+00 -8.542017866E+02  8.542017866E+02  0.000000000E+00  0.00000E+00  9.000E+00
      25     1     1     2     0     0 -2.506742357E+01  2.292512024E+01 -9.115106520E+01  1.583901940E+02  1.250000000E+02  0.00000E+00  9.000E+00
      25     1     1     2     0     0  3.375789813E+01 -2.810979949E+00 -6.672102752E+02  6.796631877E+02  1.250000000E+02  0.00000E+00  9.000E+00
      21     1     1     2   502   511 -8.690474559E+00 -2.011414029E+01 -5.385089525E+01  5.813795582E+01  6.743495762E-07  0.00000E+00  9.000E+00
#rwgt            1           1   3.0997556580837065E-002           8      298027           0
</event>
<event>
      5   9999  3.19816E-02  3.80096E+01 -1.00000E+00  1.46228E-01
      21    -1     0     0   502   501  0.000000000E+00  0.000000000E+00  4.658058741E+02  4.658058741E+02  0.000000000E+00  0.00000E+00  9.000E+00
      21    -1     0     0   512   502  0.000000000E+00  0.000000000E+00 -6.468587761E+02  6.468587761E+02  0.000000000E+00  0.00000E+00  9.000E+00
      25     1     1     2     0     0  6.953923917E+01  4.434870129E+02 -1.128510379E+02  4.794546831E+02  1.250000000E+02  0.00000E+00  9.000E+00
      25     1     1     2     0     0 -6.432237261E+01 -4.058371660E+02  1.161958724E+02  4.449355612E+02  1.250000000E+02  0.00000E+00  9.000E+00
      21     1     1     2   512   501 -5.216866562E+00 -3.764984691E+01 -1.843977366E+02  1.882744059E+02  2.697398305E-06  0.00000E+00  9.000E+00
#rwgt            1           1   2.4761262857980033E-002           8      298155           0
</event>
<event>
      5   9999  3.19816E-02  2.87880E+01 -1.00000E+00  1.54294E-01
      21    -1     0     0   502   511  0.000000000E+00  0.000000000E+00  1.960551144E+03  1.960551144E+03  0.000000000E+00  0.00000E+00  9.000E+00
      21    -1     0     0   501   502  0.000000000E+00  0.000000000E+00 -5.265721877E+02  5.265721877E+02  0.000000000E+00  0.00000E+00  9.000E+00
      25     1     1     2     0     0 -3.342756901E+01  3.156768910E+01 -5.120912209E+02  5.291279050E+02  1.250000000E+02  0.00000E+00  9.000E+00
      25     1     1     2     0     0  5.446008999E+01 -1.191104573E+01  8.042927250E+02  8.158551109E+02  1.250000000E+02  0.00000E+00  9.000E+00
      21     1     1     2   501   511 -2.103252098E+01 -1.965664336E+01  1.141777452E+03  1.142140316E+03  0.000000000E+00  0.00000E+00  9.000E+00
#rwgt            1           1   3.0385336914204347E-002           8      298290           0
</event>
<event>
      5   9999  3.19816E-02  6.59268E+02 -1.00000E+00  9.55560E-02
      21    -1     0     0   502   501  0.000000000E+00  0.000000000E+00  7.605811748E+02  7.605811748E+02  0.000000000E+00  0.00000E+00  9.000E+00
       1    -1     0     0   501     0  0.000000000E+00  0.000000000E+00 -1.484295850E+03  1.484295850E+03  0.000000000E+00  0.00000E+00  9.000E+00
      25     1     1     2     0     0 -4.595048078E+02  4.781642821E+02 -1.751681263E+01  6.750685801E+02  1.250000000E+02  0.00000E+00  9.000E+00
      25     1     1     2     0     0  2.645538314E+02  1.516204574E+02 -8.353536727E+02  8.980079350E+02  1.250000000E+02  0.00000E+00  9.000E+00
       1     1     1     2   502     0  1.949509764E+02 -6.297847395E+02  1.291558102E+02  6.718005095E+02  9.344061824E-06  0.00000E+00  9.000E+00
#rwgt            2          12   1.5820012291620995E-004           8      298485           0
</event>
<event>
      5   9999  3.19816E-02  1.70230E+02 -1.00000E+00  1.14257E-01
      21    -1     0     0   502   501  0.000000000E+00  0.000000000E+00  5.147352954E+02  5.147352954E+02  0.000000000E+00  0.00000E+00  9.000E+00
       2    -1     0     0   501     0  0.000000000E+00  0.000000000E+00 -3.995142005E+02  3.995142005E+02  0.000000000E+00  0.00000E+00  9.000E+00
      25     1     1     2     0     0 -1.167081941E+02 -7.715951275E+01  1.118691189E+00  1.876183478E+02  1.250000000E+02  0.00000E+00  9.000E+00
      25     1     1     2     0     0  1.889714826E+02 -7.697143327E+01  3.571475212E+02  4.299001915E+02  1.250000000E+02  0.00000E+00  9.000E+00
       2     1     1     2   502     0 -7.226328846E+01  1.541309460E+02 -2.430451176E+02  2.967309565E+02  4.672030912E-06  0.00000E+00  9.000E+00
#rwgt            1           1   2.6531952096860770E-002           8      298504           0
</event>
<event>
      5   9999  3.19816E-02  4.96618E+01 -1.00000E+00  1.39244E-01
      21    -1     0     0   511   501  0.000000000E+00  0.000000000E+00  2.908303274E+02  2.908303274E+02  0.000000000E+00  0.00000E+00  9.000E+00
      21    -1     0     0   501   502  0.000000000E+00  0.000000000E+00 -2.616645306E+02  2.616645306E+02  0.000000000E+00  0.00000E+00  9.000E+00
      25     1     1     2     0     0 -4.154311713E+01  2.037317044E+02 -5.093627327E+01  2.478950219E+02  1.250000000E+02  0.00000E+00  9.000E+00
      25     1     1     2     0     0  8.430550501E+01 -1.784795997E+02  3.264553438E+01  2.359091278E+02  1.250000000E+02  0.00000E+00  9.000E+00
      21     1     1     2   511   502 -4.276238788E+01 -2.525210470E+01  4.745653569E+01  6.869070817E+01  1.651812370E-06  0.00000E+00  9.000E+00
#rwgt            1           1   2.6852327888107867E-002           8      298535           0
</event>
<event>
      5   9999  3.19816E-02  1.73720E+02 -1.00000E+00  1.13922E-01
      21    -1     0     0   502   501  0.000000000E+00  0.000000000E+00  2.477917822E+02  2.477917822E+02  0.000000000E+00  0.00000E+00  9.000E+00
      -1    -1     0     0     0   502  0.000000000E+00  0.000000000E+00 -5.109264168E+02  5.109264168E+02  0.000000000E+00  0.00000E+00  9.000E+00
      25     1     1     2     0     0 -2.595725022E+02 -3.668436783E+01 -1.668206596E+02  3.349294839E+02  1.250000000E+02  0.00000E+00  9.000E+00
      25     1     1     2     0     0  8.701311803E+01  1.663725325E+01  8.289742215E+01  1.741983453E+02  1.250000000E+02  0.00000E+00  9.000E+00
      -1     1     1     2     0   501  1.725593842E+02  2.004711459E+01 -1.792113971E+02  2.495903698E+02  1.907348633E-06  0.00000E+00  9.000E+00
#rwgt            1           1   2.4582456335495276E-002           8      298638           0
</event>
<event>
      5   9999  3.19816E-02  5.49562E+02 -1.00000E+00  9.76997E-02
      21    -1     0     0   502   501  0.000000000E+00  0.000000000E+00  9.277502727E+02  9.277502727E+02  0.000000000E+00  0.00000E+00  9.000E+00
      -1    -1     0     0     0   502  0.000000000E+00  0.000000000E+00 -1.692725991E+03  1.692725991E+03  0.000000000E+00  0.00000E+00  9.000E+00
      25     1     1     2     0     0  3.578040500E+01  2.797727352E+02 -8.341894226E+01  3.195883925E+02  1.250000000E+02  0.00000E+00  9.000E+00
      25     1     1     2     0     0  1.109151846E+02  2.498489429E+02  7.282010188E+02  7.877997184E+02  1.250000000E+02  0.00000E+00  9.000E+00
      -1     1     1     2     0   501 -1.466955896E+02 -5.296216781E+02 -1.409757795E+03  1.513088153E+03  2.642899792E-05  0.00000E+00  9.000E+00
#rwgt            2          10   1.8073778733966421E-004           8      298775           0
</event>
<event>
      5   9999  3.19816E-02  1.44525E+02 -1.00000E+00  1.17037E-01
       1    -1     0     0   502     0  0.000000000E+00  0.000000000E+00  8.493471468E+02  8.493471468E+02  0.000000000E+00  0.00000E+00  9.000E+00
      21    -1     0     0   501   502  0.000000000E+00  0.000000000E+00 -1.813949820E+02  1.813949820E+02  0.000000000E+00  0.00000E+00  9.000E+00
      25     1     1     2     0     0  1.360252638E+02 -3.014701430E+02  3.227924372E+02  4.787557593E+02  1.250000000E+02  0.00000E+00  9.000E+00
      25     1     1     2     0     0 -1.628562903E+02  1.594577906E+02  1.245401976E+02  2.882433332E+02  1.250000000E+02  0.00000E+00  9.000E+00
       1     1     1     2   501     0  2.683102652E+01  1.420123524E+02  2.206195300E+02  2.637430363E+02  2.697398305E-06  0.00000E+00  9.000E+00
#rwgt            1           1   2.9011572756902422E-002           8      298794           0
</event>
<event>
      5   9999  3.19816E-02  1.95494E+02 -1.00000E+00  1.12009E-01
       1    -1     0     0   502     0  0.000000000E+00  0.000000000E+00  6.548474475E+02  6.548474475E+02  0.000000000E+00  0.00000E+00  9.000E+00
      21    -1     0     0   501   502  0.000000000E+00  0.000000000E+00 -7.600345076E+02  7.600345076E+02  0.000000000E+00  0.00000E+00  9.000E+00
      25     1     1     2     0     0  2.885300534E+02  3.370410578E+01 -4.452115201E+02  5.460987604E+02  1.250000000E+02  0.00000E+00  9.000E+00
      25     1     1     2     0     0 -3.495326436E+02  1.520287591E+02 -7.677138946E+01  4.084172606E+02  1.250000000E+02  0.00000E+00  9.000E+00
       1     1     1     2   501     0  6.100259014E+01 -1.857328649E+02  4.167958495E+02  4.603659341E+02  5.394796609E-06  0.00000E+00  9.000E+00
#rwgt            1           1   2.8604863458996415E-002           8      298847           0
</event>
<event>
      5   9999  3.19816E-02  2.08053E+02 -1.00000E+00  1.11027E-01
      21    -1     0     0   502   501  0.000000000E+00  0.000000000E+00  2.688706144E+03  2.688706144E+03  0.000000000E+00  0.00000E+00  9.000E+00
      -1    -1     0     0     0   502  0.000000000E+00  0.000000000E+00 -2.232195633E+02  2.232195633E+02  0.000000000E+00  0.00000E+00  9.000E+00
      25     1     1     2     0     0 -4.866538632E+02  1.364942991E+02  1.397151110E+03  1.491012710E+03  1.250000000E+02  0.00000E+00  9.000E+00
      25     1     1     2     0     0  6.920695151E+02 -1.034697335E+02  6.986053706E+02  9.966647698E+02  1.250000000E+02  0.00000E+00  9.000E+00
      -1     1     1     2     0   501 -2.054156519E+02 -3.302456558E+01  3.697301004E+02  4.242482281E+02  5.394796609E-06  0.00000E+00  9.000E+00
#rwgt            1           1   3.0575133541107184E-002           8      298892           0
</event>
<event>
      5   9999  3.19816E-02  5.68646E+01 -1.00000E+00  1.35961E-01
      21    -1     0     0   502   501  0.000000000E+00  0.000000000E+00  3.634086429E+02  3.634086429E+02  0.000000000E+00  0.00000E+00  9.000E+00
      21    -1     0     0   501   511  0.000000000E+00  0.000000000E+00 -6.559325562E+02  6.559325562E+02  0.000000000E+00  0.00000E+00  9.000E+00
      25     1     1     2     0     0  2.005334624E+02 -1.608895095E+02  1.759416787E+02  3.356777891E+02  1.250000000E+02  0.00000E+00  9.000E+00
      25     1     1     2     0     0 -1.917151358E+02  2.170662013E+02 -1.311869404E+02  3.416247098E+02  1.250000000E+02  0.00000E+00  9.000E+00
      21     1     1     2   502   511 -8.818326570E+00 -5.617669175E+01 -3.372786516E+02  3.420387001E+02  0.000000000E+00  0.00000E+00  9.000E+00
#rwgt            1           1   2.8711720871419790E-002           8      298988           0
</event>
<event>
      5   9999  3.19816E-02  5.23383E+01 -1.00000E+00  1.37952E-01
      21    -1     0     0   502   501  0.000000000E+00  0.000000000E+00  2.467527007E+02  2.467527007E+02  0.000000000E+00  0.00000E+00  9.000E+00
      21    -1     0     0   501   512  0.000000000E+00  0.000000000E+00 -1.573063652E+03  1.573063652E+03  0.000000000E+00  0.00000E+00  9.000E+00
      25     1     1     2     0     0  1.050423140E+02 -3.314231004E+02 -4.317392370E+02  5.682419625E+02  1.250000000E+02  0.00000E+00  9.000E+00
      25     1     1     2     0     0 -5.370173959E+01  3.415936162E+02 -1.244811520E+01  3.678994850E+02  1.250000000E+02  0.00000E+00  9.000E+00
      21     1     1     2   502   512 -5.134057441E+01 -1.017051583E+01 -8.821235991E+02  8.836749052E+02  1.078959322E-05  0.00000E+00  9.000E+00
#rwgt            1           1   2.8603319818863424E-002           8      299094           0
</event>
<event>
      5   9999  3.19816E-02  4.88910E+01 -1.00000E+00  1.39634E-01
       1    -1     0     0   502     0  0.000000000E+00  0.000000000E+00  1.762129555E+03  1.762129555E+03  0.000000000E+00  0.00000E+00  9.000E+00
      21    -1     0     0   501   502  0.000000000E+00  0.000000000E+00 -5.754802887E+02  5.754802887E+02  0.000000000E+00  0.00000E+00  9.000E+00
      25     1     1     2     0     0  2.282349521E+02 -1.050434511E+02 -3.964114220E+02  4.856874875E+02  1.250000000E+02  0.00000E+00  9.000E+00
      25     1     1     2     0     0 -2.770580895E+02  1.024680004E+02  5.785609639E+01  3.259343553E+02  1.250000000E+02  0.00000E+00  9.000E+00
       1     1     1     2   501     0  4.882313737E+01  2.575450688E+00  1.525204592E+03  1.525988001E+03  2.157918644E-05  0.00000E+00  9.000E+00
#rwgt            1           1   2.7381516026256467E-002           8      299232           0
</event>
<event>
      5   9999  3.19816E-02  3.20139E+02 -1.00000E+00  1.04683E-01
       2    -1     0     0   502     0  0.000000000E+00  0.000000000E+00  7.797310933E+02  7.797310933E+02  0.000000000E+00  0.00000E+00  9.000E+00
      21    -1     0     0   501   502  0.000000000E+00  0.000000000E+00 -4.676230352E+02  4.676230352E+02  0.000000000E+00  0.00000E+00  9.000E+00
      25     1     1     2     0     0  9.788576466E+01  1.935589816E+01 -3.238160583E+02  3.611621704E+02  1.250000000E+02  0.00000E+00  9.000E+00
      25     1     1     2     0     0  2.196508378E+02  2.138475678E+01  4.484333046E+02  5.151904764E+02  1.250000000E+02  0.00000E+00  9.000E+00
       2     1     1     2   501     0 -3.175366024E+02 -4.074065494E+01  1.874908118E+02  3.710014816E+02  4.672030912E-06  0.00000E+00  9.000E+00
#rwgt            1           1   2.9005473259008888E-002           8      299334           0
</event>
<event>
      5   9999  3.19816E-02  2.22399E+01 -1.00000E+00  1.62653E-01
      21    -1     0     0   502   511  0.000000000E+00  0.000000000E+00  2.409719265E+02  2.409719265E+02  0.000000000E+00  0.00000E+00  9.000E+00
      21    -1     0     0   501   502  0.000000000E+00  0.000000000E+00 -8.713865424E+02  8.713865424E+02  0.000000000E+00  0.00000E+00  9.000E+00
      25     1     1     2     0     0  4.649063961E+01 -3.597710590E+02 -5.891729852E+02  7.030977179E+02  1.250000000E+02  0.00000E+00  9.000E+00
      25     1     1     2     0     0 -6.852354523E+01  3.567440822E+02 -4.466841888E+01  3.867584312E+02  1.250000000E+02  0.00000E+00  9.000E+00
      21     1     1     2   501   511  2.203290562E+01  3.026976785E+00  3.426788276E+00  2.250231980E+01  5.127385418E-07  0.00000E+00  9.000E+00
#rwgt            1           1   2.4317834537831269E-002           8      299373           0
</event>
<event>
      5   9999  3.19816E-02  1.68740E+02 -1.00000E+00  1.14403E-01
       2    -1     0     0   502     0  0.000000000E+00  0.000000000E+00  1.381903266E+03  1.381903266E+03  0.000000000E+00  0.00000E+00  9.000E+00
      21    -1     0     0   501   502  0.000000000E+00  0.000000000E+00 -6.588192347E+01  6.588192347E+01  0.000000000E+00  0.00000E+00  9.000E+00
      25     1     1     2     0     0 -7.839715116E+01  1.061348315E+01  3.621992339E+02  3.912442260E+02  1.250000000E+02  0.00000E+00  9.000E+00
      25     1     1     2     0     0  2.328074617E+02  5.743509089E+01  4.476673079E+02  5.230001171E+02  1.250000000E+02  0.00000E+00  9.000E+00
       2     1     1     2   501     0 -1.544103106E+02 -6.804857404E+01  5.061548003E+02  5.335408460E+02  7.629394531E-06  0.00000E+00  9.000E+00
#rwgt            1           1   2.7576769937625079E-002           8      299537           0
</event>
<event>
      5   9999  3.19816E-02  8.79770E+00 -1.00000E+00  2.02416E-01
      21    -1     0     0   502   511  0.000000000E+00  0.000000000E+00  1.046313959E+03  1.046313959E+03  0.000000000E+00  0.00000E+00  9.000E+00
      21    -1     0     0   501   502  0.000000000E+00  0.000000000E+00 -5.494883976E+02  5.494883976E+02  0.000000000E+00  0.00000E+00  9.000E+00
      25     1     1     2     0     0 -4.209939570E+00 -4.585279167E+02  6.694443366E+01  4.799709691E+02  1.250000000E+02  0.00000E+00  9.000E+00
      25     1     1     2     0     0  8.244390991E+00  4.663460195E+02 -1.729646726E+02  5.129213954E+02  1.250000000E+02  0.00000E+00  9.000E+00
      21     1     1     2   501   511 -4.034451420E+00 -7.818102793E+00  6.028458008E+02  6.029099925E+02  7.629394531E-06  0.00000E+00  9.000E+00
#rwgt            1           1   2.5806881460120230E-002           8      299586           0
</event>
<event>
      5   9999  3.19816E-02  1.48611E+01 -1.00000E+00  1.77765E-01
      21    -1     0     0   502   501  0.000000000E+00  0.000000000E+00  3.392683822E+02  3.392683822E+02  0.000000000E+00  0.00000E+00  9.000E+00
      21    -1     0     0   501   512  0.000000000E+00  0.000000000E+00 -3.016348602E+02  3.016348602E+02  0.000000000E+00  0.00000E+00  9.000E+00
      25     1     1     2     0     0  1.105977805E+02  1.037260756E+02  2.602815235E+02  3.261325486E+02  1.250000000E+02  0.00000E+00  9.000E+00
      25     1     1     2     0     0 -9.599447902E+01 -1.064822692E+02 -1.545784259E+02  2.450977426E+02  1.250000000E+02  0.00000E+00  9.000E+00
      21     1     1     2   502   512 -1.460330144E+01  2.756193590E+00 -6.806957550E+01  6.967295117E+01  0.000000000E+00  0.00000E+00  9.000E+00
#rwgt            1           1   2.9267291396287871E-002           8      299911           0
</event>
<event>
      5   9999  3.19816E-02  3.67640E+02 -1.00000E+00  1.02800E-01
      21    -1     0     0   511   501  0.000000000E+00  0.000000000E+00  8.599253604E+02  8.599253604E+02  0.000000000E+00  0.00000E+00  9.000E+00
      21    -1     0     0   501   502  0.000000000E+00  0.000000000E+00 -1.361576305E+03  1.361576305E+03  0.000000000E+00  0.00000E+00  9.000E+00
      25     1     1     2     0     0  4.610772177E+01 -1.339309666E+02 -5.165788209E+01  1.958493365E+02  1.250000000E+02  0.00000E+00  9.000E+00
      25     1     1     2     0     0  1.020660163E+02  4.703887841E+02 -1.140037720E+03  1.243782168E+03  1.250000000E+02  0.00000E+00  9.000E+00
      21     1     1     2   511   502 -1.481737380E+02 -3.364578175E+02  6.900446570E+02  7.818701608E+02  1.321449896E-05  0.00000E+00  9.000E+00
#rwgt            2          11   7.3912160817661485E-003           8      300162           0
</event>
<event>
      5   9999  3.19816E-02  4.65589E+01 -1.00000E+00  1.40866E-01
      21    -1     0     0   502   501  0.000000000E+00  0.000000000E+00  5.770290497E+01  5.770290497E+01  0.000000000E+00  0.00000E+00  9.000E+00
       2    -1     0     0   501     0  0.000000000E+00  0.000000000E+00 -1.898715938E+03  1.898715938E+03  0.000000000E+00  0.00000E+00  9.000E+00
      25     1     1     2     0     0  1.370524466E+02  1.226489442E+02 -2.041665277E+02  3.018859183E+02  1.250000000E+02  0.00000E+00  9.000E+00
      25     1     1     2     0     0 -1.092983376E+02 -8.526654272E+01 -1.450370519E+03  1.462332436E+03  1.250000000E+02  0.00000E+00  9.000E+00
       2     1     1     2   502     0 -2.775410909E+01 -3.738240144E+01 -1.864759861E+02  1.922004888E+02  0.000000000E+00  0.00000E+00  9.000E+00
#rwgt            1           1   3.4019576229965140E-002           8      300182           0
</event>
<event>
      5   9999  3.19816E-02  5.32480E+01 -1.00000E+00  1.37534E-01
      21    -1     0     0   511   501  0.000000000E+00  0.000000000E+00  2.176669572E+03  2.176669572E+03  0.000000000E+00  0.00000E+00  9.000E+00
      21    -1     0     0   501   502  0.000000000E+00  0.000000000E+00 -1.299624407E+03  1.299624407E+03  0.000000000E+00  0.00000E+00  9.000E+00
      25     1     1     2     0     0 -1.352851644E+03 -1.536054420E+02  1.410112829E+03  1.964139861E+03  1.250000000E+02  0.00000E+00  9.000E+00
      25     1     1     2     0     0  1.339965357E+03  1.019402863E+02 -5.483120108E+02  1.456766983E+03  1.250000000E+02  0.00000E+00  9.000E+00
      21     1     1     2   511   502  1.288628651E+01  5.166515563E+01  1.524434671E+01  5.538713563E+01  1.685873940E-07  0.00000E+00  9.000E+00
#rwgt            1           1   3.4247677001482742E-002           8      300280           0
</event>
<event>
      5   9999  3.19816E-02  4.35246E+01 -1.00000E+00  1.42602E-01
      21    -1     0     0   502   512  0.000000000E+00  0.000000000E+00  1.745692397E+02  1.745692397E+02  0.000000000E+00  0.00000E+00  9.000E+00
      21    -1     0     0   501   502  0.000000000E+00  0.000000000E+00 -7.950243018E+02  7.950243018E+02  0.000000000E+00  0.00000E+00  9.000E+00
      25     1     1     2     0     0  2.290267767E+02 -1.449725648E+02 -5.907377480E+02  6.618658444E+02  1.250000000E+02  0.00000E+00  9.000E+00
      25     1     1     2     0     0 -1.862738170E+02  1.368130644E+02 -2.468180455E+01  2.639127526E+02  1.250000000E+02  0.00000E+00  9.000E+00
      21     1     1     2   501   512 -4.275295967E+01  8.159500429E+00 -5.035509453E+00  4.381494452E+01  1.015030525E-06  0.00000E+00  9.000E+00
#rwgt            1           1   2.8263014408803980E-002           8      300486           0
</event>
<event>
      5   9999  3.19816E-02  9.12387E+01 -1.00000E+00  1.25646E-01
      21    -1     0     0   502   501  0.000000000E+00  0.000000000E+00  6.842292904E+02  6.842292904E+02  0.000000000E+00  0.00000E+00  9.000E+00
      21    -1     0     0   511   502  0.000000000E+00  0.000000000E+00 -5.739846779E+01  5.739846779E+01  0.000000000E+00  0.00000E+00  9.000E+00
      25     1     1     2     0     0  5.743507120E+01 -1.057983323E+02  3.044096124E+02  3.504030346E+02  1.250000000E+02  0.00000E+00  9.000E+00
      25     1     1     2     0     0 -3.216198831E+01  1.812975500E+01  1.915875527E+02  2.317193817E+02  1.250000000E+02  0.00000E+00  9.000E+00
      21     1     1     2   511   501 -2.527308289E+01  8.766857728E+01  1.308336574E+02  1.595053419E+02  2.697398305E-06  0.00000E+00  9.000E+00
#rwgt            1           1   3.5203684551501857E-002           8      300617           0
</event>
<event>
      5   9999  3.19816E-02  1.06706E+02 -1.00000E+00  1.22573E-01
      21    -1     0     0   502   501  0.000000000E+00  0.000000000E+00  2.960564863E+02  2.960564863E+02  0.000000000E+00  0.00000E+00  9.000E+00
      21    -1     0     0   512   502  0.000000000E+00  0.000000000E+00 -7.753459403E+02  7.753459403E+02  0.000000000E+00  0.00000E+00  9.000E+00
      25     1     1     2     0     0  8.216436551E+01 -3.680892351E+02 -2.890191091E+02  4.913224129E+02  1.250000000E+02  0.00000E+00  9.000E+00
      25     1     1     2     0     0  2.377204064E+01  3.808840805E+02 -5.125512003E+01  4.048331509E+02  1.250000000E+02  0.00000E+00  9.000E+00
      21     1     1     2   512   501 -1.059364061E+02 -1.279484540E+01 -1.390152248E+02  1.752468628E+02  1.907348633E-06  0.00000E+00  9.000E+00
#rwgt            1           1   2.8361616591245104E-002           8      300678           0
</event>
<event>
      5   9999  3.19816E-02  3.06787E+01 -1.00000E+00  1.52368E-01
      21    -1     0     0   502   501  0.000000000E+00  0.000000000E+00  3.504530001E+02  3.504530001E+02  0.000000000E+00  0.00000E+00  9.000E+00
      21    -1     0     0   511   502  0.000000000E+00  0.000000000E+00 -8.191280344E+02  8.191280344E+02  0.000000000E+00  0.00000E+00  9.000E+00
      25     1     1     2     0     0  2.436603408E+02 -2.084095787E+02 -6.461186696E+02  7.320513980E+02  1.250000000E+02  0.00000E+00  9.000E+00
      25     1     1     2     0     0 -2.158782917E+02  2.214227365E+02  2.089177814E+02  3.935773170E+02  1.250000000E+02  0.00000E+00  9.000E+00
      21     1     1     2   511   501 -2.778204908E+01 -1.301315773E+01 -3.147414605E+01  4.395231956E+01  7.539457465E-07  0.00000E+00  9.000E+00
#rwgt            1           1   2.5545100343401930E-002           8      300750           0
</event>
<event>
      5   9999  3.19816E-02  3.54334E+01 -1.00000E+00  1.48183E-01
      21    -1     0     0   502   501  0.000000000E+00  0.000000000E+00  5.946028012E+02  5.946028012E+02  0.000000000E+00  0.00000E+00  9.000E+00
      21    -1     0     0   512   502  0.000000000E+00  0.000000000E+00 -2.315393011E+02  2.315393011E+02  0.000000000E+00  0.00000E+00  9.000E+00
      25     1     1     2     0     0  2.375398551E+01 -1.696206788E+02 -1.403924524E+02  2.543038875E+02  1.250000000E+02  0.00000E+00  9.000E+00
      25     1     1     2     0     0 -3.244464217E+00  1.407262582E+02  5.022640611E+02  5.363847438E+02  1.250000000E+02  0.00000E+00  9.000E+00
      21     1     1     2   512   501 -2.050952129E+01  2.889442059E+01  1.191891382E+00  3.545347106E+01  5.589425365E-07  0.00000E+00  9.000E+00
#rwgt            1           1   2.8836607515119374E-002           8      300877           0
</event>
<event>
      5   9999  3.19816E-02  3.06558E+01 -1.00000E+00  1.52390E-01
      21    -1     0     0   502   501  0.000000000E+00  0.000000000E+00  5.810147427E+01  5.810147427E+01  0.000000000E+00  0.00000E+00  9.000E+00
      21    -1     0     0   511   502  0.000000000E+00  0.000000000E+00 -4.939677028E+02  4.939677028E+02  0.000000000E+00  0.00000E+00  9.000E+00
      25     1     1     2     0     0 -1.979477802E+01 -4.592766448E+01 -1.590524159E+02  2.083839116E+02  1.250000000E+02  0.00000E+00  9.000E+00
      25     1     1     2     0     0  3.140037458E+01  7.430178259E+01 -1.428091470E+02  2.062187937E+02  1.250000000E+02  0.00000E+00  9.000E+00
      21     1     1     2   511   501 -1.160559657E+01 -2.837411811E+01 -1.340046656E+02  1.374664717E+02  1.907348633E-06  0.00000E+00  9.000E+00
#rwgt            1           1   1.9442891678262204E-002           8      301091           0
</event>
<event>
      5   9999  3.19816E-02  5.06560E+01 -1.00000E+00  1.38753E-01
      21    -1     0     0   502   501  0.000000000E+00  0.000000000E+00  1.420090276E+02  1.420090276E+02  0.000000000E+00  0.00000E+00  9.000E+00
      21    -1     0     0   512   502  0.000000000E+00  0.000000000E+00 -4.137282061E+02  4.137282061E+02  0.000000000E+00  0.00000E+00  9.000E+00
      25     1     1     2     0     0 -2.476531311E+01  4.500610285E+01 -3.058544386E+02  3.343812310E+02  1.250000000E+02  0.00000E+00  9.000E+00
      25     1     1     2     0     0  7.424231068E+01 -3.414057148E+01  6.408380708E+01  1.625091802E+02  1.250000000E+02  0.00000E+00  9.000E+00
      21     1     1     2   512   501 -4.947699757E+01 -1.086553137E+01 -2.994854691E+01  5.884682253E+01  5.840038640E-07  0.00000E+00  9.000E+00
#rwgt            1           1   2.4581367189647013E-002           8      301167           0
</event>
<event>
      5   9999  3.19816E-02  3.20453E+01 -1.00000E+00  1.51077E-01
      21    -1     0     0   511   501  0.000000000E+00  0.000000000E+00  9.162645080E+02  9.162645080E+02  0.000000000E+00  0.00000E+00  9.000E+00
      21    -1     0     0   501   502  0.000000000E+00  0.000000000E+00 -3.056527306E+02  3.056527306E+02  0.000000000E+00  0.00000E+00  9.000E+00
      25     1     1     2     0     0  9.602724048E+01 -4.711374039E+02  2.489598161E+02  5.556956670E+02  1.250000000E+02  0.00000E+00  9.000E+00
      25     1     1     2     0     0 -1.195633752E+02  4.928848660E+02  3.161870101E+02  6.105981635E+02  1.250000000E+02  0.00000E+00  9.000E+00
      21     1     1     2   511   502  2.353613472E+01 -2.174746209E+01  4.546495122E+01  5.562340815E+01  6.743495762E-07  0.00000E+00  9.000E+00
#rwgt            1           1   2.8194089595200752E-002           8      301258           0
</event>
<event>
      5   9999  3.19816E-02  1.20454E+02 -1.00000E+00  1.20299E-01
      21    -1     0     0   502   512  0.000000000E+00  0.000000000E+00  1.044465902E+03  1.044465902E+03  0.000000000E+00  0.00000E+00  9.000E+00
      21    -1     0     0   501   502  0.000000000E+00  0.000000000E+00 -1.309308958E+03  1.309308958E+03  0.000000000E+00  0.00000E+00  9.000E+00
      25     1     1     2     0     0 -5.074705112E+02  1.373020723E+02  7.168312957E+02  8.976916427E+02  1.250000000E+02  0.00000E+00  9.000E+00
      25     1     1     2     0     0  3.966837785E+02 -1.845832064E+02 -1.157059109E+03  1.243318045E+03  1.250000000E+02  0.00000E+00  9.000E+00
      21     1     1     2   501   512  1.107867328E+02  4.728113415E+01  1.753847563E+02  2.127651723E+02  3.814697266E-06  0.00000E+00  9.000E+00
#rwgt            2          11   6.5511797615500789E-003           8      301492           0
</event>
<event>
      5   9999  3.19816E-02  1.93923E+02 -1.00000E+00  1.12138E-01
      21    -1     0     0   502   501  0.000000000E+00  0.000000000E+00  2.073044415E+02  2.073044415E+02  0.000000000E+00  0.00000E+00  9.000E+00
      21    -1     0     0   511   502  0.000000000E+00  0.000000000E+00 -1.690328425E+03  1.690328425E+03  0.000000000E+00  0.00000E+00  9.000E+00
      25     1     1     2     0     0  2.082472972E+02 -3.218309372E+02 -5.489127497E+02  6.810817100E+02  1.250000000E+02  0.00000E+00  9.000E+00
      25     1     1     2     0     0 -3.860645226E+01  2.278726800E+02 -2.395736640E-01  2.627574430E+02  1.250000000E+02  0.00000E+00  9.000E+00
      21     1     1     2   511   501 -1.696408450E+02  9.395825712E+01 -9.338716599E+02  9.537937133E+02  1.078959322E-05  0.00000E+00  9.000E+00
#rwgt            1           1   2.5622198406213031E-002           8      301542           0
</event>
<event>
      5   9999  3.19816E-02  1.26228E+02 -1.00000E+00  1.19443E-01
      21    -1     0     0   502   512  0.000000000E+00  0.000000000E+00  5.173933795E+02  5.173933795E+02  0.000000000E+00  0.00000E+00  9.000E+00
      21    -1     0     0   501   502  0.000000000E+00  0.000000000E+00 -3.340487996E+02  3.340487996E+02  0.000000000E+00  0.00000E+00  9.000E+00
      25     1     1     2     0     0 -2.021772631E+02 -3.040586528E+02 -6.536928466E+00  3.859987584E+02  1.250000000E+02  0.00000E+00  9.000E+00
      25     1     1     2     0     0  2.030418389E+02  1.778333695E+02  1.495551628E+02  3.329300863E+02  1.250000000E+02  0.00000E+00  9.000E+00
      21     1     1     2   501   512 -8.645758019E-01  1.262252833E+02  4.032634553E+01  1.325133344E+02  1.966049969E-06  0.00000E+00  9.000E+00
#rwgt            1           1   2.7706611625718441E-002           8      301621           0
</event>
<event>
      5   9999  3.19816E-02  2.42535E+01 -1.00000E+00  1.59743E-01
      21    -1     0     0   511   501  0.000000000E+00  0.000000000E+00  4.744202116E+02  4.744202116E+02  0.000000000E+00  0.00000E+00  9.000E+00
      21    -1     0     0   501   502  0.000000000E+00  0.000000000E+00 -4.853912815E+02  4.853912815E+02  0.000000000E+00  0.00000E+00  9.000E+00
      25     1     1     2     0     0  2.455647416E+02  2.934998708E+02 -2.621823958E+02  4.804256708E+02  1.250000000E+02  0.00000E+00  9.000E+00
      25     1     1     2     0     0 -2.240149069E+02 -2.823717693E+02  2.218955150E+02  4.413378685E+02  1.250000000E+02  0.00000E+00  9.000E+00
      21     1     1     2   511   502 -2.154983467E+01 -1.112810149E+01  2.931581090E+01  3.804795376E+01  3.371747881E-07  0.00000E+00  9.000E+00
#rwgt            1           1   3.1958709012773714E-002           8      301693           0
</event>
<event>
      5   9999  3.19816E-02  5.45578E+01 -1.00000E+00  1.36948E-01
      21    -1     0     0   502   501  0.000000000E+00  0.000000000E+00  5.724815900E+01  5.724815900E+01  0.000000000E+00  0.00000E+00  9.000E+00
       2    -1     0     0   501     0  0.000000000E+00  0.000000000E+00 -2.509621253E+03  2.509621253E+03  0.000000000E+00  0.00000E+00  9.000E+00
      25     1     1     2     0     0  2.291217002E+02 -4.545703130E+01 -1.098289852E+03  1.129791438E+03  1.250000000E+02  0.00000E+00  9.000E+00
      25     1     1     2     0     0 -2.495246143E+02 -5.142079119E+00 -4.380693148E+02  5.194407557E+02  1.250000000E+02  0.00000E+00  9.000E+00
       2     1     1     2   502     0  2.040291413E+01  5.059911042E+01 -9.160139273E+02  9.176372180E+02  1.078959322E-05  0.00000E+00  9.000E+00
#rwgt            1           1   3.4055005394289038E-002           8      301911           0
</event>
<event>
      5   9999  3.19816E-02  1.69564E+02 -1.00000E+00  1.14322E-01
      21    -1     0     0   502   501  0.000000000E+00  0.000000000E+00  6.769841872E+02  6.769841872E+02  0.000000000E+00  0.00000E+00  9.000E+00
       2    -1     0     0   501     0  0.000000000E+00  0.000000000E+00 -2.132832148E+03  2.132832148E+03  0.000000000E+00  0.00000E+00  9.000E+00
      25     1     1     2     0     0 -1.595777594E+02 -1.105263277E+03 -4.417098582E+02  1.207395781E+03  1.250000000E+02  0.00000E+00  9.000E+00
      25     1     1     2     0     0  2.582795024E+02  9.673868102E+02 -6.487444183E+02  1.199599876E+03  1.250000000E+02  0.00000E+00  9.000E+00
       2     1     1     2   502     0 -9.870174301E+01  1.378764671E+02 -3.653936841E+02  4.028206780E+02  5.394796609E-06  0.00000E+00  9.000E+00
#rwgt            1           1   2.3632612886713006E-002           8      301990           0
</event>
<event>
      5   9999  3.19816E-02  1.76876E+01 -1.00000E+00  1.70896E-01
      21    -1     0     0   511   501  0.000000000E+00  0.000000000E+00  8.151773936E+01  8.151773936E+01  0.000000000E+00  0.00000E+00  9.000E+00
      21    -1     0     0   501   502  0.000000000E+00  0.000000000E+00 -1.471523019E+03  1.471523019E+03  0.000000000E+00  0.00000E+00  9.000E+00
      25     1     1     2     0     0 -1.997611373E+02  1.799041919E+02 -7.578118764E+02  8.137406652E+02  1.250000000E+02  0.00000E+00  9.000E+00
      25     1     1     2     0     0  2.069933924E+02 -1.960455955E+02 -6.458479291E+02  7.169551503E+02  1.250000000E+02  0.00000E+00  9.000E+00
      21     1     1     2   511   502 -7.232255171E+00  1.614140353E+01  1.365452545E+01  2.234494323E+01  6.743495762E-07  0.00000E+00  9.000E+00
#rwgt            1           1   2.8977689918302064E-002           8      302085           0
</event>
<event>
      5   9999  3.19816E-02  3.01008E+02 -1.00000E+00  1.05545E-01
       2    -1     0     0   502     0  0.000000000E+00  0.000000000E+00  2.117761943E+03  2.117761943E+03  0.000000000E+00  0.00000E+00  9.000E+00
      21    -1     0     0   501   502  0.000000000E+00  0.000000000E+00 -7.498422284E+01  7.498422284E+01  0.000000000E+00  0.00000E+00  9.000E+00
      25     1     1     2     0     0  4.651008752E+00  1.339152973E+02  2.195772311E+02  2.859966768E+02  1.250000000E+02  0.00000E+00  9.000E+00
      25     1     1     2     0     0  4.625229409E+01  1.627569277E+02  1.153313531E+03  1.172342182E+03  1.250000000E+02  0.00000E+00  9.000E+00
       2     1     1     2   501     0 -5.090330284E+01 -2.966722250E+02  6.698869588E+02  7.344073072E+02  1.321449896E-05  0.00000E+00  9.000E+00
#rwgt            1           1   4.0338475569590151E-002           8      302209           0
</event>
<event>
      5   9999  3.19816E-02  1.66588E+02 -1.00000E+00  1.14616E-01
      21    -1     0     0   502   501  0.000000000E+00  0.000000000E+00  5.561622491E+02  5.561622491E+02  0.000000000E+00  0.00000E+00  9.000E+00
       1    -1     0     0   501     0  0.000000000E+00  0.000000000E+00 -7.369762642E+02  7.369762642E+02  0.000000000E+00  0.00000E+00  9.000E+00
      25     1     1     2     0     0 -5.462487977E+02  8.271233513E+01  6.833079378E+01  5.705463844E+02  1.250000000E+02  0.00000E+00  9.000E+00
      25     1     1     2     0     0  3.821208101E+02 -1.112332886E+02  6.803505966E+00  4.172055197E+02  1.250000000E+02  0.00000E+00  9.000E+00
       1     1     1     2   502     0  1.641279877E+02  2.852095351E+01 -2.559483149E+02  3.053866091E+02  2.697398305E-06  0.00000E+00  9.000E+00
#rwgt            1           1   2.5150506864922168E-002           8      302244           0
</event>
<event>
      5   9999  3.19816E-02  6.76300E+01 -1.00000E+00  1.31983E-01
      21    -1     0     0   502   511  0.000000000E+00  0.000000000E+00  3.295371306E+02  3.295371306E+02  0.000000000E+00  0.00000E+00  9.000E+00
      21    -1     0     0   501   502  0.000000000E+00  0.000000000E+00 -1.645414312E+02  1.645414312E+02  0.000000000E+00  0.00000E+00  9.000E+00
      25     1     1     2     0     0 -4.124556242E+01  5.447895689E+01  1.515210657E+02  2.079730428E+02  1.250000000E+02  0.00000E+00  9.000E+00
      25     1     1     2     0     0  3.821115256E+01 -1.220408520E+02 -5.771807434E+01  1.879107178E+02  1.250000000E+02  0.00000E+00  9.000E+00
      21     1     1     2   501   511  3.034409859E+00  6.756189515E+01  7.119270810E+01  9.819480132E+01  1.348699152E-06  0.00000E+00  9.000E+00
#rwgt            1           1   2.4979718070935440E-002           8      302308           0
</event>
<event>
      5   9999  3.19816E-02  9.21638E+01 -1.00000E+00  1.25443E-01
      21    -1     0     0   502   501  0.000000000E+00  0.000000000E+00  1.050635672E+02  1.050635672E+02  0.000000000E+00  0.00000E+00  9.000E+00
       2    -1     0     0   501     0  0.000000000E+00  0.000000000E+00 -1.110398233E+03  1.110398233E+03  0.000000000E+00  0.00000E+00  9.000E+00
      25     1     1     2     0     0 -8.834530797E+01 -6.649077835E+00 -3.970433373E+02  4.255790354E+02  1.250000000E+02  0.00000E+00  9.000E+00
      25     1     1     2     0     0 -1.495150640E+00 -1.391426120E+01  4.237078099E+01  1.327257519E+02  1.250000000E+02  0.00000E+00  9.000E+00
       2     1     1     2   502     0  8.984045861E+01  2.056333904E+01 -6.506621094E+02  6.571570129E+02  7.629394531E-06  0.00000E+00  9.000E+00
#rwgt            1           1   2.3817718889418842E-002           8      302389           0
</event>
<event>
      5   9999  3.19816E-02  7.26707E+01 -1.00000E+00  1.30402E-01
      21    -1     0     0   502   511  0.000000000E+00  0.000000000E+00  5.515481675E+02  5.515481675E+02  0.000000000E+00  0.00000E+00  9.000E+00
      21    -1     0     0   501   502  0.000000000E+00  0.000000000E+00 -2.208278704E+02  2.208278704E+02  0.000000000E+00  0.00000E+00  9.000E+00
      25     1     1     2     0     0 -1.875702222E+02  1.695056478E+02  1.364090210E+02  3.132844935E+02  1.250000000E+02  0.00000E+00  9.000E+00
      25     1     1     2     0     0  2.046717082E+02 -2.401354893E+02  1.348404250E+02  3.651883097E+02  1.250000000E+02  0.00000E+00  9.000E+00
      21     1     1     2   501   511 -1.710148601E+01  7.062984153E+01  5.947085112E+01  9.390323462E+01  2.023048729E-06  0.00000E+00  9.000E+00
#rwgt            2          11   3.4181361703648871E-003           8      302586           0
</event>
<event>
      5   9999  3.19816E-02  3.22254E+01 -1.00000E+00  1.50912E-01
      21    -1     0     0   502   512  0.000000000E+00  0.000000000E+00  3.016852120E+02  3.016852120E+02  0.000000000E+00  0.00000E+00  9.000E+00
      21    -1     0     0   501   502  0.000000000E+00  0.000000000E+00 -8.066016735E+02  8.066016735E+02  0.000000000E+00  0.00000E+00  9.000E+00
      25     1     1     2     0     0  1.323058826E+02  3.424168521E+01 -1.346547852E+02  2.289852631E+02  1.250000000E+02  0.00000E+00  9.000E+00
      25     1     1     2     0     0 -1.638085224E+02 -4.102854114E+01 -6.059915588E+02  6.413792501E+02  1.250000000E+02  0.00000E+00  9.000E+00
      21     1     1     2   501   512  3.150263984E+01  6.786855933E+00  2.357298824E+02  2.379223722E+02  2.697398305E-06  0.00000E+00  9.000E+00
#rwgt            1           1   2.8354079934166405E-002           8      302666           0
</event>
<event>
      5   9999  3.19816E-02  5.74816E+01 -1.00000E+00  1.35706E-01
      21    -1     0     0   502   501  0.000000000E+00  0.000000000E+00  2.148544704E+02  2.148544704E+02  0.000000000E+00  0.00000E+00  9.000E+00
      21    -1     0     0   501   511  0.000000000E+00  0.000000000E+00 -7.319035660E+02  7.319035660E+02  0.000000000E+00  0.00000E+00  9.000E+00
      25     1     1     2     0     0 -1.396241659E+02 -1.079360595E+02 -4.191182157E+01  2.202877696E+02  1.250000000E+02  0.00000E+00  9.000E+00
      25     1     1     2     0     0  1.484874793E+02  5.114194222E+01  4.289924405E+01  2.052544151E+02  1.250000000E+02  0.00000E+00  9.000E+00
      21     1     1     2   502   511 -8.863313416E+00  5.679411728E+01 -5.180365181E+02  5.212158518E+02  0.000000000E+00  0.00000E+00  9.000E+00
#rwgt            1           1   2.3102437217488465E-002           8      302759           0
</event>
<event>
      5   9999  3.19816E-02  3.57405E+01 -1.00000E+00  1.47939E-01
      21    -1     0     0   512   501  0.000000000E+00  0.000000000E+00  7.115703162E+02  7.115703162E+02  0.000000000E+00  0.00000E+00  9.000E+00
      21    -1     0     0   501   502  0.000000000E+00  0.000000000E+00 -1.433943999E+03  1.433943999E+03  0.000000000E+00  0.00000E+00  9.000E+00
      25     1     1     2     0     0 -7.953297603E+02 -1.580770583E+02 -3.982465298E+02  9.120104619E+02  1.250000000E+02  0.00000E+00  9.000E+00
      25     1     1     2     0     0  7.930658250E+02  1.937458243E+02 -5.581170461E+02  9.968001225E+02  1.250000000E+02  0.00000E+00  9.000E+00
      21     1     1     2   512   502  2.263935388E+00 -3.566876602E+01  2.339898929E+02  2.367037310E+02  3.814697266E-06  0.00000E+00  9.000E+00
#rwgt            1           1   2.9081609809565305E-002           8      302876           0
</event>
<event>
      5   9999  3.19816E-02  1.23028E+01 -1.00000E+00  1.85897E-01
      21    -1     0     0   511   501  0.000000000E+00  0.000000000E+00  1.175864087E+01  1.175864087E+01  0.000000000E+00  0.00000E+00  9.000E+00
      21    -1     0     0   501   502  0.000000000E+00  0.000000000E+00 -1.704806950E+03  1.704806950E+03  0.000000000E+00  0.00000E+00  9.000E+00
      25     1     1     2     0     0 -2.403794243E+01  4.204686513E+00 -1.038453178E+03  1.046233963E+03  1.250000000E+02  0.00000E+00  9.000E+00
      25     1     1     2     0     0  3.206808814E+01  5.116034341E+00 -6.263040571E+02  6.394812804E+02  1.250000000E+02  0.00000E+00  9.000E+00
      21     1     1     2   511   502 -8.030145707E+00 -9.320720854E+00 -2.829107372E+01  3.085034732E+01  4.768371582E-07  0.00000E+00  9.000E+00
#rwgt            1           1   1.1930337721826665E-002           8      303017           0
</event>
<event>
      5   9999  3.19816E-02  1.28220E+02 -1.00000E+00  1.19159E-01
      21    -1     0     0   502   512  0.000000000E+00  0.000000000E+00  7.407313280E+02  7.407313280E+02  0.000000000E+00  0.00000E+00  9.000E+00
      21    -1     0     0   501   502  0.000000000E+00  0.000000000E+00 -1.341693395E+02  1.341693395E+02  0.000000000E+00  0.00000E+00  9.000E+00
      25     1     1     2     0     0 -1.682787065E+02 -1.765454667E-02  2.561426819E+02  3.309860977E+02  1.250000000E+02  0.00000E+00  9.000E+00
      25     1     1     2     0     0  2.052825739E+02 -1.227466085E+02  1.581107341E+02  3.127805449E+02  1.250000000E+02  0.00000E+00  9.000E+00
      21     1     1     2   501   512 -3.700386742E+01  1.227642630E+02  1.923085723E+02  2.311340249E+02  2.697398305E-06  0.00000E+00  9.000E+00
#rwgt            1           1   2.9343949929919667E-002           8      303182           0
</event>
<event>
      5   9999  3.19816E-02  7.64495E+01 -1.00000E+00  1.29311E-01
      21    -1     0     0   502   501  0.000000000E+00  0.000000000E+00  1.282322840E+03  1.282322840E+03  0.000000000E+00  0.00000E+00  9.000E+00
      21    -1     0     0   501   511  0.000000000E+00  0.000000000E+00 -5.477950126E+02  5.477950126E+02  0.000000000E+00  0.00000E+00  9.000E+00
      25     1     1     2     0     0 -3.810687322E+02 -5.177776709E+02 -4.792075547E+01  6.566799022E+02  1.250000000E+02  0.00000E+00  9.000E+00
      25     1     1     2     0     0  4.561665978E+02  5.320895429E+02  8.219405320E+02  1.087390677E+03  1.250000000E+02  0.00000E+00  9.000E+00
      21     1     1     2   502   511 -7.509786557E+01 -1.431187191E+01 -3.949194953E+01  8.604727287E+01  1.719260824E-06  0.00000E+00  9.000E+00
#rwgt            1           1   3.2605335758889603E-002           8      303257           0
</event>
<event>
      5   9999  3.19816E-02  2.96443E+01 -1.00000E+00  1.53400E-01
       2    -1     0     0   502     0  0.000000000E+00  0.000000000E+00  2.120900691E+03  2.120900691E+03  0.000000000E+00  0.00000E+00  9.000E+00
      21    -1     0     0   501   502  0.000000000E+00  0.000000000E+00 -2.882588489E+02  2.882588489E+02  0.000000000E+00  0.00000E+00  9.000E+00
      25     1     1     2     0     0  1.251806577E+02  2.312567025E+02 -1.368388252E+02  3.217137293E+02  1.250000000E+02  0.00000E+00  9.000E+00
      25     1     1     2     0     0 -1.080845816E+02 -2.070387025E+02  2.392141227E+02  3.569253390E+02  1.250000000E+02  0.00000E+00  9.000E+00
       2     1     1     2   501     0 -1.709607609E+01 -2.421800006E+01  1.730266545E+03  1.730520472E+03  2.157918644E-05  0.00000E+00  9.000E+00
#rwgt            1           1   2.7563583531796745E-002           8      303358           0
</event>
<event>
      5   9999  3.19816E-02  1.77441E+01 -1.00000E+00  1.70775E-01
      21    -1     0     0   502   501  0.000000000E+00  0.000000000E+00  1.106967392E+02  1.106967392E+02  0.000000000E+00  0.00000E+00  9.000E+00
      21    -1     0     0   511   502  0.000000000E+00  0.000000000E+00 -9.471418636E+02  9.471418636E+02  0.000000000E+00  0.00000E+00  9.000E+00
      25     1     1     2     0     0 -1.994714577E+02 -1.722513413E+02 -5.974523373E+02  6.648561366E+02  1.250000000E+02  0.00000E+00  9.000E+00
      25     1     1     2     0     0  1.817302042E+02  1.719360460E+02 -1.829332390E+02  3.341817484E+02  1.250000000E+02  0.00000E+00  9.000E+00
      21     1     1     2   511   501  1.774125352E+01  3.152952872E-01 -5.605954801E+01  5.880071777E+01  9.536743164E-07  0.00000E+00  9.000E+00
#rwgt            1           1   2.7113881187766024E-002           8      303533           0
</event>
<event>
      5   9999  3.19816E-02  1.55718E+01 -1.00000E+00  1.75867E-01
      21    -1     0     0   512   501  0.000000000E+00  0.000000000E+00  4.358720045E+01  4.358720045E+01  0.000000000E+00  0.00000E+00  9.000E+00
      21    -1     0     0   501   502  0.000000000E+00  0.000000000E+00 -2.727751628E+03  2.727751628E+03  0.000000000E+00  0.00000E+00  9.000E+00
      25     1     1     2     0     0 -3.943379620E+01  1.836766784E+02 -1.430805234E+03  1.448489131E+03  1.250000000E+02  0.00000E+00  9.000E+00
      25     1     1     2     0     0  2.418314595E+01 -1.805304978E+02 -1.276215049E+03  1.295193397E+03  1.250000000E+02  0.00000E+00  9.000E+00
      21     1     1     2   512   502  1.525065025E+01 -3.146180616E+00  2.285585538E+01  2.765629966E+01  1.877309769E-06  0.00000E+00  9.000E+00
#rwgt            1           1   3.5536360958860265E-002           8      303695           0
</event>
<event>
      5   9999  3.19816E-02  1.83287E+02 -1.00000E+00  1.13045E-01
      21    -1     0     0   502   511  0.000000000E+00  0.000000000E+00  6.449306019E+02  6.449306019E+02  0.000000000E+00  0.00000E+00  9.000E+00
      21    -1     0     0   501   502  0.000000000E+00  0.000000000E+00 -6.885372300E+02  6.885372300E+02  0.000000000E+00  0.00000E+00  9.000E+00
      25     1     1     2     0     0  3.123110049E+02  3.797000564E+02  4.051136380E+01  5.088973052E+02  1.250000000E+02  0.00000E+00  9.000E+00
      25     1     1     2     0     0 -1.653404324E+02 -4.892164666E+02 -2.408996436E+02  5.833762491E+02  1.250000000E+02  0.00000E+00  9.000E+00
      21     1     1     2   501   511 -1.469705726E+02  1.095164101E+02  1.567816517E+02  2.411942777E+02  4.672030912E-06  0.00000E+00  9.000E+00
#rwgt            1           1   2.3756625065367722E-002           8      303882           0
</event>
<event>
      5   9999  3.19816E-02  1.83029E+02 -1.00000E+00  1.13068E-01
      21    -1     0     0   502   512  0.000000000E+00  0.000000000E+00  1.017763707E+03  1.017763707E+03  0.000000000E+00  0.00000E+00  9.000E+00
      21    -1     0     0   501   502  0.000000000E+00  0.000000000E+00 -1.236370229E+03  1.236370229E+03  0.000000000E+00  0.00000E+00  9.000E+00
      25     1     1     2     0     0 -6.940298097E+02 -2.770936988E+02 -3.026104249E+02  8.158776648E+02  1.250000000E+02  0.00000E+00  9.000E+00
      25     1     1     2     0     0  7.978039056E+02  1.263274527E+02 -4.078412102E+02  9.134599881E+02  1.250000000E+02  0.00000E+00  9.000E+00
      21     1     1     2   501   512 -1.037740960E+02  1.507662461E+02  4.918451134E+02  5.247962838E+02  1.078959322E-05  0.00000E+00  9.000E+00
#rwgt            2          11   3.5087200818730143E-003           8      304012           0
</event>
<event>
      5   9999  3.19816E-02  2.29012E+01 -1.00000E+00  1.61657E-01
      21    -1     0     0   511   501  0.000000000E+00  0.000000000E+00  4.493496669E+02  4.493496669E+02  0.000000000E+00  0.00000E+00  9.000E+00
      21    -1     0     0   501   502  0.000000000E+00  0.000000000E+00 -3.054671749E+02  3.054671749E+02  0.000000000E+00  0.00000E+00  9.000E+00
      25     1     1     2     0     0 -6.103245059E+01 -1.331138236E+02  2.763031970E+02  3.367680311E+02  1.250000000E+02  0.00000E+00  9.000E+00
      25     1     1     2     0     0  7.020555974E+01  1.540975964E+02 -2.335278036E+02  3.143805415E+02  1.250000000E+02  0.00000E+00  9.000E+00
      21     1     1     2   511   502 -9.173109150E+00 -2.098377279E+01  1.011070986E+02  1.036682692E+02  1.348699152E-06  0.00000E+00  9.000E+00
#rwgt            1           1   2.9547060143186386E-002           8      304032           0
</event>
<event>
      5   9999  3.19816E-02  2.24942E+02 -1.00000E+00  1.09821E-01
      21    -1     0     0   502   501  0.000000000E+00  0.000000000E+00  1.555987771E+03  1.555987771E+03  0.000000000E+00  0.00000E+00  9.000E+00
      21    -1     0     0   501   512  0.000000000E+00  0.000000000E+00 -1.105621901E+02  1.105621901E+02  0.000000000E+00  0.00000E+00  9.000E+00
      25     1     1     2     0     0 -4.436808840E+01 -2.160163903E+02  9.457500077E+02  9.791321082E+02  1.250000000E+02  0.00000E+00  9.000E+00
      25     1     1     2     0     0  1.941977069E+02  4.823671110E+01  1.810694875E+02  2.974066055E+02  1.250000000E+02  0.00000E+00  9.000E+00
      21     1     1     2   502   512 -1.498296185E+02  1.677796792E+02  3.186060857E+02  3.900112475E+02  3.814697266E-06  0.00000E+00  9.000E+00
#rwgt            1           1   2.7562942674921993E-002           8      304231           0
</event>
<event>
      5   9999  3.19816E-02  1.72540E+02 -1.00000E+00  1.14034E-01
      21    -1     0     0   511   501  0.000000000E+00  0.000000000E+00  1.716368542E+03  1.716368542E+03  0.000000000E+00  0.00000E+00  9.000E+00
      21    -1     0     0   501   502  0.000000000E+00  0.000000000E+00 -2.139653040E+02  2.139653040E+02  0.000000000E+00  0.00000E+00  9.000E+00
      25     1     1     2     0     0  9.755816317E+01  4.110907003E+02  2.708978947E+02  5.172270569E+02  1.250000000E+02  0.00000E+00  9.000E+00
      25     1     1     2     0     0 -2.667067526E+02 -3.770473906E+02  6.537002194E+02  8.100902440E+02  1.250000000E+02  0.00000E+00  9.000E+00
      21     1     1     2   511   502  1.691485894E+02 -3.404330963E+01  5.778051237E+02  6.030165447E+02  0.000000000E+00  0.00000E+00  9.000E+00
#rwgt            1           1   2.8508540545943550E-002           8      304284           0
</event>
<event>
      5   9999  3.19816E-02  3.10781E+01 -1.00000E+00  1.51982E-01
      21    -1     0     0   502   501  0.000000000E+00  0.000000000E+00  3.045900288E+02  3.045900288E+02  0.000000000E+00  0.00000E+00  9.000E+00
      21    -1     0     0   512   502  0.000000000E+00  0.000000000E+00 -3.995049945E+02  3.995049945E+02  0.000000000E+00  0.00000E+00  9.000E+00
      25     1     1     2     0     0 -8.895880456E+01 -9.415297772E+01 -7.027418665E+01  1.932405585E+02  1.250000000E+02  0.00000E+00  9.000E+00
      25     1     1     2     0     0  9.719610498E+01  6.418637372E+01  2.119448821E+02  2.722363063E+02  1.250000000E+02  0.00000E+00  9.000E+00
      21     1     1     2   512   501 -8.237300419E+00  2.996660401E+01 -2.365856612E+02  2.386181585E+02  2.697398305E-06  0.00000E+00  9.000E+00
#rwgt            1           1   2.5748727827273717E-002           8      304436           0
</event>
<event>
      5   9999  3.19816E-02  4.14558E+01 -1.00000E+00  1.43884E-01
      21    -1     0     0   502   501  0.000000000E+00  0.000000000E+00  3.954345845E+02  3.954345845E+02  0.000000000E+00  0.00000E+00  9.000E+00
      21    -1     0     0   501   511  0.000000000E+00  0.000000000E+00 -5.594973126E+02  5.594973126E+02  0.000000000E+00  0.00000E+00  9.000E+00
      25     1     1     2     0     0 -2.894829120E+02 -2.078886964E+02 -2.516524287E+02  4.538413944E+02  1.250000000E+02  0.00000E+00  9.000E+00
      25     1     1     2     0     0  2.962327432E+02  2.487913376E+02  1.438194953E+02  4.312308141E+02  1.250000000E+02  0.00000E+00  9.000E+00
      21     1     1     2   502   511 -6.749831250E+00 -4.090264122E+01 -5.622979469E+01  6.985968860E+01  9.536743164E-07  0.00000E+00  9.000E+00
#rwgt            1           1   2.9992820255507209E-002           8      304603           0
</event>
<event>
      5   9999  3.19816E-02  1.47913E+02 -1.00000E+00  1.16635E-01
      21    -1     0     0   502   501  0.000000000E+00  0.000000000E+00  3.840262429E+02  3.840262429E+02  0.000000000E+00  0.00000E+00  9.000E+00
      21    -1     0     0   501   512  0.000000000E+00  0.000000000E+00 -4.250892285E+02  4.250892285E+02  0.000000000E+00  0.00000E+00  9.000E+00
      25     1     1     2     0     0 -2.719048735E+01  9.964095505E+00  2.848992868E+02  3.124599325E+02  1.250000000E+02  0.00000E+00  9.000E+00
      25     1     1     2     0     0  1.747133037E+02  7.752762145E-01 -1.298632946E+02  2.510275181E+02  1.250000000E+02  0.00000E+00  9.000E+00
      21     1     1     2   502   512 -1.475228164E+02 -1.073937172E+01 -1.960989779E+02  2.456280207E+02  3.814697266E-06  0.00000E+00  9.000E+00
#rwgt            1           1   3.0965422051758774E-002           8      304711           0
</event>
<event>
      5   9999  3.19816E-02  2.73831E+01 -1.00000E+00  1.55845E-01
      21    -1     0     0   502   501  0.000000000E+00  0.000000000E+00  1.203701544E+03  1.203701544E+03  0.000000000E+00  0.00000E+00  9.000E+00
      21    -1     0     0   501   511  0.000000000E+00  0.000000000E+00 -1.101514270E+02  1.101514270E+02  0.000000000E+00  0.00000E+00  9.000E+00
      25     1     1     2     0     0  1.557915409E+02  1.346759997E+02  7.823325592E+01  2.532865402E+02  1.250000000E+02  0.00000E+00  9.000E+00
      25     1     1     2     0     0 -1.343892595E+02 -1.517575451E+02  1.002377976E+03  1.030280269E+03  1.250000000E+02  0.00000E+00  9.000E+00
      21     1     1     2   502   511 -2.140228139E+01  1.708154540E+01  1.293888471E+01  3.028616152E+01  6.951036328E-07  0.00000E+00  9.000E+00
#rwgt            1           1   2.9156086087734952E-002           8      304764           0
</event>
<event>
      5   9999  3.19816E-02  1.25277E+02 -1.00000E+00  1.19580E-01
       2    -1     0     0   502     0  0.000000000E+00  0.000000000E+00  2.374711019E+02  2.374711019E+02  0.000000000E+00  0.00000E+00  9.000E+00
      21    -1     0     0   501   502  0.000000000E+00  0.000000000E+00 -5.310907751E+02  5.310907751E+02  0.000000000E+00  0.00000E+00  9.000E+00
      25     1     1     2     0     0  8.967360884E+01 -1.924248423E+02 -2.237572109E+02  3.328077005E+02  1.250000000E+02  0.00000E+00  9.000E+00
      25     1     1     2     0     0  2.280554755E+01  2.475853701E+02 -1.170284073E+02  3.018927899E+02  1.250000000E+02  0.00000E+00  9.000E+00
       2     1     1     2   501     0 -1.124791564E+02 -5.516052777E+01  4.716594501E+01  1.338613866E+02  1.168007728E-06  0.00000E+00  9.000E+00
#rwgt            1           1   2.6564178730302007E-002           8      304919           0
</event>
<event>
      5   9999  3.19816E-02  1.78601E+01 -1.00000E+00  1.70529E-01
      21    -1     0     0   511   501  0.000000000E+00  0.000000000E+00  8.598225555E+01  8.598225555E+01  0.000000000E+00  0.00000E+00  9.000E+00
      21    -1     0     0   501   502  0.000000000E+00  0.000000000E+00 -7.509153944E+02  7.509153944E+02  0.000000000E+00  0.00000E+00  9.000E+00
      25     1     1     2     0     0 -1.429327917E+02  1.365703216E+02 -3.093394112E+02  3.878106587E+02  1.250000000E+02  0.00000E+00  9.000E+00
      25     1     1     2     0     0  1.607716922E+02 -1.374393872E+02 -3.543397035E+02  4.311829631E+02  1.250000000E+02  0.00000E+00  9.000E+00
      21     1     1     2   511   502 -1.783890054E+01  8.690655504E-01 -1.254024142E+00  1.790402815E+01  3.305237444E-07  0.00000E+00  9.000E+00
#rwgt            1           1   2.9932903764975809E-002           8      304987           0
</event>
<event>
      5   9999  3.19816E-02  2.63816E+02 -1.00000E+00  1.07438E-01
      21    -1     0     0   502   501  0.000000000E+00  0.000000000E+00  1.494117709E+02  1.494117709E+02  0.000000000E+00  0.00000E+00  9.000E+00
      21    -1     0     0   512   502  0.000000000E+00  0.000000000E+00 -1.968693192E+03  1.968693192E+03  0.000000000E+00  0.00000E+00  9.000E+00
      25     1     1     2     0     0 -5.164380410E+01 -4.623215226E+01 -1.110807253E+02  1.810205014E+02  1.250000000E+02  0.00000E+00  9.000E+00
      25     1     1     2     0     0 -7.334349896E+01  2.785618120E+02 -1.347990662E+02  3.417188028E+02  1.250000000E+02  0.00000E+00  9.000E+00
      21     1     1     2   512   501  1.249873031E+02 -2.323296597E+02 -1.573401630E+03  1.595365659E+03  0.000000000E+00  0.00000E+00  9.000E+00
#rwgt            2          11   1.9342149126892806E-003           8      305513           0
</event>
<event>
      5   9999  3.19816E-02  2.42687E+02 -1.00000E+00  1.08673E-01
       2    -1     0     0   502     0  0.000000000E+00  0.000000000E+00  2.069453105E+03  2.069453105E+03  0.000000000E+00  0.00000E+00  9.000E+00
      21    -1     0     0   501   502  0.000000000E+00  0.000000000E+00 -6.482936601E+01  6.482936601E+01  0.000000000E+00  0.00000E+00  9.000E+00
      25     1     1     2     0     0 -6.705642608E+01  2.401050099E+01  4.894854209E+02  5.101902055E+02  1.250000000E+02  0.00000E+00  9.000E+00
      25     1     1     2     0     0  3.091131445E+02 -6.535011147E+00  1.010943372E+03  1.064530481E+03  1.250000000E+02  0.00000E+00  9.000E+00
       2     1     1     2   501     0 -2.420567185E+02 -1.747548985E+01  5.041949462E+02  5.595617852E+02  9.344061824E-06  0.00000E+00  9.000E+00
#rwgt            2          18   1.5012434970644623E-003           8      305533           0
</event>
<event>
      5   9999  3.19816E-02  9.55278E+01 -1.00000E+00  1.24728E-01
      21    -1     0     0   502   501  0.000000000E+00  0.000000000E+00  1.152650699E+03  1.152650699E+03  0.000000000E+00  0.00000E+00  9.000E+00
       2    -1     0     0   501     0  0.000000000E+00  0.000000000E+00 -3.137150632E+02  3.137150632E+02  0.000000000E+00  0.00000E+00  9.000E+00
      25     1     1     2     0     0  2.097059444E+02 -3.642197129E+02  2.675637652E+01  4.392874755E+02  1.250000000E+02  0.00000E+00  9.000E+00
      25     1     1     2     0     0 -1.662576338E+02  4.492949917E+02  7.844128794E+02  9.275969792E+02  1.250000000E+02  0.00000E+00  9.000E+00
       2     1     1     2   502     0 -4.344831069E+01 -8.507527883E+01  2.776638029E+01  9.948130802E+01  3.371747881E-07  0.00000E+00  9.000E+00
#rwgt            1           1   3.2206910005304429E-002           8      305567           0
</event>
<event>
      5   9999  3.19816E-02  2.31652E+01 -1.00000E+00  1.61271E-01
      21    -1     0     0   502   511  0.000000000E+00  0.000000000E+00  1.111786795E+03  1.111786795E+03  0.000000000E+00  0.00000E+00  9.000E+00
      21    -1     0     0   501   502  0.000000000E+00  0.000000000E+00 -5.497365452E+02  5.497365452E+02  0.000000000E+00  0.00000E+00  9.000E+00
      25     1     1     2     0     0 -1.260303401E+02  6.923264922E+02 -3.723843102E+01  7.156894014E+02  1.250000000E+02  0.00000E+00  9.000E+00
      25     1     1     2     0     0  1.466933375E+02 -6.818543923E+02  5.813365761E+02  9.165269021E+02  1.250000000E+02  0.00000E+00  9.000E+00
      21     1     1     2   501   511 -2.066299743E+01 -1.047209995E+01  1.795210487E+01  2.930703686E+01  3.371747881E-07  0.00000E+00  9.000E+00
#rwgt            1           1   3.6209417756546479E-002           8      305664           0
</event>
<event>
      5   9999  3.19816E-02  9.30788E+00 -1.00000E+00  1.99428E-01
      21    -1     0     0   502   501  0.000000000E+00  0.000000000E+00  1.250491570E+02  1.250491570E+02  0.000000000E+00  0.00000E+00  9.000E+00
      21    -1     0     0   512   502  0.000000000E+00  0.000000000E+00 -1.282659024E+03  1.282659024E+03  0.000000000E+00  0.00000E+00  9.000E+00
      25     1     1     2     0     0  3.170545869E+02  1.688755227E+02 -6.046770360E+02  7.143541636E+02  1.250000000E+02  0.00000E+00  9.000E+00
      25     1     1     2     0     0 -3.130015675E+02 -1.604963965E+02 -4.273825370E+02  5.674591681E+02  1.250000000E+02  0.00000E+00  9.000E+00
      21     1     1     2   512   501 -4.053019442E+00 -8.379126169E+00 -1.255502939E+02  1.258948490E+02  1.348699152E-06  0.00000E+00  9.000E+00
#rwgt            1           1   2.8084013310159198E-002           8      305848           0
</event>
<event>
      5   9999  3.19816E-02  9.26664E+01 -1.00000E+00  1.25334E-01
      21    -1     0     0   502   501  0.000000000E+00  0.000000000E+00  1.186431871E+02  1.186431871E+02  0.000000000E+00  0.00000E+00  9.000E+00
       1    -1     0     0   501     0  0.000000000E+00  0.000000000E+00 -1.015133151E+03  1.015133151E+03  0.000000000E+00  0.00000E+00  9.000E+00
      25     1     1     2     0     0 -2.863626949E+01  2.138478101E+02 -7.743970631E+01  2.610992721E+02  1.250000000E+02  0.00000E+00  9.000E+00
      25     1     1     2     0     0 -1.910895996E+01 -1.344283369E+02 -3.620436521E+02  4.063701959E+02  1.250000000E+02  0.00000E+00  9.000E+00
       1     1     1     2   502     0  4.774522945E+01 -7.941947318E+01 -4.570066058E+02  4.663068705E+02  9.344061824E-06  0.00000E+00  9.000E+00
#rwgt            1           1   2.4130579604551766E-002           8      306023           0
</event>
<event>
      5   9999  3.19816E-02  8.26266E+00 -1.00000E+00  2.05853E-01
      21    -1     0     0   502   511  0.000000000E+00  0.000000000E+00  5.580085848E+02  5.580085848E+02  0.000000000E+00  0.00000E+00  9.000E+00
      21    -1     0     0   501   502  0.000000000E+00  0.000000000E+00 -1.681189429E+02  1.681189429E+02  0.000000000E+00  0.00000E+00  9.000E+00
      25     1     1     2     0     0  6.825846442E+00 -7.013073204E+01 -1.236703724E+02  1.894314461E+02  1.250000000E+02  0.00000E+00  9.000E+00
      25     1     1     2     0     0  7.829596077E-01  7.335217027E+01  5.018834155E+02  5.223917272E+02  1.250000000E+02  0.00000E+00  9.000E+00
      21     1     1     2   501   511 -7.608806050E+00 -3.221438231E+00  1.167659889E+01  1.430435442E+01  1.685873940E-07  0.00000E+00  9.000E+00
#rwgt            1           1   2.7750718965649068E-002           8      306074           0
</event>
<event>
      5   9999  3.19816E-02  3.72069E+01 -1.00000E+00  1.46817E-01
      21    -1     0     0   502   501  0.000000000E+00  0.000000000E+00  2.175007455E+02  2.175007455E+02  0.000000000E+00  0.00000E+00  9.000E+00
      21    -1     0     0   512   502  0.000000000E+00  0.000000000E+00 -3.238471925E+02  3.238471925E+02  0.000000000E+00  0.00000E+00  9.000E+00
      25     1     1     2     0     0  6.669756023E+00 -1.919498193E+02 -9.746195777E+01  2.490241996E+02  1.250000000E+02  0.00000E+00  9.000E+00
      25     1     1     2     0     0 -3.829351671E+01  2.115531119E+02  1.323084246E+01  2.490404943E+02  1.250000000E+02  0.00000E+00  9.000E+00
      21     1     1     2   512   501  3.162376069E+01 -1.960329265E+01 -2.211533167E+01  4.328324408E+01  6.743495762E-07  0.00000E+00  9.000E+00
#rwgt            1           1   2.5004374339771054E-002           8      306334           0
</event>
<event>
      5   9999  3.19816E-02  5.12362E+01 -1.00000E+00  1.38473E-01
      21    -1     0     0   502   501  0.000000000E+00  0.000000000E+00  2.824072179E+02  2.824072179E+02  0.000000000E+00  0.00000E+00  9.000E+00
      21    -1     0     0   501   511  0.000000000E+00  0.000000000E+00 -4.433812572E+02  4.433812572E+02  0.000000000E+00  0.00000E+00  9.000E+00
      25     1     1     2     0     0 -3.372995235E+01 -2.786053757E+02 -4.908713478E+01  3.111160746E+02  1.250000000E+02  0.00000E+00  9.000E+00
      25     1     1     2     0     0  1.156679406E+00  3.181544947E+02 -7.101238662E+01  3.491294594E+02  1.250000000E+02  0.00000E+00  9.000E+00
      21     1     1     2   502   511  3.257327294E+01 -3.954911897E+01 -4.087451788E+01  6.554294114E+01  4.768371582E-07  0.00000E+00  9.000E+00
#rwgt            1           1   2.6522678916433923E-002           8      306416           0
</event>
<event>
      5   9999  3.19816E-02  1.12384E+01 -1.00000E+00  1.90073E-01
      21    -1     0     0   512   501  0.000000000E+00  0.000000000E+00  7.393264645E+02  7.393264645E+02  0.000000000E+00  0.00000E+00  9.000E+00
      21    -1     0     0   501   502  0.000000000E+00  0.000000000E+00 -7.155458055E+01  7.155458055E+01  0.000000000E+00  0.00000E+00  9.000E+00
      25     1     1     2     0     0 -1.569431686E+02  9.036202544E+01  2.412181532E+02  3.265082713E+02  1.250000000E+02  0.00000E+00  9.000E+00
      25     1     1     2     0     0  1.550776948E+02 -7.927954548E+01  3.782467220E+02  4.347757128E+02  1.250000000E+02  0.00000E+00  9.000E+00
      21     1     1     2   512   502  1.865473839E+00 -1.108247996E+01  4.830700875E+01  4.959706090E+01  9.536743164E-07  0.00000E+00  9.000E+00
#rwgt            1           1   2.6922235421782639E-002           8      306598           0
</event>
<event>
      5   9999  3.19816E-02  8.99567E+01 -1.00000E+00  1.25931E-01
       1    -1     0     0   502     0  0.000000000E+00  0.000000000E+00  3.428148900E+02  3.428148900E+02  0.000000000E+00  0.00000E+00  9.000E+00
      21    -1     0     0   501   502  0.000000000E+00  0.000000000E+00 -5.313052469E+02  5.313052469E+02  0.000000000E+00  0.00000E+00  9.000E+00
      25     1     1     2     0     0 -1.544312723E+02  1.076738655E+02 -3.367314857E+02  4.055314694E+02  1.250000000E+02  0.00000E+00  9.000E+00
      25     1     1     2     0     0  6.472214839E+01 -1.010050256E+02 -1.031185408E+02  2.016169764E+02  1.250000000E+02  0.00000E+00  9.000E+00
       1     1     1     2   501     0  8.970912392E+01 -6.668839858E+00  2.513596696E+02  2.669716911E+02  3.814697266E-06  0.00000E+00  9.000E+00
#rwgt            1           1   2.8665932215652761E-002           8      306794           0
</event>
<event>
      5   9999  3.19816E-02  2.64357E+02 -1.00000E+00  1.07408E-01
       2    -1     0     0   502     0  0.000000000E+00  0.000000000E+00  1.264281597E+03  1.264281597E+03  0.000000000E+00  0.00000E+00  9.000E+00
      21    -1     0     0   501   502  0.000000000E+00  0.000000000E+00 -1.744184433E+02  1.744184433E+02  0.000000000E+00  0.00000E+00  9.000E+00
      25     1     1     2     0     0  5.485064552E+01  3.576153666E+02  8.922850169E+02  9.709247628E+02  1.250000000E+02  0.00000E+00  9.000E+00
      25     1     1     2     0     0 -2.843047994E+01 -9.458161385E+01  6.531882813E+01  1.721787536E+02  1.250000000E+02  0.00000E+00  9.000E+00
       2     1     1     2   501     0 -2.642016558E+01 -2.630337527E+02  1.322593087E+02  2.955965239E+02  8.092194914E-06  0.00000E+00  9.000E+00
#rwgt            1           1   3.3567006463593910E-002           8      306841           0
</event>
<event>
      5   9999  3.19816E-02  6.80002E+01 -1.00000E+00  1.31861E-01
      21    -1     0     0   502   501  0.000000000E+00  0.000000000E+00  9.062015880E+01  9.062015880E+01  0.000000000E+00  0.00000E+00  9.000E+00
      21    -1     0     0   511   502  0.000000000E+00  0.000000000E+00 -9.792165678E+02  9.792165678E+02  0.000000000E+00  0.00000E+00  9.000E+00
      25     1     1     2     0     0 -1.692215227E+02 -3.045481559E+01 -1.717038104E+02  2.732592506E+02  1.250000000E+02  0.00000E+00  9.000E+00
      25     1     1     2     0     0  1.066601505E+02  5.710263997E+01 -1.625679691E+02  2.380975510E+02  1.250000000E+02  0.00000E+00  9.000E+00
      21     1     1     2   511   501  6.256137215E+01 -2.664782438E+01 -5.543246295E+02  5.584799250E+02  0.000000000E+00  0.00000E+00  9.000E+00
#rwgt            1           1   2.5825822843913770E-002           8      306876           0
</event>
<event>
      5   9999  3.19816E-02  1.79527E+02 -1.00000E+00  1.13382E-01
      21    -1     0     0   512   501  0.000000000E+00  0.000000000E+00  1.462397901E+02  1.462397901E+02  0.000000000E+00  0.00000E+00  9.000E+00
      21    -1     0     0   501   502  0.000000000E+00  0.000000000E+00 -5.465497990E+02  5.465497990E+02  0.000000000E+00  0.00000E+00  9.000E+00
      25     1     1     2     0     0  1.341840632E+02  1.159469245E+02 -1.483627346E+02  2.628413079E+02  1.250000000E+02  0.00000E+00  9.000E+00
      25     1     1     2     0     0  4.351760381E+01 -9.040826404E+01 -1.665247760E+02  2.311340240E+02  1.250000000E+02  0.00000E+00  9.000E+00
      21     1     1     2   512   502 -1.777016670E+02 -2.553866045E+01 -8.542249826E+01  1.988142572E+02  3.693564745E-06  0.00000E+00  9.000E+00
#rwgt            1           1   2.8542848151431693E-002           8      306965           0
</event>
<event>
      5   9999  3.19816E-02  1.32021E+02 -1.00000E+00  1.18634E-01
      21    -1     0     0   511   501  0.000000000E+00  0.000000000E+00  3.441178309E+02  3.441178309E+02  0.000000000E+00  0.00000E+00  9.000E+00
      21    -1     0     0   501   502  0.000000000E+00  0.000000000E+00 -1.363629556E+03  1.363629556E+03  0.000000000E+00  0.00000E+00  9.000E+00
      25     1     1     2     0     0  2.553604376E+02 -7.020113941E+01 -3.499513844E+02  4.563201996E+02  1.250000000E+02  0.00000E+00  9.000E+00
      25     1     1     2     0     0 -3.602510909E+02 -9.970191153E+00 -9.046620142E+02  9.817935695E+02  1.250000000E+02  0.00000E+00  9.000E+00
      21     1     1     2   511   502  1.048906533E+02  8.017133057E+01  2.351016731E+02  2.696336183E+02  2.697398305E-06  0.00000E+00  9.000E+00
#rwgt            1           1   1.9274690774483818E-002           8      306995           0
</event>
<event>
      5   9999  3.19816E-02  1.11592E+02 -1.00000E+00  1.21723E-01
      21    -1     0     0   502   501  0.000000000E+00  0.000000000E+00  7.524478668E+02  7.524478668E+02  0.000000000E+00  0.00000E+00  9.000E+00
      21    -1     0     0   501   512  0.000000000E+00  0.000000000E+00 -3.452771284E+02  3.452771284E+02  0.000000000E+00  0.00000E+00  9.000E+00
      25     1     1     2     0     0  1.723249848E+01  9.733308793E+01  4.895335431E+02  5.148191710E+02  1.250000000E+02  0.00000E+00  9.000E+00
      25     1     1     2     0     0  2.059249719E+01 -2.023184910E+02  1.792304472E+02  2.985052360E+02  1.250000000E+02  0.00000E+00  9.000E+00
      21     1     1     2   502   512 -3.782499567E+01  1.049854031E+02 -2.615932518E+02  2.844005882E+02  5.394796609E-06  0.00000E+00  9.000E+00
#rwgt            1           1   3.3096660074455803E-002           8      307050           0
</event>
<event>
      5   9999  3.19816E-02  7.75055E+01 -1.00000E+00  1.29019E-01
      21    -1     0     0   502   511  0.000000000E+00  0.000000000E+00  1.200019791E+02  1.200019791E+02  0.000000000E+00  0.00000E+00  9.000E+00
      21    -1     0     0   501   502  0.000000000E+00  0.000000000E+00 -6.106762262E+02  6.106762262E+02  0.000000000E+00  0.00000E+00  9.000E+00
      25     1     1     2     0     0 -4.237367219E+01 -6.959488464E+01 -2.423638958E+02  2.846124277E+02  1.250000000E+02  0.00000E+00  9.000E+00
      25     1     1     2     0     0 -3.444350857E+01  5.928866837E+01 -3.137532628E+02  3.446267711E+02  1.250000000E+02  0.00000E+00  9.000E+00
      21     1     1     2   501   511  7.681718076E+01  1.030621627E+01  6.544291149E+01  1.014390064E+02  1.907348633E-06  0.00000E+00  9.000E+00
#rwgt            1           1   2.2929052560557120E-002           8      307108           0
</event>
<event>
      5   9999  3.19816E-02  2.12612E+01 -1.00000E+00  1.64207E-01
      21    -1     0     0   502   501  0.000000000E+00  0.000000000E+00  1.058094281E+03  1.058094281E+03  0.000000000E+00  0.00000E+00  9.000E+00
      21    -1     0     0   512   502  0.000000000E+00  0.000000000E+00 -1.428143428E+02  1.428143428E+02  0.000000000E+00  0.00000E+00  9.000E+00
      25     1     1     2     0     0 -1.895118613E+02  2.130668443E+02  2.541021414E+02  4.018770011E+02  1.250000000E+02  0.00000E+00  9.000E+00
      25     1     1     2     0     0  2.043131286E+02 -2.283298695E+02  6.888053086E+02  7.641702278E+02  1.250000000E+02  0.00000E+00  9.000E+00
      21     1     1     2   512   501 -1.480126734E+01  1.526302524E+01 -2.762751179E+01  3.486139500E+01  7.539457465E-07  0.00000E+00  9.000E+00
#rwgt            1           1   2.8728371638348738E-002           8      307164           0
</event>
<event>
      5   9999  3.19816E-02  4.18552E+01 -1.00000E+00  1.43629E-01
      21    -1     0     0   502   501  0.000000000E+00  0.000000000E+00  4.807932263E+02  4.807932263E+02  0.000000000E+00  0.00000E+00  9.000E+00
      21    -1     0     0   511   502  0.000000000E+00  0.000000000E+00 -2.080464840E+03  2.080464840E+03  0.000000000E+00  0.00000E+00  9.000E+00
      25     1     1     2     0     0  6.971397695E+02 -6.343686073E+02 -9.341749114E+02  1.332942292E+03  1.250000000E+02  0.00000E+00  9.000E+00
      25     1     1     2     0     0 -6.819588289E+02  6.733737452E+02 -5.651906852E+02  1.119627418E+03  1.250000000E+02  0.00000E+00  9.000E+00
      21     1     1     2   511   501 -1.518094061E+01 -3.900513786E+01 -1.003060165E+02  1.086883558E+02  0.000000000E+00  0.00000E+00  9.000E+00
#rwgt            1           1   3.2081306984426482E-002           8      307336           0
</event>
<event>
      5   9999  3.19816E-02  3.27392E+01 -1.00000E+00  1.50450E-01
      21    -1     0     0   502   501  0.000000000E+00  0.000000000E+00  2.065722973E+03  2.065722973E+03  0.000000000E+00  0.00000E+00  9.000E+00
       2    -1     0     0   501     0  0.000000000E+00  0.000000000E+00 -1.456971680E+03  1.456971680E+03  0.000000000E+00  0.00000E+00  9.000E+00
      25     1     1     2     0     0 -6.929197667E+02  4.808239773E+02  1.508498634E+03  1.732778875E+03  1.250000000E+02  0.00000E+00  9.000E+00
      25     1     1     2     0     0  6.775965408E+02 -4.518920744E+02  6.319669037E+01  8.264153560E+02  1.250000000E+02  0.00000E+00  9.000E+00
       2     1     1     2   502     0  1.532322586E+01 -2.893190293E+01 -9.629440312E+02  9.635004221E+02  1.078959322E-05  0.00000E+00  9.000E+00
#rwgt            1           1   3.6046394095078024E-002           8      307592           0
</event>
<event>
      5   9999  3.19816E-02  1.46723E+02 -1.00000E+00  1.16775E-01
      21    -1     0     0   502   501  0.000000000E+00  0.000000000E+00  1.530860005E+03  1.530860005E+03  0.000000000E+00  0.00000E+00  9.000E+00
      21    -1     0     0   511   502  0.000000000E+00  0.000000000E+00 -1.062750585E+02  1.062750585E+02  0.000000000E+00  0.00000E+00  9.000E+00
      25     1     1     2     0     0 -1.609935020E+02 -2.328741152E+02  1.183113598E+03  1.222919477E+03  1.250000000E+02  0.00000E+00  9.000E+00
      25     1     1     2     0     0  1.041388958E+02  9.761433921E+01  1.312887984E+02  2.307275827E+02  1.250000000E+02  0.00000E+00  9.000E+00
      21     1     1     2   511   501  5.685460620E+01  1.352597760E+02  1.101825499E+02  1.834880038E+02  2.336015456E-06  0.00000E+00  9.000E+00
#rwgt            1           1   2.6093625840969532E-002           8      307859           0
</event>
<event>
      5   9999  3.19816E-02  6.29755E+01 -1.00000E+00  1.33590E-01
      21    -1     0     0   502   501  0.000000000E+00  0.000000000E+00  2.636309383E+02  2.636309383E+02  0.000000000E+00  0.00000E+00  9.000E+00
      21    -1     0     0   512   502  0.000000000E+00  0.000000000E+00 -2.164257267E+02  2.164257267E+02  0.000000000E+00  0.00000E+00  9.000E+00
      25     1     1     2     0     0 -5.406294520E+01  1.018432168E+02  1.048461998E+02  1.997813016E+02  1.250000000E+02  0.00000E+00  9.000E+00
      25     1     1     2     0     0  1.152509146E+02 -8.694553289E+01  5.573483581E+00  1.910454467E+02  1.250000000E+02  0.00000E+00  9.000E+00
      21     1     1     2   512   501 -6.118796936E+01 -1.489768392E+01 -6.321447182E+01  8.922991667E+01  1.168007728E-06  0.00000E+00  9.000E+00
#rwgt            1           1   3.0717835908499438E-002           8      307905           0
</event>
<event>
      5   9999  3.19816E-02  6.98188E+00 -1.00000E+00  2.15713E-01
      21    -1     0     0   502   501  0.000000000E+00  0.000000000E+00  4.492218162E+02  4.492218162E+02  0.000000000E+00  0.00000E+00  9.000E+00
      21    -1     0     0   501   511  0.000000000E+00  0.000000000E+00 -5.773340473E+02  5.773340473E+02  0.000000000E+00  0.00000E+00  9.000E+00
      25     1     1     2     0     0 -4.193516202E+02 -2.260397840E+02  6.410253768E+01  4.966728306E+02  1.250000000E+02  0.00000E+00  9.000E+00
      25     1     1     2     0     0  4.123779727E+02  2.263787352E+02 -1.904247766E+02  5.226753482E+02  1.250000000E+02  0.00000E+00  9.000E+00
      21     1     1     2   502   511  6.973647455E+00 -3.389511225E-01 -1.789992206E+00  7.207684703E+00  8.161702119E-08  0.00000E+00  9.000E+00
#rwgt            1           1   3.3238995413811388E-002           8      307939           0
</event>
<event>
      5   9999  3.19816E-02  5.31854E+01 -1.00000E+00  1.37562E-01
      21    -1     0     0   512   501  0.000000000E+00  0.000000000E+00  1.878091619E+02  1.878091619E+02  0.000000000E+00  0.00000E+00  9.000E+00
      21    -1     0     0   501   502  0.000000000E+00  0.000000000E+00 -1.392059787E+03  1.392059787E+03  0.000000000E+00  0.00000E+00  9.000E+00
      25     1     1     2     0     0 -4.915752318E+01 -1.910626988E+02 -2.566541658E+02  3.470126478E+02  1.250000000E+02  0.00000E+00  9.000E+00
      25     1     1     2     0     0 -1.870749322E+00  2.060562320E+02 -1.071367431E+03  1.098141996E+03  1.250000000E+02  0.00000E+00  9.000E+00
      21     1     1     2   512   502  5.102827251E+01 -1.499353321E+01  1.237709717E+02  1.347143053E+02  2.336015456E-06  0.00000E+00  9.000E+00
#rwgt            1           1   3.4782102887248770E-002           8      308285           0
</event>
<event>
      5   9999  3.19816E-02  8.85254E+01 -1.00000E+00  1.26256E-01
      21    -1     0     0   511   501  0.000000000E+00  0.000000000E+00  8.666860045E+01  8.666860045E+01  0.000000000E+00  0.00000E+00  9.000E+00
      21    -1     0     0   501   502  0.000000000E+00  0.000000000E+00 -6.332127692E+02  6.332127692E+02  0.000000000E+00  0.00000E+00  9.000E+00
      25     1     1     2     0     0  1.015325277E+02  3.361783055E+01 -2.075650068E+02  2.648532514E+02  1.250000000E+02  0.00000E+00  9.000E+00
      25     1     1     2     0     0 -1.290367164E+02 -1.177621700E+02 -2.477591623E+02  3.279146313E+02  1.250000000E+02  0.00000E+00  9.000E+00
      21     1     1     2   511   502  2.750418871E+01  8.414433943E+01 -9.121999960E+01  1.271134870E+02  0.000000000E+00  0.00000E+00  9.000E+00
#rwgt            1           1   2.6774887407458568E-002           8      308394           0
</event>
<event>
      5   9999  3.19816E-02  1.04115E+02 -1.00000E+00  1.23045E-01
      21    -1     0     0   502   501  0.000000000E+00  0.000000000E+00  1.048580730E+03  1.048580730E+03  0.000000000E+00  0.00000E+00  9.000E+00
       2    -1     0     0   501     0  0.000000000E+00  0.000000000E+00 -1.803433432E+03  1.803433432E+03  0.000000000E+00  0.00000E+00  9.000E+00
      25     1     1     2     0     0 -5.309327028E+02 -5.970817465E+02  6.338407463E+02  1.027509240E+03  1.250000000E+02  0.00000E+00  9.000E+00
      25     1     1     2     0     0  6.336407553E+02  6.141414698E+02 -7.143932123E+02  1.142214084E+03  1.250000000E+02  0.00000E+00  9.000E+00
       2     1     1     2   502     0 -1.027080525E+02 -1.705972332E+01 -6.743002359E+02  6.822908370E+02  0.000000000E+00  0.00000E+00  9.000E+00
#rwgt            1           1   1.5770954413405265E-002           8      308441           0
</event>
<event>
      5   9999  3.19816E-02  3.91232E+01 -1.00000E+00  1.45440E-01
      21    -1     0     0   511   501  0.000000000E+00  0.000000000E+00  8.787666679E+02  8.787666679E+02  0.000000000E+00  0.00000E+00  9.000E+00
      21    -1     0     0   501   502  0.000000000E+00  0.000000000E+00 -9.004955797E+02  9.004955797E+02  0.000000000E+00  0.00000E+00  9.000E+00
      25     1     1     2     0     0  6.070953773E+02  6.212601318E+02  4.853269707E+01  8.789251227E+02  1.250000000E+02  0.00000E+00  9.000E+00
      25     1     1     2     0     0 -6.054177277E+02 -5.821728985E+02 -9.435396573E+01  8.543907652E+02  1.250000000E+02  0.00000E+00  9.000E+00
      21     1     1     2   511   502 -1.677649650E+00 -3.908723330E+01  2.409235688E+01  4.594635976E+01  7.539457465E-07  0.00000E+00  9.000E+00
#rwgt            1           1   3.1895550316066279E-002           8      308562           0
</event>
<event>
      5   9999  3.19816E-02  1.17354E+02 -1.00000E+00  1.20781E-01
       4    -1     0     0   502     0  0.000000000E+00  0.000000000E+00  4.132748996E+02  4.132748996E+02  0.000000000E+00  0.00000E+00  9.000E+00
      21    -1     0     0   501   502  0.000000000E+00  0.000000000E+00 -2.617752460E+02  2.617752460E+02  0.000000000E+00  0.00000E+00  9.000E+00
      25     1     1     2     0     0  6.922744696E+00 -1.173692122E+01 -1.725478951E+01  1.269189012E+02  1.250000000E+02  0.00000E+00  9.000E+00
      25     1     1     2     0     0  8.223715326E+01  8.804216112E+01 -1.366628576E+02  2.209436764E+02  1.250000000E+02  0.00000E+00  9.000E+00
       4     1     1     2   501     0 -8.915989796E+01 -7.630523990E+01  3.054173008E+02  3.271875680E+02  3.814697266E-06  0.00000E+00  9.000E+00
#rwgt            1           1   2.7432517509377547E-002           8      308701           0
</event>
<event>
      5   9999  3.19816E-02  3.50678E+01 -1.00000E+00  1.48476E-01
       2    -1     0     0   502     0  0.000000000E+00  0.000000000E+00  3.460688622E+03  3.460688622E+03  0.000000000E+00  0.00000E+00  9.000E+00
      21    -1     0     0   501   502  0.000000000E+00  0.000000000E+00 -3.962550946E+02  3.962550946E+02  0.000000000E+00  0.00000E+00  9.000E+00
      25     1     1     2     0     0 -3.280754087E+02 -1.640108832E+02  8.227020195E+02  9.093935652E+02  1.250000000E+02  0.00000E+00  9.000E+00
      25     1     1     2     0     0  3.600709081E+02  1.496568828E+02 -2.339640705E+02  4.716062210E+02  1.250000000E+02  0.00000E+00  9.000E+00
       2     1     1     2   501     0 -3.199549940E+01  1.435400041E+01  2.475695578E+03  2.475943930E+03  3.051757812E-05  0.00000E+00  9.000E+00
#rwgt            1           1   3.1348723155598536E-002           8      308755           0
</event>
<event>
      5   9999  3.19816E-02  1.37429E+02 -1.00000E+00  1.17920E-01
      21    -1     0     0   502   511  0.000000000E+00  0.000000000E+00  7.401046333E+02  7.401046333E+02  0.000000000E+00  0.00000E+00  9.000E+00
      21    -1     0     0   501   502  0.000000000E+00  0.000000000E+00 -1.245634066E+03  1.245634066E+03  0.000000000E+00  0.00000E+00  9.000E+00
      25     1     1     2     0     0  2.661585913E+02  1.866532902E+02 -1.052744612E+03  1.108862509E+03  1.250000000E+02  0.00000E+00  9.000E+00
      25     1     1     2     0     0 -3.989450829E+02 -2.220717574E+02  5.663297892E+02  7.381242949E+02  1.250000000E+02  0.00000E+00  9.000E+00
      21     1     1     2   501   511  1.327864916E+02  3.541846719E+01 -1.911461034E+01  1.387518954E+02  2.900487199E-06  0.00000E+00  9.000E+00
#rwgt            1           1   3.4633636565627277E-002           8      309002           0
</event>
<event>
      5   9999  3.19816E-02  2.28539E+02 -1.00000E+00  1.09579E-01
       1    -1     0     0   502     0  0.000000000E+00  0.000000000E+00  3.341051148E+03  3.341051148E+03  0.000000000E+00  0.00000E+00  9.000E+00
      21    -1     0     0   501   502  0.000000000E+00  0.000000000E+00 -1.797462057E+02  1.797462057E+02  0.000000000E+00  0.00000E+00  9.000E+00
      25     1     1     2     0     0 -2.953449830E+02 -4.146445244E+02  5.652990791E+02  7.709389013E+02  1.250000000E+02  0.00000E+00  9.000E+00
      25     1     1     2     0     0  5.238430224E+02  4.103134453E+02  1.874610579E+03  1.993127807E+03  1.250000000E+02  0.00000E+00  9.000E+00
       1     1     1     2   501     0 -2.284980395E+02  4.331079177E+00  7.213952841E+02  7.567306444E+02  7.629394531E-06  0.00000E+00  9.000E+00
#rwgt            2          17   1.6014626542151633E-003           8      309272           0
</event>
<event>
      5   9999  3.19816E-02  1.37708E+01 -1.00000E+00  1.80955E-01
      21    -1     0     0   502   501  0.000000000E+00  0.000000000E+00  2.094301912E+02  2.094301912E+02  0.000000000E+00  0.00000E+00  9.000E+00
       2    -1     0     0   501     0  0.000000000E+00  0.000000000E+00 -1.442931543E+03  1.442931543E+03  0.000000000E+00  0.00000E+00  9.000E+00
      25     1     1     2     0     0  4.597841875E+01  2.050647928E+02 -5.773353648E+01  2.512443939E+02  1.250000000E+02  0.00000E+00  9.000E+00
      25     1     1     2     0     0 -5.973640562E+01 -2.056579603E+02 -2.384571628E+01  2.491129322E+02  1.250000000E+02  0.00000E+00  9.000E+00
       2     1     1     2   502     0  1.375798687E+01  5.931674973E-01 -1.151922099E+03  1.152004408E+03  1.525878906E-05  0.00000E+00  9.000E+00
#rwgt            1           1   2.6701663048738215E-002           8      309336           0
</event>
<event>
      5   9999  3.19816E-02  6.85336E+01 -1.00000E+00  1.31688E-01
      21    -1     0     0   502   501  0.000000000E+00  0.000000000E+00  4.239063009E+02  4.239063009E+02  0.000000000E+00  0.00000E+00  9.000E+00
      21    -1     0     0   511   502  0.000000000E+00  0.000000000E+00 -3.952006516E+02  3.952006516E+02  0.000000000E+00  0.00000E+00  9.000E+00
      25     1     1     2     0     0 -1.054850608E+02  3.278716117E+02  1.722820126E+02  4.048863837E+02  1.250000000E+02  0.00000E+00  9.000E+00
      25     1     1     2     0     0  8.462408366E+01 -2.625900834E+02 -6.468043545E+01  3.097149434E+02  1.250000000E+02  0.00000E+00  9.000E+00
      21     1     1     2   511   501  2.086097714E+01 -6.528152833E+01 -7.889592788E+01  1.045056254E+02  1.907348633E-06  0.00000E+00  9.000E+00
#rwgt            1           1   3.0727672980051829E-002           8      309517           0
</event>
<event>
      5   9999  3.19816E-02  6.14399E+01 -1.00000E+00  1.34155E-01
      21    -1     0     0   502   501  0.000000000E+00  0.000000000E+00  1.441962911E+03  1.441962911E+03  0.000000000E+00  0.00000E+00  9.000E+00
      21    -1     0     0   512   502  0.000000000E+00  0.000000000E+00 -3.743646917E+02  3.743646917E+02  0.000000000E+00  0.00000E+00  9.000E+00
      25     1     1     2     0     0 -2.267190220E+02  2.200423170E+02  7.252143823E+02  8.008626826E+02  1.250000000E+02  0.00000E+00  9.000E+00
      25     1     1     2     0     0  2.879333408E+02 -2.147818719E+02  6.220581040E+02  7.291214892E+02  1.250000000E+02  0.00000E+00  9.000E+00
      21     1     1     2   512   501 -6.121431881E+01 -5.260445053E+00 -2.796742667E+02  2.863434311E+02  8.529922400E-06  0.00000E+00  9.000E+00
#rwgt            1           1   2.8099048837175487E-002           8      309607           0
</event>
<event>
      5   9999  3.19816E-02  6.23533E+01 -1.00000E+00  1.33817E-01
      21    -1     0     0   502   501  0.000000000E+00  0.000000000E+00  6.923451315E+02  6.923451315E+02  0.000000000E+00  0.00000E+00  9.000E+00
       3    -1     0     0   501     0  0.000000000E+00  0.000000000E+00 -3.802524024E+02  3.802524024E+02  0.000000000E+00  0.00000E+00  9.000E+00
      25     1     1     2     0     0 -2.376155525E+02 -3.220065184E+01  4.646845198E+02  5.376381085E+02  1.250000000E+02  0.00000E+00  9.000E+00
      25     1     1     2     0     0  1.964710277E+02 -1.465082325E+01  1.150515739E+02  2.601487574E+02  1.250000000E+02  0.00000E+00  9.000E+00
       3     1     1     2   502     0  4.114452487E+01  4.685147509E+01 -2.676433646E+02  2.748106680E+02  5.394796609E-06  0.00000E+00  9.000E+00
#rwgt            1           1   2.7637754777597105E-002           8      309708           0
</event>
<event>
      5   9999  3.19816E-02  7.95595E+01 -1.00000E+00  1.28466E-01
      21    -1     0     0   502   501  0.000000000E+00  0.000000000E+00  2.541578463E+02  2.541578463E+02  0.000000000E+00  0.00000E+00  9.000E+00
      21    -1     0     0   501   511  0.000000000E+00  0.000000000E+00 -3.063684844E+02  3.063684844E+02  0.000000000E+00  0.00000E+00  9.000E+00
      25     1     1     2     0     0 -1.441126089E+02  1.512715829E+02 -9.418723369E+00  2.436498475E+02  1.250000000E+02  0.00000E+00  9.000E+00
      25     1     1     2     0     0  1.342057487E+02 -7.233133086E+01  4.096016926E+01  2.013597276E+02  1.250000000E+02  0.00000E+00  9.000E+00
      21     1     1     2   502   511  9.906860161E+00 -7.894025201E+01 -8.375208402E+01  1.155167557E+02  9.536743164E-07  0.00000E+00  9.000E+00
#rwgt            1           1   2.8968440825308001E-002           8      309795           0
</event>
<event>
      5   9999  3.19816E-02  1.67297E+02 -1.00000E+00  1.14546E-01
      21    -1     0     0   502   512  0.000000000E+00  0.000000000E+00  8.930546621E+02  8.930546621E+02  0.000000000E+00  0.00000E+00  9.000E+00
      21    -1     0     0   501   502  0.000000000E+00  0.000000000E+00 -1.071113860E+03  1.071113860E+03  0.000000000E+00  0.00000E+00  9.000E+00
      25     1     1     2     0     0 -4.661486536E+02  4.181496819E+02 -7.929782894E+02  1.018127345E+03  1.250000000E+02  0.00000E+00  9.000E+00
      25     1     1     2     0     0  3.006311537E+02 -3.938111489E+02  3.083661728E+02  5.968090215E+02  1.250000000E+02  0.00000E+00  9.000E+00
      21     1     1     2   501   512  1.655174999E+02 -2.433853292E+01  3.065529183E+02  3.492321558E+02  3.814697266E-06  0.00000E+00  9.000E+00
#rwgt            1           1   2.7598708723870043E-002           8      309874           0
</event>
<event>
      5   9999  3.19816E-02  2.68104E+02 -1.00000E+00  1.07203E-01
      21    -1     0     0   502   501  0.000000000E+00  0.000000000E+00  1.371794761E+02  1.371794761E+02  0.000000000E+00  0.00000E+00  9.000E+00
       1    -1     0     0   501     0  0.000000000E+00  0.000000000E+00 -2.447629383E+03  2.447629383E+03  0.000000000E+00  0.00000E+00  9.000E+00
      25     1     1     2     0     0  2.074721534E+02 -2.449835025E+02 -1.392963781E+02  3.716047522E+02  1.250000000E+02  0.00000E+00  9.000E+00
      25     1     1     2     0     0 -7.531957200E+00  6.636710422E+01 -4.651435195E+02  4.862559168E+02  1.250000000E+02  0.00000E+00  9.000E+00
       1     1     1     2   502     0 -1.999401962E+02  1.786163982E+02 -1.706010009E+03  1.726948190E+03  2.157918644E-05  0.00000E+00  9.000E+00
#rwgt            2          12   7.1280676596669422E-004           8      309955           0
</event>
<event>
      5   9999  3.19816E-02  8.80396E+01 -1.00000E+00  1.26368E-01
      21    -1     0     0   502   501  0.000000000E+00  0.000000000E+00  7.071958658E+01  7.071958658E+01  0.000000000E+00  0.00000E+00  9.000E+00
      21    -1     0     0   511   502  0.000000000E+00  0.000000000E+00 -1.175545856E+03  1.175545856E+03  0.000000000E+00  0.00000E+00  9.000E+00
      25     1     1     2     0     0 -1.263780144E+02  1.226942393E+02 -3.259647095E+02  3.910284782E+02  1.250000000E+02  0.00000E+00  9.000E+00
      25     1     1     2     0     0  2.078791162E+02 -8.939947784E+01 -5.010700401E+02  5.638281464E+02  1.250000000E+02  0.00000E+00  9.000E+00
      21     1     1     2   511   501 -8.150110179E+01 -3.329476148E+01 -2.777915194E+02  2.914088177E+02  3.814697266E-06  0.00000E+00  9.000E+00
#rwgt            1           1   2.9466705811033209E-002           8      310004           0
</event>
<event>
      5   9999  3.19816E-02  6.68231E+00 -1.00000E+00  2.18445E-01
      21    -1     0     0   502   501  0.000000000E+00  0.000000000E+00  3.469981382E+02  3.469981382E+02  0.000000000E+00  0.00000E+00  9.000E+00
      21    -1     0     0   512   502  0.000000000E+00  0.000000000E+00 -8.810073651E+02  8.810073651E+02  0.000000000E+00  0.00000E+00  9.000E+00
      25     1     1     2     0     0  3.172444311E+02 -2.612201824E+02 -6.038102696E+02  7.410073241E+02  1.250000000E+02  0.00000E+00  9.000E+00
      25     1     1     2     0     0 -3.182742480E+02  2.546177023E+02  1.147951338E+02  4.415105820E+02  1.250000000E+02  0.00000E+00  9.000E+00
      21     1     1     2   512   501  1.029816848E+00  6.602480036E+00 -4.499409110E+01  4.548759720E+01  8.259061849E-07  0.00000E+00  9.000E+00
#rwgt            1           1   3.0163849979125221E-002           8      310097           0
</event>
<event>
      5   9999  3.19816E-02  9.47562E+00 -1.00000E+00  1.98501E-01
      21    -1     0     0   502   501  0.000000000E+00  0.000000000E+00  3.938151262E+02  3.938151262E+02  0.000000000E+00  0.00000E+00  9.000E+00
       1    -1     0     0   501     0  0.000000000E+00  0.000000000E+00 -2.471364377E+02  2.471364377E+02  0.000000000E+00  0.00000E+00  9.000E+00
      25     1     1     2     0     0  8.394902217E+01 -1.555363391E+02  1.187542210E+01  2.168064039E+02  1.250000000E+02  0.00000E+00  9.000E+00
      25     1     1     2     0     0 -9.340507537E+01  1.549277225E+02  2.359657713E+02  3.225398465E+02  1.250000000E+02  0.00000E+00  9.000E+00
       1     1     1     2   502     0  9.456053198E+00  6.086165602E-01 -1.011625048E+02  1.016053136E+02  1.907348633E-06  0.00000E+00  9.000E+00
#rwgt            1           1   2.9909970471492728E-002           8      310462           0
</event>
<event>
      5   9999  3.19816E-02  4.95171E+02 -1.00000E+00  9.89719E-02
      21    -1     0     0   502   501  0.000000000E+00  0.000000000E+00  1.364394356E+03  1.364394356E+03  0.000000000E+00  0.00000E+00  9.000E+00
       2    -1     0     0   501     0  0.000000000E+00  0.000000000E+00 -4.895019381E+02  4.895019381E+02  0.000000000E+00  0.00000E+00  9.000E+00
      25     1     1     2     0     0 -4.763147766E+02  3.290137837E+02  9.700132171E+02  1.136519458E+03  1.250000000E+02  0.00000E+00  9.000E+00
      25     1     1     2     0     0  3.688030931E+01 -1.007780869E+02  9.120819238E+01  1.883090926E+02  1.250000000E+02  0.00000E+00  9.000E+00
       2     1     1     2   502     0  4.394344673E+02 -2.282356968E+02 -1.863289916E+02  5.290677437E+02  1.044697871E-05  0.00000E+00  9.000E+00
#rwgt            2          13   7.2975955901804330E-004           8      310650           0
</event>
<event>
      5   9999  3.19816E-02  9.28880E+01 -1.00000E+00  1.25286E-01
      21    -1     0     0   511   501  0.000000000E+00  0.000000000E+00  1.081691787E+03  1.081691787E+03  0.000000000E+00  0.00000E+00  9.000E+00
      21    -1     0     0   501   502  0.000000000E+00  0.000000000E+00 -1.145446604E+03  1.145446604E+03  0.000000000E+00  0.00000E+00  9.000E+00
      25     1     1     2     0     0 -6.837167114E+02  8.036918528E+02 -2.512119144E+02  1.091843195E+03  1.250000000E+02  0.00000E+00  9.000E+00
      25     1     1     2     0     0  5.961823447E+02 -7.726126420E+02  7.112969459E+01  9.864320130E+02  1.250000000E+02  0.00000E+00  9.000E+00
      21     1     1     2   511   502  8.753436663E+01 -3.107921075E+01  1.163274026E+02  1.488631831E+02  2.697398305E-06  0.00000E+00  9.000E+00
#rwgt            2          11   7.5389506056913694E-003           8      310744           0
</event>
<event>
      5   9999  3.19816E-02  5.96800E+01 -1.00000E+00  1.34828E-01
      21    -1     0     0   502   512  0.000000000E+00  0.000000000E+00  7.987184046E+02  7.987184046E+02  0.000000000E+00  0.00000E+00  9.000E+00
      21    -1     0     0   501   502  0.000000000E+00  0.000000000E+00 -7.535319585E+02  7.535319585E+02  0.000000000E+00  0.00000E+00  9.000E+00
      25     1     1     2     0     0 -2.239560291E+02 -4.046244415E+02 -1.575238037E+02  5.042975216E+02  1.250000000E+02  0.00000E+00  9.000E+00
      25     1     1     2     0     0  2.654275940E+02  4.475407483E+02 -2.504763172E+02  5.908535475E+02  1.250000000E+02  0.00000E+00  9.000E+00
      21     1     1     2   501   512 -4.147156491E+01 -4.291630683E+01  4.531865670E+02  4.570992940E+02  0.000000000E+00  0.00000E+00  9.000E+00
#rwgt            1           1   3.0244666710471286E-002           8      310779           0
</event>
<event>
      5   9999  3.19816E-02  1.59606E+02 -1.00000E+00  1.15335E-01
      21    -1     0     0   502   501  0.000000000E+00  0.000000000E+00  1.191330602E+02  1.191330602E+02  0.000000000E+00  0.00000E+00  9.000E+00
       2    -1     0     0   501     0  0.000000000E+00  0.000000000E+00 -1.226794114E+03  1.226794114E+03  0.000000000E+00  0.00000E+00  9.000E+00
      25     1     1     2     0     0 -1.043311008E+01  1.758030945E+02 -7.200829004E+01  2.276527436E+02  1.250000000E+02  0.00000E+00  9.000E+00
      25     1     1     2     0     0 -1.487548125E+02 -1.642592953E+02 -5.276503425E+02  5.857892064E+02  1.250000000E+02  0.00000E+00  9.000E+00
       2     1     1     2   502     0  1.591879226E+02 -1.154379916E+01 -5.080024214E+02  5.324852244E+02  0.000000000E+00  0.00000E+00  9.000E+00
#rwgt            1           1   2.5305782979656959E-002           8      310859           0
</event>
<event>
      5   9999  3.19816E-02  7.14666E+01 -1.00000E+00  1.30766E-01
      21    -1     0     0   502   501  0.000000000E+00  0.000000000E+00  1.478072764E+02  1.478072764E+02  0.000000000E+00  0.00000E+00  9.000E+00
       2    -1     0     0   501     0  0.000000000E+00  0.000000000E+00 -1.832437819E+03  1.832437819E+03  0.000000000E+00  0.00000E+00  9.000E+00
      25     1     1     2     0     0 -4.838268576E+01  8.592955376E+01 -9.841959656E+01  1.871795648E+02  1.250000000E+02  0.00000E+00  9.000E+00
      25     1     1     2     0     0 -1.952724980E+01 -6.366495068E+01  5.379443916E+01  1.515037330E+02  1.250000000E+02  0.00000E+00  9.000E+00
       2     1     1     2   502     0  6.790993556E+01 -2.226460308E+01 -1.640005385E+03  1.641561797E+03  0.000000000E+00  0.00000E+00  9.000E+00
#rwgt            1           1   2.5355258139305805E-002           8      310921           0
</event>
<event>
      5   9999  3.80095E-02  4.12706E+02 -1.00000E+00  1.01278E-01
      21    -1     0     0   502   501  0.000000000E+00  0.000000000E+00  1.468234495E+03  1.468234495E+03  0.000000000E+00  0.00000E+00  9.000E+00
      21    -1     0     0   501   511  0.000000000E+00  0.000000000E+00 -1.830169171E+03  1.830169171E+03  0.000000000E+00  0.00000E+00  9.000E+00
      25     1     1     2     0     0  9.008152114E+02 -3.528288881E+02 -2.211242921E+02  1.000238582E+03  1.250000000E+02  0.00000E+00  9.000E+00
      25     1     1     2     0     0 -1.255105000E+03  1.411561818E+02  6.351759910E+02  1.419255850E+03  1.250000000E+02  0.00000E+00  9.000E+00
      21     1     1     2   502   511  3.542897882E+02  2.116727063E+02 -7.759863743E+02  8.789092341E+02  1.078959322E-05  0.00000E+00  9.000E+00
#rwgt            1           1   9.2338814902749713E-002           8      310976           0
</event>
<event>
      5   9999  3.19816E-02  1.35208E+02 -1.00000E+00  1.18209E-01
      21    -1     0     0   502   501  0.000000000E+00  0.000000000E+00  7.626933284E+02  7.626933284E+02  0.000000000E+00  0.00000E+00  9.000E+00
       2    -1     0     0   501     0  0.000000000E+00  0.000000000E+00 -1.726719317E+02  1.726719317E+02  0.000000000E+00  0.00000E+00  9.000E+00
      25     1     1     2     0     0  7.930542826E+01  2.218457310E+02  2.721094201E+02  3.810162934E+02  1.250000000E+02  0.00000E+00  9.000E+00
      25     1     1     2     0     0 -1.621063686E+02 -1.149569450E+02  3.441656972E+02  4.166156515E+02  1.250000000E+02  0.00000E+00  9.000E+00
       2     1     1     2   502     0  8.280094030E+01 -1.068887860E+02 -2.625372060E+01  1.377333153E+02  1.261592536E-06  0.00000E+00  9.000E+00
#rwgt            1           1   2.4333960282170511E-002           8      311020           0
</event>
<event>
      5   9999  3.19816E-02  5.17455E+01 -1.00000E+00  1.38231E-01
       2    -1     0     0   502     0  0.000000000E+00  0.000000000E+00  7.084601694E+02  7.084601694E+02  0.000000000E+00  0.00000E+00  9.000E+00
      21    -1     0     0   501   502  0.000000000E+00  0.000000000E+00 -8.361625633E+02  8.361625633E+02  0.000000000E+00  0.00000E+00  9.000E+00
      25     1     1     2     0     0 -2.285125166E+02  1.111583441E+02  2.164582490E+02  3.564453973E+02  1.250000000E+02  0.00000E+00  9.000E+00
      25     1     1     2     0     0  1.845025680E+02 -8.394224208E+01 -7.459644800E+02  7.830552362E+02  1.250000000E+02  0.00000E+00  9.000E+00
       2     1     1     2   501     0  4.400994856E+01 -2.721610206E+01  4.018038370E+02  4.051220991E+02  0.000000000E+00  0.00000E+00  9.000E+00
#rwgt            1           1   2.4506423728039142E-002           8      311069           0
</event>
<event>
      5   9999  3.19816E-02  3.97277E+01 -1.00000E+00  1.45024E-01
      21    -1     0     0   502   501  0.000000000E+00  0.000000000E+00  3.954623401E+03  3.954623401E+03  0.000000000E+00  0.00000E+00  9.000E+00
      21    -1     0     0   511   502  0.000000000E+00  0.000000000E+00 -1.165863090E+02  1.165863090E+02  0.000000000E+00  0.00000E+00  9.000E+00
      25     1     1     2     0     0 -5.037726500E+02 -1.176504960E+02  2.882848449E+03  2.931564208E+03  1.250000000E+02  0.00000E+00  9.000E+00
      25     1     1     2     0     0  5.402056936E+02  1.018098784E+02  9.419641483E+02  1.097774521E+03  1.250000000E+02  0.00000E+00  9.000E+00
      21     1     1     2   511   501 -3.643304358E+01  1.584061760E+01  1.322449473E+01  4.187098149E+01  1.379947293E-06  0.00000E+00  9.000E+00
#rwgt            1           1   1.7917856390928601E-002           8      311212           0
</event>
<event>
      5   9999  3.19816E-02  9.75323E+01 -1.00000E+00  1.24318E-01
      21    -1     0     0   502   501  0.000000000E+00  0.000000000E+00  1.150956299E+02  1.150956299E+02  0.000000000E+00  0.00000E+00  9.000E+00
      -1    -1     0     0     0   502  0.000000000E+00  0.000000000E+00 -1.441715751E+03  1.441715751E+03  0.000000000E+00  0.00000E+00  9.000E+00
      25     1     1     2     0     0  5.164420398E+01 -1.759696556E+02 -4.036588688E+02  4.606494609E+02  1.250000000E+02  0.00000E+00  9.000E+00
      25     1     1     2     0     0 -9.778951280E+01  2.618950284E+02 -1.979909990E+02  3.646604316E+02  1.250000000E+02  0.00000E+00  9.000E+00
      -1     1     1     2     0   501  4.614530882E+01 -8.592537274E+01 -7.249702529E+02  7.315014879E+02  1.078959322E-05  0.00000E+00  9.000E+00
#rwgt            1           1   2.4474013201475495E-002           8      311381           0
</event>
<event>
      5   9999  3.19816E-02  4.13985E+01 -1.00000E+00  1.43921E-01
       2    -1     0     0   502     0  0.000000000E+00  0.000000000E+00  1.856579593E+02  1.856579593E+02  0.000000000E+00  0.00000E+00  9.000E+00
      21    -1     0     0   501   502  0.000000000E+00  0.000000000E+00 -7.479815500E+02  7.479815500E+02  0.000000000E+00  0.00000E+00  9.000E+00
      25     1     1     2     0     0  2.757209427E+01  8.881921832E+01 -4.075581394E+02  4.363229434E+02  1.250000000E+02  0.00000E+00  9.000E+00
      25     1     1     2     0     0 -5.006222570E+01 -1.235759732E+02 -2.972493096E+02  3.489403956E+02  1.250000000E+02  0.00000E+00  9.000E+00
       2     1     1     2   501     0  2.249013144E+01  3.475675486E+01  1.424838584E+02  1.483761703E+02  0.000000000E+00  0.00000E+00  9.000E+00
#rwgt            1           1   2.3742377862332766E-002           8      311426           0
</event>
<event>
      5   9999  3.19816E-02  1.14085E+02 -1.00000E+00  1.21307E-01
      21    -1     0     0   502   501  0.000000000E+00  0.000000000E+00  8.710601255E+02  8.710601255E+02  0.000000000E+00  0.00000E+00  9.000E+00
      21    -1     0     0   501   511  0.000000000E+00  0.000000000E+00 -3.996874028E+02  3.996874028E+02  0.000000000E+00  0.00000E+00  9.000E+00
      25     1     1     2     0     0 -1.354933649E+02  6.117602625E+00 -3.178773455E+02  3.675144674E+02  1.250000000E+02  0.00000E+00  9.000E+00
      25     1     1     2     0     0  2.321656140E+01 -2.635072932E+01  7.778133602E+02  7.885759272E+02  1.250000000E+02  0.00000E+00  9.000E+00
      21     1     1     2   502   511  1.122768035E+02  2.023312670E+01  1.143670800E+01  1.146571338E+02  1.702649219E-06  0.00000E+00  9.000E+00
#rwgt            1           1   2.9790142469907032E-002           8      311509           0
</event>
<event>
      5   9999  3.19816E-02  1.66360E+02 -1.00000E+00  1.14639E-01
      21    -1     0     0   512   501  0.000000000E+00  0.000000000E+00  2.913078454E+03  2.913078454E+03  0.000000000E+00  0.00000E+00  9.000E+00
      21    -1     0     0   501   502  0.000000000E+00  0.000000000E+00 -9.626740124E+01  9.626740124E+01  0.000000000E+00  0.00000E+00  9.000E+00
      25     1     1     2     0     0 -1.710383607E+02  2.568829482E+02  6.665977061E+02  7.451311775E+02  1.250000000E+02  0.00000E+00  9.000E+00
      25     1     1     2     0     0  1.224143491E+02 -9.778732202E+01  1.338846246E+02  2.410346986E+02  1.250000000E+02  0.00000E+00  9.000E+00
      21     1     1     2   512   502  4.862401161E+01 -1.590956262E+02  2.016328722E+03  2.023179980E+03  2.157918644E-05  0.00000E+00  9.000E+00
#rwgt            1           1   2.1731111235700606E-002           8      311619           0
</event>
<event>
      5   9999  3.86106E-02  3.41363E+01 -1.00000E+00  1.49243E-01
      21    -1     0     0   511   501  0.000000000E+00  0.000000000E+00  8.668964568E+01  8.668964568E+01  0.000000000E+00  0.00000E+00  9.000E+00
      21    -1     0     0   501   502  0.000000000E+00  0.000000000E+00 -2.174313950E+03  2.174313950E+03  0.000000000E+00  0.00000E+00  9.000E+00
      25     1     1     2     0     0  2.031948679E+02 -2.624263160E+02 -6.833670889E+02  7.699164265E+02  1.250000000E+02  0.00000E+00  9.000E+00
      25     1     1     2     0     0 -2.244207601E+02  2.356915743E+02 -1.413389306E+03  1.455750503E+03  1.250000000E+02  0.00000E+00  9.000E+00
      21     1     1     2   511   502  2.122589223E+01  2.673474176E+01  9.132090567E+00  3.533666645E+01  4.298152060E-07  0.00000E+00  9.000E+00
#rwgt            1           1  0.11694755323144011                8      311699           0
</event>
<event>
      5   9999  3.19816E-02  5.15373E+01 -1.00000E+00  1.38329E-01
      21    -1     0     0   502   501  0.000000000E+00  0.000000000E+00  2.148860828E+03  2.148860828E+03  0.000000000E+00  0.00000E+00  9.000E+00
      21    -1     0     0   501   512  0.000000000E+00  0.000000000E+00 -2.911402562E+02  2.911402562E+02  0.000000000E+00  0.00000E+00  9.000E+00
      25     1     1     2     0     0  2.678083517E+02  4.782472993E+02  1.653963046E+03  1.746900269E+03  1.250000000E+02  0.00000E+00  9.000E+00
      25     1     1     2     0     0 -3.175364652E+02 -4.917826508E+02  2.220051789E+02  6.384284469E+02  1.250000000E+02  0.00000E+00  9.000E+00
      21     1     1     2   502   512  4.972811355E+01  1.353535149E+01 -1.824765300E+01  5.467236832E+01  9.536743164E-07  0.00000E+00  9.000E+00
#rwgt            1           1   2.4967904966689804E-002           8      311805           0
</event>
<event>
      5   9999  3.19816E-02  2.29036E+01 -1.00000E+00  1.61654E-01
      21    -1     0     0   502   501  0.000000000E+00  0.000000000E+00  4.796872067E+02  4.796872067E+02  0.000000000E+00  0.00000E+00  9.000E+00
       2    -1     0     0   501     0  0.000000000E+00  0.000000000E+00 -1.751007640E+02  1.751007640E+02  0.000000000E+00  0.00000E+00  9.000E+00
      25     1     1     2     0     0  3.742743088E+00 -8.774598406E+01  2.780631055E+02  3.172655930E+02  1.250000000E+02  0.00000E+00  9.000E+00
      25     1     1     2     0     0 -1.139926761E+01  1.093319386E+02  1.426123459E+02  2.191955686E+02  1.250000000E+02  0.00000E+00  9.000E+00
       2     1     1     2   502     0  7.656524518E+00 -2.158595458E+01 -1.160890087E+02  1.183268090E+02  1.907348633E-06  0.00000E+00  9.000E+00
#rwgt            1           1   3.0330733453683457E-002           8      311946           0
</event>
<event>
      5   9999  3.19816E-02  2.53949E+01 -1.00000E+00  1.58243E-01
      21    -1     0     0   502   501  0.000000000E+00  0.000000000E+00  8.969336578E+02  8.969336578E+02  0.000000000E+00  0.00000E+00  9.000E+00
      21    -1     0     0   501   511  0.000000000E+00  0.000000000E+00 -5.652145508E+02  5.652145508E+02  0.000000000E+00  0.00000E+00  9.000E+00
      25     1     1     2     0     0 -2.322031674E+02 -3.626170255E+02  2.214184600E+01  4.489150025E+02  1.250000000E+02  0.00000E+00  9.000E+00
      25     1     1     2     0     0  2.528157389E+02  3.477838933E+02  5.849705337E+02  7.366715412E+02  1.250000000E+02  0.00000E+00  9.000E+00
      21     1     1     2   502   511 -2.061257148E+01  1.483313222E+01 -2.753932727E+02  2.765616650E+02  0.000000000E+00  0.00000E+00  9.000E+00
#rwgt            1           1   2.3651042147961550E-002           8      312069           0
</event>
<event>
      5   9999  3.19816E-02  5.69976E+01 -1.00000E+00  1.35906E-01
       2    -1     0     0   502     0  0.000000000E+00  0.000000000E+00  7.267847447E+02  7.267847447E+02  0.000000000E+00  0.00000E+00  9.000E+00
      21    -1     0     0   501   502  0.000000000E+00  0.000000000E+00 -2.257307710E+02  2.257307710E+02  0.000000000E+00  0.00000E+00  9.000E+00
      25     1     1     2     0     0  2.534481107E+02 -1.025872119E+02 -1.732247087E+01  3.011397497E+02  1.250000000E+02  0.00000E+00  9.000E+00
      25     1     1     2     0     0 -1.996243786E+02  1.213417245E+02  2.108435084E+02  3.386055104E+02  1.250000000E+02  0.00000E+00  9.000E+00
       2     1     1     2   501     0 -5.382373205E+01 -1.875451265E+01  3.075329363E+02  3.127702556E+02  0.000000000E+00  0.00000E+00  9.000E+00
#rwgt            1           1   2.7708372199443998E-002           8      312248           0
</event>
<event>
      5   9999  3.19816E-02  1.18103E+02 -1.00000E+00  1.20663E-01
      21    -1     0     0   502   501  0.000000000E+00  0.000000000E+00  2.468556721E+02  2.468556721E+02  0.000000000E+00  0.00000E+00  9.000E+00
      21    -1     0     0   511   502  0.000000000E+00  0.000000000E+00 -2.349769594E+03  2.349769594E+03  0.000000000E+00  0.00000E+00  9.000E+00
      25     1     1     2     0     0 -4.364998262E+01 -8.049380077E+01  2.069553632E+02  2.585345147E+02  1.250000000E+02  0.00000E+00  9.000E+00
      25     1     1     2     0     0  1.042011531E+02  1.818937492E+02 -1.549425955E+03  1.568530843E+03  1.250000000E+02  0.00000E+00  9.000E+00
      21     1     1     2   511   501 -6.055117053E+01 -1.013999484E+02 -7.604433303E+02  7.695599083E+02  1.078959322E-05  0.00000E+00  9.000E+00
#rwgt            1           1   2.8330598031648561E-002           8      312360           0
</event>
<event>
      5   9999  3.19816E-02  3.14362E+02 -1.00000E+00  1.04936E-01
       2    -1     0     0   502     0  0.000000000E+00  0.000000000E+00  1.638280060E+03  1.638280060E+03  0.000000000E+00  0.00000E+00  9.000E+00
      21    -1     0     0   501   502  0.000000000E+00  0.000000000E+00 -2.723725057E+02  2.723725057E+02  0.000000000E+00  0.00000E+00  9.000E+00
      25     1     1     2     0     0 -3.382955387E+02  4.575276725E+02  6.972231948E+02  9.085816562E+02  1.250000000E+02  0.00000E+00  9.000E+00
      25     1     1     2     0     0  2.233033903E+02 -1.649526661E+02  5.060623861E+01  3.086418273E+02  1.250000000E+02  0.00000E+00  9.000E+00
       2     1     1     2   501     0  1.149921484E+02 -2.925750064E+02  6.180781214E+02  6.934290826E+02  7.629394531E-06  0.00000E+00  9.000E+00
#rwgt            2          18   1.2305280133538272E-003           8      312481           0
</event>
<event>
      5   9999  3.19816E-02  4.14574E+01 -1.00000E+00  1.43883E-01
      21    -1     0     0   511   501  0.000000000E+00  0.000000000E+00  4.103768275E+02  4.103768275E+02  0.000000000E+00  0.00000E+00  9.000E+00
      21    -1     0     0   501   502  0.000000000E+00  0.000000000E+00 -1.929389691E+02  1.929389691E+02  0.000000000E+00  0.00000E+00  9.000E+00
      25     1     1     2     0     0  1.627158381E+02 -3.246807865E+01  1.215491996E+01  2.080945991E+02  1.250000000E+02  0.00000E+00  9.000E+00
      25     1     1     2     0     0 -1.427911339E+02  6.882353553E+01  1.717392435E+01  2.025979532E+02  1.250000000E+02  0.00000E+00  9.000E+00
      21     1     1     2   511   502 -1.992470428E+01 -3.635545689E+01  1.881090141E+02  1.926232444E+02  2.697398305E-06  0.00000E+00  9.000E+00
#rwgt            1           1   2.7554813831818376E-002           8      312500           0
</event>
<event>
      5   9999  3.19816E-02  4.72215E+02 -1.00000E+00  9.95626E-02
      21    -1     0     0   502   512  0.000000000E+00  0.000000000E+00  1.634129349E+02  1.634129349E+02  0.000000000E+00  0.00000E+00  9.000E+00
      21    -1     0     0   501   502  0.000000000E+00  0.000000000E+00 -1.743863809E+03  1.743863809E+03  0.000000000E+00  0.00000E+00  9.000E+00
      25     1     1     2     0     0 -1.316762634E+01  2.122025978E+02 -2.972877123E+02  3.862749186E+02  1.250000000E+02  0.00000E+00  9.000E+00
      25     1     1     2     0     0 -1.716835582E+02  2.223277446E+02 -7.396483989E+02  8.010053833E+02  1.250000000E+02  0.00000E+00  9.000E+00
      21     1     1     2   501   512  1.848511845E+02 -4.345303424E+02 -5.435147632E+02  7.199964421E+02  7.629394531E-06  0.00000E+00  9.000E+00
#rwgt            2          11   1.0622791431998182E-002           8      312708           0
</event>
<event>
      5   9999  3.19816E-02  1.14690E+02 -1.00000E+00  1.21209E-01
      21    -1     0     0   502   501  0.000000000E+00  0.000000000E+00  5.019134504E+02  5.019134504E+02  0.000000000E+00  0.00000E+00  9.000E+00
      21    -1     0     0   501   511  0.000000000E+00  0.000000000E+00 -9.315640610E+02  9.315640610E+02  0.000000000E+00  0.00000E+00  9.000E+00
      25     1     1     2     0     0  3.770790027E+01  5.004155494E+01  7.771193050E+01  1.599693318E+02  1.250000000E+02  0.00000E+00  9.000E+00
      25     1     1     2     0     0 -9.046957941E+01  5.179132613E+01  3.618449922E+02  3.967667888E+02  1.250000000E+02  0.00000E+00  9.000E+00
      21     1     1     2   502   511  5.276167915E+01 -1.018328811E+02 -8.692075334E+02  8.767413909E+02  1.525878906E-05  0.00000E+00  9.000E+00
#rwgt            1           1   2.1921935151851975E-002           8      312728           0
</event>
<event>
      5   9999  3.19816E-02  3.76532E+02 -1.00000E+00  1.02482E-01
      21    -1     0     0   502   512  0.000000000E+00  0.000000000E+00  1.201722768E+03  1.201722768E+03  0.000000000E+00  0.00000E+00  9.000E+00
      21    -1     0     0   501   502  0.000000000E+00  0.000000000E+00 -3.858742909E+02  3.858742909E+02  0.000000000E+00  0.00000E+00  9.000E+00
      25     1     1     2     0     0  1.363492010E+02  2.247731428E+02  3.007645031E+02  4.185670277E+02  1.250000000E+02  0.00000E+00  9.000E+00
      25     1     1     2     0     0  1.311096441E+02  4.025862091E+01 -2.529176985E+02  3.136922975E+02  1.250000000E+02  0.00000E+00  9.000E+00
      21     1     1     2   501   512 -2.674588451E+02 -2.650317638E+02  7.680016723E+02  8.553377335E+02  1.078959322E-05  0.00000E+00  9.000E+00
#rwgt            2          11   2.2646986274502900E-003           8      312780           0
</event>
<event>
      5   9999  3.19816E-02  1.66431E+02 -1.00000E+00  1.14632E-01
       2    -1     0     0   502     0  0.000000000E+00  0.000000000E+00  8.540993778E+02  8.540993778E+02  0.000000000E+00  0.00000E+00  9.000E+00
      21    -1     0     0   501   502  0.000000000E+00  0.000000000E+00 -2.208309302E+02  2.208309302E+02  0.000000000E+00  0.00000E+00  9.000E+00
      25     1     1     2     0     0 -1.088688416E+01 -2.058067975E+02  8.898761912E+01  2.569411577E+02  1.250000000E+02  0.00000E+00  9.000E+00
      25     1     1     2     0     0 -2.807403952E+01  3.676132319E+02  5.203309200E+02  6.498437553E+02  1.250000000E+02  0.00000E+00  9.000E+00
       2     1     1     2   501     0  3.896092368E+01 -1.618064344E+02  2.394990848E+01  1.681453951E+02  3.487763128E-06  0.00000E+00  9.000E+00
#rwgt            2          18   1.4933731382037120E-004           8      312800           0
</event>
<event>
      5   9999  3.19816E-02  4.56916E+01 -1.00000E+00  1.41346E-01
      21    -1     0     0   511   501  0.000000000E+00  0.000000000E+00  9.825624782E+02  9.825624782E+02  0.000000000E+00  0.00000E+00  9.000E+00
      21    -1     0     0   501   502  0.000000000E+00  0.000000000E+00 -9.518910231E+01  9.518910231E+01  0.000000000E+00  0.00000E+00  9.000E+00
      25     1     1     2     0     0  6.113160935E+01 -6.889855182E+01 -6.383602199E+00  1.554021701E+02  1.250000000E+02  0.00000E+00  9.000E+00
      25     1     1     2     0     0 -1.063234257E+02  6.215913267E+01  6.026572411E+02  6.276855732E+02  1.250000000E+02  0.00000E+00  9.000E+00
      21     1     1     2   511   502  4.519181633E+01  6.739419145E+00  2.910997370E+02  2.946638371E+02  0.000000000E+00  0.00000E+00  9.000E+00
#rwgt            1           1   2.7734254885988303E-002           8      312819           0
</event>
<event>
      5   9999  3.19816E-02  6.59690E+01 -1.00000E+00  1.32539E-01
      21    -1     0     0   512   501  0.000000000E+00  0.000000000E+00  9.985203525E+01  9.985203525E+01  0.000000000E+00  0.00000E+00  9.000E+00
      21    -1     0     0   501   502  0.000000000E+00  0.000000000E+00 -9.294761606E+02  9.294761606E+02  0.000000000E+00  0.00000E+00  9.000E+00
      25     1     1     2     0     0  9.063264223E+01 -6.333773621E+01 -9.192117204E+01  1.905267607E+02  1.250000000E+02  0.00000E+00  9.000E+00
      25     1     1     2     0     0 -1.565445216E+02  6.059374263E+01 -7.436736619E+02  7.725628158E+02  1.250000000E+02  0.00000E+00  9.000E+00
      21     1     1     2   512   502  6.591187938E+01  2.743993580E+00  5.970708568E+00  6.623861944E+01  1.272806913E-06  0.00000E+00  9.000E+00
#rwgt            2          11   2.3408504688738072E-003           8      312956           0
</event>
<event>
      5   9999  3.19816E-02  1.11409E+02 -1.00000E+00  1.21754E-01
      21    -1     0     0   511   501  0.000000000E+00  0.000000000E+00  3.046033038E+02  3.046033038E+02  0.000000000E+00  0.00000E+00  9.000E+00
      21    -1     0     0   501   502  0.000000000E+00  0.000000000E+00 -3.688457266E+02  3.688457266E+02  0.000000000E+00  0.00000E+00  9.000E+00
      25     1     1     2     0     0  2.095320640E+02  6.426124127E+01  8.357054513E+01  2.657860587E+02  1.250000000E+02  0.00000E+00  9.000E+00
      25     1     1     2     0     0 -2.085739336E+02  4.714387784E+01 -1.610878971E+02  2.954656352E+02  1.250000000E+02  0.00000E+00  9.000E+00
      21     1     1     2   511   502 -9.581304456E-01 -1.114051191E+02  1.327492911E+01  1.121973365E+02  1.743881564E-06  0.00000E+00  9.000E+00
#rwgt            1           1   3.4732501618350904E-002           8      312976           0
</event>
<event>
      5   9999  3.19816E-02  3.25191E+01 -1.00000E+00  1.50647E-01
      21    -1     0     0   512   501  0.000000000E+00  0.000000000E+00  6.168089763E+01  6.168089763E+01  0.000000000E+00  0.00000E+00  9.000E+00
      21    -1     0     0   501   502  0.000000000E+00  0.000000000E+00 -5.507770938E+02  5.507770938E+02  0.000000000E+00  0.00000E+00  9.000E+00
      25     1     1     2     0     0  4.597983209E+01 -9.485125465E+01 -2.634289943E+02  3.100495775E+02  1.250000000E+02  0.00000E+00  9.000E+00
      25     1     1     2     0     0 -6.622181467E+01  6.940024553E+01 -2.180288518E+02  2.690042807E+02  1.250000000E+02  0.00000E+00  9.000E+00
      21     1     1     2   512   502  2.024198258E+01  2.545100912E+01 -7.638350050E+00  3.340413321E+01  5.717076687E-07  0.00000E+00  9.000E+00
#rwgt            1           1   2.9166677856989461E-002           8      313032           0
</event>
<event>
      5   9999  3.19816E-02  2.30062E+02 -1.00000E+00  1.09478E-01
      21    -1     0     0   502   501  0.000000000E+00  0.000000000E+00  2.774021279E+02  2.774021279E+02  0.000000000E+00  0.00000E+00  9.000E+00
       2    -1     0     0   501     0  0.000000000E+00  0.000000000E+00 -6.705769194E+02  6.705769194E+02  0.000000000E+00  0.00000E+00  9.000E+00
      25     1     1     2     0     0 -8.634508284E+01 -6.568254272E+01 -4.426739654E+02  4.726043899E+02  1.250000000E+02  0.00000E+00  9.000E+00
      25     1     1     2     0     0 -1.115777236E+02 -5.159872758E+01  1.437868164E+02  2.267414070E+02  1.250000000E+02  0.00000E+00  9.000E+00
       2     1     1     2   502     0  1.979228064E+02  1.172812703E+02 -9.428764263E+01  2.486332504E+02  2.336015456E-06  0.00000E+00  9.000E+00
#rwgt            1           1   3.4754217997543739E-002           8      313130           0
</event>
<event>
      5   9999  3.19816E-02  5.78665E+01 -1.00000E+00  1.35549E-01
      21    -1     0     0   502   511  0.000000000E+00  0.000000000E+00  4.005690179E+02  4.005690179E+02  0.000000000E+00  0.00000E+00  9.000E+00
      21    -1     0     0   501   502  0.000000000E+00  0.000000000E+00 -3.647575664E+02  3.647575664E+02  0.000000000E+00  0.00000E+00  9.000E+00
      25     1     1     2     0     0 -2.552698497E+02  5.722951954E+01 -2.107359154E+02  3.584306630E+02  1.250000000E+02  0.00000E+00  9.000E+00
      25     1     1     2     0     0  2.117119422E+02 -9.532472898E+01  2.191517685E+02  3.428720579E+02  1.250000000E+02  0.00000E+00  9.000E+00
      21     1     1     2   501   511  4.355790752E+01  3.809520943E+01  2.739559847E+01  6.402386356E+01  3.371747881E-07  0.00000E+00  9.000E+00
#rwgt            1           1   2.7044757664959743E-002           8      313288           0
</event>
<event>
      5   9999  3.19816E-02  1.14791E+02 -1.00000E+00  1.21192E-01
      21    -1     0     0   502   501  0.000000000E+00  0.000000000E+00  3.487043919E+02  3.487043919E+02  0.000000000E+00  0.00000E+00  9.000E+00
      21    -1     0     0   501   512  0.000000000E+00  0.000000000E+00 -4.378078702E+02  4.378078702E+02  0.000000000E+00  0.00000E+00  9.000E+00
      25     1     1     2     0     0  4.352942360E+01 -2.356129436E+02 -1.529466052E+00  2.702510114E+02  1.250000000E+02  0.00000E+00  9.000E+00
      25     1     1     2     0     0  2.481675055E+01  3.278402358E+02  2.865249160E+01  3.529037497E+02  1.250000000E+02  0.00000E+00  9.000E+00
      21     1     1     2   502   512 -6.834617415E+01 -9.222729218E+01 -1.162265038E+02  1.633575010E+02  0.000000000E+00  0.00000E+00  9.000E+00
#rwgt            1           1   2.8127148393883524E-002           8      313387           0
</event>
<event>
      5   9999  3.19816E-02  2.74420E+02 -1.00000E+00  1.06865E-01
      21    -1     0     0   502   511  0.000000000E+00  0.000000000E+00  4.680575672E+02  4.680575672E+02  0.000000000E+00  0.00000E+00  9.000E+00
      21    -1     0     0   501   502  0.000000000E+00  0.000000000E+00 -2.522177884E+02  2.522177884E+02  0.000000000E+00  0.00000E+00  9.000E+00
      25     1     1     2     0     0 -1.521008167E+02  4.425546212E+01  4.868763295E+01  2.075781539E+02  1.250000000E+02  0.00000E+00  9.000E+00
      25     1     1     2     0     0 -1.157372274E+02 -1.039960533E+02  1.808931814E+01  2.004058591E+02  1.250000000E+02  0.00000E+00  9.000E+00
      21     1     1     2   501   511  2.678380441E+02  5.974059121E+01  1.490628277E+02  3.122913427E+02  3.303624740E-06  0.00000E+00  9.000E+00
#rwgt            2          11   3.9036204439523575E-003           8      313532           0
</event>
<event>
      5   9999  3.19816E-02  7.76337E+01 -1.00000E+00  1.28984E-01
      21    -1     0     0   512   501  0.000000000E+00  0.000000000E+00  2.552889624E+02  2.552889624E+02  0.000000000E+00  0.00000E+00  9.000E+00
      21    -1     0     0   501   502  0.000000000E+00  0.000000000E+00 -5.603530149E+02  5.603530149E+02  0.000000000E+00  0.00000E+00  9.000E+00
      25     1     1     2     0     0  2.215989444E+02 -9.392027745E+01 -3.993687364E+02  4.827499335E+02  1.250000000E+02  0.00000E+00  9.000E+00
      25     1     1     2     0     0 -1.447308833E+02  1.047965049E+02  1.227110330E+02  2.502245664E+02  1.250000000E+02  0.00000E+00  9.000E+00
      21     1     1     2   512   502 -7.686806108E+01 -1.087622748E+01 -2.840634913E+01  8.266747734E+01  1.545128989E-06  0.00000E+00  9.000E+00
#rwgt            2          11   3.6259852627113375E-003           8      313717           0
</event>
<event>
      5   9999  3.19816E-02  1.66491E+02 -1.00000E+00  1.14626E-01
      21    -1     0     0   502   501  0.000000000E+00  0.000000000E+00  1.018937482E+03  1.018937482E+03  0.000000000E+00  0.00000E+00  9.000E+00
      21    -1     0     0   501   511  0.000000000E+00  0.000000000E+00 -8.925622469E+02  8.925622469E+02  0.000000000E+00  0.00000E+00  9.000E+00
      25     1     1     2     0     0  2.878889066E+02  3.898199835E+02  7.769595257E+02  9.241919426E+02  1.250000000E+02  0.00000E+00  9.000E+00
      25     1     1     2     0     0 -1.513878847E+02 -4.851436768E+02 -3.101923753E+02  6.083806280E+02  1.250000000E+02  0.00000E+00  9.000E+00
      21     1     1     2   502   511 -1.365010219E+02  9.532369329E+01 -3.403919152E+02  3.789271585E+02  0.000000000E+00  0.00000E+00  9.000E+00
#rwgt            1           1   2.8034333802322110E-002           8      313737           0
</event>
<event>
      5   9999  3.19816E-02  5.26970E+01 -1.00000E+00  1.37786E-01
      21    -1     0     0   502   512  0.000000000E+00  0.000000000E+00  1.645925343E+02  1.645925343E+02  0.000000000E+00  0.00000E+00  9.000E+00
      21    -1     0     0   501   502  0.000000000E+00  0.000000000E+00 -3.317257331E+02  3.317257331E+02  0.000000000E+00  0.00000E+00  9.000E+00
      25     1     1     2     0     0 -1.379439948E+02 -1.665770819E+01 -1.503697240E+02  2.398793006E+02  1.250000000E+02  0.00000E+00  9.000E+00
      25     1     1     2     0     0  1.396030970E+02  6.932854936E+01 -3.016315997E+01  2.020650605E+02  1.250000000E+02  0.00000E+00  9.000E+00
      21     1     1     2   501   512 -1.659102239E+00 -5.267084117E+01  1.339968524E+01  5.437390637E+01  7.907449699E-07  0.00000E+00  9.000E+00
#rwgt            1           1   2.6028166636242616E-002           8      313817           0
</event>
<event>
      5   9999  3.29356E-02  2.82693E+01 -1.00000E+00  1.54854E-01
      21    -1     0     0   511   501  0.000000000E+00  0.000000000E+00  4.870707917E+01  4.870707917E+01  0.000000000E+00  0.00000E+00  9.000E+00
      21    -1     0     0   501   502  0.000000000E+00  0.000000000E+00 -1.710479329E+03  1.710479329E+03  0.000000000E+00  0.00000E+00  9.000E+00
      25     1     1     2     0     0  2.229567633E+01 -5.552946660E+01 -2.994820577E+02  3.299926086E+02  1.250000000E+02  0.00000E+00  9.000E+00
      25     1     1     2     0     0 -1.048122527E+01  8.121159988E+01 -1.384934748E+03  1.392973236E+03  1.250000000E+02  0.00000E+00  9.000E+00
      21     1     1     2   511   502 -1.181445105E+01 -2.568213328E+01  2.264455664E+01  3.622056279E+01  2.523185073E-06  0.00000E+00  9.000E+00
#rwgt            1           1   9.9442322443564962E-002           8      313887           0
</event>
<event>
      5   9999  3.19816E-02  2.72372E+01 -1.00000E+00  1.56012E-01
      21    -1     0     0   502   512  0.000000000E+00  0.000000000E+00  2.528910247E+02  2.528910247E+02  0.000000000E+00  0.00000E+00  9.000E+00
      21    -1     0     0   501   502  0.000000000E+00  0.000000000E+00 -2.823419546E+02  2.823419546E+02  0.000000000E+00  0.00000E+00  9.000E+00
      25     1     1     2     0     0  2.018089405E+02  3.766435070E+01 -9.435190430E+01  2.582106381E+02  1.250000000E+02  0.00000E+00  9.000E+00
      25     1     1     2     0     0 -2.068397240E+02 -1.089581169E+01  6.112331581E+01  2.495244474E+02  1.250000000E+02  0.00000E+00  9.000E+00
      21     1     1     2   501   512  5.030783449E+00 -2.676853901E+01  3.777658596E+00  2.749789387E+01  4.597678369E-07  0.00000E+00  9.000E+00
#rwgt            1           1   2.8222716263926060E-002           8      313981           0
</event>
<event>
      5   9999  3.19816E-02  2.79185E+01 -1.00000E+00  1.55241E-01
      21    -1     0     0   502   501  0.000000000E+00  0.000000000E+00  8.750122976E+02  8.750122976E+02  0.000000000E+00  0.00000E+00  9.000E+00
      21    -1     0     0   511   502  0.000000000E+00  0.000000000E+00 -8.221323986E+01  8.221323986E+01  0.000000000E+00  0.00000E+00  9.000E+00
      25     1     1     2     0     0 -1.055411163E+02 -1.234915149E+02  4.927831149E+02  5.337127315E+02  1.250000000E+02  0.00000E+00  9.000E+00
      25     1     1     2     0     0  7.764412567E+01  1.245864846E+02  3.302163192E+02  3.823849106E+02  1.250000000E+02  0.00000E+00  9.000E+00
      21     1     1     2   511   501  2.789699066E+01 -1.094969742E+00 -3.020037631E+01  4.112789536E+01  1.305872339E-06  0.00000E+00  9.000E+00
#rwgt            1           1   2.8506845305507129E-002           8      314139           0
</event>
<event>
      5   9999  3.19816E-02  3.77307E+01 -1.00000E+00  1.46431E-01
      21    -1     0     0   512   501  0.000000000E+00  0.000000000E+00  1.490948702E+02  1.490948702E+02  0.000000000E+00  0.00000E+00  9.000E+00
      21    -1     0     0   501   502  0.000000000E+00  0.000000000E+00 -1.657162476E+03  1.657162476E+03  0.000000000E+00  0.00000E+00  9.000E+00
      25     1     1     2     0     0 -6.090003093E+01  1.770085314E+02 -1.546141626E+03  1.562440323E+03  1.250000000E+02  0.00000E+00  9.000E+00
      25     1     1     2     0     0  6.661564883E+01 -1.397133046E+02  4.828552967E+01  2.047289538E+02  1.250000000E+02  0.00000E+00  9.000E+00
      21     1     1     2   512   502 -5.715617898E+00 -3.729522680E+01 -1.021150883E+01  3.908806906E+01  1.118282261E-06  0.00000E+00  9.000E+00
#rwgt            1           1   2.7852610566051324E-002           8      314257           0
</event>
<event>
      5   9999  3.19816E-02  3.43949E+00 -1.00000E+00  2.79942E-01
      21    -1     0     0   502   501  0.000000000E+00  0.000000000E+00  6.669284917E+01  6.669284917E+01  0.000000000E+00  0.00000E+00  9.000E+00
      21    -1     0     0   511   502  0.000000000E+00  0.000000000E+00 -8.287121087E+02  8.287121087E+02  0.000000000E+00  0.00000E+00  9.000E+00
      25     1     1     2     0     0 -6.386827525E+01 -1.664821187E+02 -2.294439223E+02  3.163304695E+02  1.250000000E+02  0.00000E+00  9.000E+00
      25     1     1     2     0     0  6.357833470E+01  1.699093687E+02 -5.008441851E+02  5.471574691E+02  1.250000000E+02  0.00000E+00  9.000E+00
      21     1     1     2   511   501  2.899405426E-01 -3.427249945E+00 -3.173115208E+01  3.191701929E+01  5.840038640E-07  0.00000E+00  9.000E+00
#rwgt            1           1   2.7397723820586316E-002           8      314340           0
</event>
<event>
      5   9999  3.19816E-02  5.23838E+02 -1.00000E+00  9.82808E-02
      21    -1     0     0   502   501  0.000000000E+00  0.000000000E+00  6.217746904E+02  6.217746904E+02  0.000000000E+00  0.00000E+00  9.000E+00
      21    -1     0     0   501   512  0.000000000E+00  0.000000000E+00 -8.822609751E+02  8.822609751E+02  0.000000000E+00  0.00000E+00  9.000E+00
      25     1     1     2     0     0  3.115568106E+02  4.304971424E+02 -2.778242649E+02  6.125412297E+02  1.250000000E+02  0.00000E+00  9.000E+00
      25     1     1     2     0     0 -1.314488368E+02  6.140455825E+01  2.528191574E+02  3.171621712E+02  1.250000000E+02  0.00000E+00  9.000E+00
      21     1     1     2   502   512 -1.801079738E+02 -4.919017007E+02 -2.354811773E+02  5.743322646E+02  1.175768662E-05  0.00000E+00  9.000E+00
#rwgt            2          11   2.1190472203774049E-003           8      314780           0
</event>
<event>
      5   9999  3.19816E-02  6.78834E+00 -1.00000E+00  2.17456E-01
      21    -1     0     0   502   511  0.000000000E+00  0.000000000E+00  5.698586533E+01  5.698586533E+01  0.000000000E+00  0.00000E+00  9.000E+00
      21    -1     0     0   501   502  0.000000000E+00  0.000000000E+00 -6.486175871E+02  6.486175871E+02  0.000000000E+00  0.00000E+00  9.000E+00
      25     1     1     2     0     0 -6.010619291E+01 -8.151356356E+01 -4.832678078E+02  5.093427034E+02  1.250000000E+02  0.00000E+00  9.000E+00
      25     1     1     2     0     0  5.682530639E+01  7.557072331E+01 -1.023468317E+02  1.871895393E+02  1.250000000E+02  0.00000E+00  9.000E+00
      21     1     1     2   501   511  3.280886518E+00  5.942840254E+00 -6.017082254E+00  9.071209703E+00  8.429369702E-08  0.00000E+00  9.000E+00
#rwgt            1           1   2.8695272339079092E-002           8      314815           0
</event>
<event>
      5   9999  3.19816E-02  2.12069E+02 -1.00000E+00  1.10729E-01
      21    -1     0     0   502   501  0.000000000E+00  0.000000000E+00  1.817179483E+02  1.817179483E+02  0.000000000E+00  0.00000E+00  9.000E+00
      21    -1     0     0   512   502  0.000000000E+00  0.000000000E+00 -1.247561704E+03  1.247561704E+03  0.000000000E+00  0.00000E+00  9.000E+00
      25     1     1     2     0     0 -7.273084514E+01 -3.249030279E+02 -9.880658747E+01  3.691063466E+02  1.250000000E+02  0.00000E+00  9.000E+00
      25     1     1     2     0     0  5.824375494E+01  1.133295142E+02 -2.183145699E+02  2.819967468E+02  1.250000000E+02  0.00000E+00  9.000E+00
      21     1     1     2   512   501  1.448709019E+01  2.115735137E+02 -7.487225983E+02  7.781765588E+02  0.000000000E+00  0.00000E+00  9.000E+00
#rwgt            1           1   2.6906052624113490E-002           8      315053           0
</event>
<event>
      5   9999  3.19816E-02  1.88291E+01 -1.00000E+00  1.68560E-01
      21    -1     0     0   502   501  0.000000000E+00  0.000000000E+00  9.053739922E+02  9.053739922E+02  0.000000000E+00  0.00000E+00  9.000E+00
      21    -1     0     0   511   502  0.000000000E+00  0.000000000E+00 -8.761368078E+02  8.761368078E+02  0.000000000E+00  0.00000E+00  9.000E+00
      25     1     1     2     0     0  4.697577523E+02 -4.578568273E+02 -5.670413514E+02  8.760514336E+02  1.250000000E+02  0.00000E+00  9.000E+00
      25     1     1     2     0     0 -4.678159662E+02  4.391281129E+02  5.987605053E+02  8.864673826E+02  1.250000000E+02  0.00000E+00  9.000E+00
      21     1     1     2   511   501 -1.941786072E+00  1.872871438E+01 -2.481969497E+00  1.899198379E+01  4.777675731E-07  0.00000E+00  9.000E+00
#rwgt            1           1   3.4589718300898305E-002           8      315113           0
</event>
<event>
      5   9999  3.19816E-02  8.62998E+00 -1.00000E+00  2.03457E-01
      21    -1     0     0   502   501  0.000000000E+00  0.000000000E+00  1.943100562E+02  1.943100562E+02  0.000000000E+00  0.00000E+00  9.000E+00
      21    -1     0     0   501   512  0.000000000E+00  0.000000000E+00 -9.652890085E+02  9.652890085E+02  0.000000000E+00  0.00000E+00  9.000E+00
      25     1     1     2     0     0 -8.798849185E+00 -2.170741672E+02  3.828991164E+01  2.535541976E+02  1.250000000E+02  0.00000E+00  9.000E+00
      25     1     1     2     0     0  1.724454684E+01  2.153002737E+02 -2.736343764E+02  3.703408622E+02  1.250000000E+02  0.00000E+00  9.000E+00
      21     1     1     2   502   512 -8.445697655E+00  1.773893444E+00 -5.356344876E+02  5.357040048E+02  7.629394531E-06  0.00000E+00  9.000E+00
#rwgt            1           1   2.8474942824366464E-002           8      315372           0
</event>
<event>
      5   9999  3.19816E-02  1.48436E+01 -1.00000E+00  1.77814E-01
       2    -1     0     0   502     0  0.000000000E+00  0.000000000E+00  1.393494194E+03  1.393494194E+03  0.000000000E+00  0.00000E+00  9.000E+00
      21    -1     0     0   501   502  0.000000000E+00  0.000000000E+00 -6.900137683E+01  6.900137683E+01  0.000000000E+00  0.00000E+00  9.000E+00
      25     1     1     2     0     0 -9.562385568E+01  8.967862429E+01  1.025959889E+02  2.081756815E+02  1.250000000E+02  0.00000E+00  9.000E+00
      25     1     1     2     0     0  8.212349321E+01 -9.584889197E+01  4.727120786E+02  5.049881063E+02  1.250000000E+02  0.00000E+00  9.000E+00
       2     1     1     2   501     0  1.350036247E+01  6.170267689E+00  7.491847498E+02  7.493317832E+02  1.078959322E-05  0.00000E+00  9.000E+00
#rwgt            1           1   2.8482830804929690E-002           8      315546           0
</event>
<event>
      5   9999  5.30702E-02  1.21835E+02 -1.00000E+00  1.20089E-01
      21    -1     0     0   502   501  0.000000000E+00  0.000000000E+00  1.949733807E+03  1.949733807E+03  0.000000000E+00  0.00000E+00  9.000E+00
      21    -1     0     0   511   502  0.000000000E+00  0.000000000E+00 -2.328792130E+02  2.328792130E+02  0.000000000E+00  0.00000E+00  9.000E+00
      25     1     1     2     0     0 -1.758720922E+02  1.506071187E+02  1.301478033E+03  1.327811571E+03  1.250000000E+02  0.00000E+00  9.000E+00
      25     1     1     2     0     0  1.285430285E+02 -3.834038954E+01  6.034628562E+02  6.307025563E+02  1.250000000E+02  0.00000E+00  9.000E+00
      21     1     1     2   511   501  4.732906374E+01 -1.122667292E+02 -1.880862960E+02  2.240988922E+02  6.607249480E-06  0.00000E+00  9.000E+00
#rwgt            1           1  0.15494047787930273                8      315687           0
</event>
<event>
      5   9999  3.19816E-02  5.76954E+01 -1.00000E+00  1.35619E-01
      21    -1     0     0   502   501  0.000000000E+00  0.000000000E+00  1.565251537E+03  1.565251537E+03  0.000000000E+00  0.00000E+00  9.000E+00
      -3    -1     0     0     0   502  0.000000000E+00  0.000000000E+00 -5.470027015E+02  5.470027015E+02  0.000000000E+00  0.00000E+00  9.000E+00
      25     1     1     2     0     0 -2.517027446E+02  2.664596405E+02  1.318474133E+03  1.374173952E+03  1.250000000E+02  0.00000E+00  9.000E+00
      25     1     1     2     0     0  2.482075452E+02 -3.240490716E+02  5.527751258E+00  4.269313086E+02  1.250000000E+02  0.00000E+00  9.000E+00
      -3     1     1     2     0   501  3.495199410E+00  5.758943111E+01 -3.057530491E+02  3.111489773E+02  0.000000000E+00  0.00000E+00  9.000E+00
#rwgt            1           1   3.1737910190910934E-002           8      315743           0
</event>
<event>
      5   9999  3.19816E-02  2.10903E+02 -1.00000E+00  1.10815E-01
      21    -1     0     0   502   511  0.000000000E+00  0.000000000E+00  1.320510252E+03  1.320510252E+03  0.000000000E+00  0.00000E+00  9.000E+00
      21    -1     0     0   501   502  0.000000000E+00  0.000000000E+00 -2.718744656E+02  2.718744656E+02  0.000000000E+00  0.00000E+00  9.000E+00
      25     1     1     2     0     0  3.082523569E+01  1.856522746E+02 -1.536476684E+02  2.732207317E+02  1.250000000E+02  0.00000E+00  9.000E+00
      25     1     1     2     0     0 -2.182377728E+02 -8.892253879E+01  9.673288744E+02  1.003436642E+03  1.250000000E+02  0.00000E+00  9.000E+00
      21     1     1     2   501   511  1.874125371E+02 -9.672973582E+01  2.349545809E+02  3.157273443E+02  0.000000000E+00  0.00000E+00  9.000E+00
#rwgt            1           1   2.6055325811439333E-002           8      315902           0
</event>
<event>
      5   9999  3.19816E-02  2.16055E+02 -1.00000E+00  1.10441E-01
      21    -1     0     0   502   501  0.000000000E+00  0.000000000E+00  2.471421032E+02  2.471421032E+02  0.000000000E+00  0.00000E+00  9.000E+00
       3    -1     0     0   501     0  0.000000000E+00  0.000000000E+00 -4.901146497E+02  4.901146497E+02  0.000000000E+00  0.00000E+00  9.000E+00
      25     1     1     2     0     0 -1.796685708E+02  6.888461791E+01 -1.293500167E+02  2.634052253E+02  1.250000000E+02  0.00000E+00  9.000E+00
      25     1     1     2     0     0  1.503147672E+02  1.451668417E+02 -7.089867198E+01  2.536130179E+02  1.250000000E+02  0.00000E+00  9.000E+00
       3     1     1     2   502     0  2.935380351E+01 -2.140514596E+02 -4.272385777E+01  2.202385097E+02  3.471426911E-06  0.00000E+00  9.000E+00
#rwgt            2          14   3.1095569329547021E-005           8      315961           0
</event>
<event>
      5   9999  3.19816E-02  5.01041E+01 -1.00000E+00  1.39024E-01
      21    -1     0     0   502   511  0.000000000E+00  0.000000000E+00  1.328981919E+03  1.328981919E+03  0.000000000E+00  0.00000E+00  9.000E+00
      21    -1     0     0   501   502  0.000000000E+00  0.000000000E+00 -2.880258913E+02  2.880258913E+02  0.000000000E+00  0.00000E+00  9.000E+00
      25     1     1     2     0     0 -3.323350830E+02 -1.153178433E+02 -9.707874924E+01  3.857383775E+02  1.250000000E+02  0.00000E+00  9.000E+00
      25     1     1     2     0     0  3.742513288E+02  1.427668585E+02  1.029422011E+03  1.111656921E+03  1.250000000E+02  0.00000E+00  9.000E+00
      21     1     1     2   501   511 -4.191624579E+01 -2.744901525E+01  1.086127659E+02  1.196125120E+02  1.348699152E-06  0.00000E+00  9.000E+00
#rwgt            1           1   2.8420301463476134E-002           8      316010           0
</event>
<event>
      5   9999  3.19816E-02  4.89694E+01 -1.00000E+00  1.39594E-01
      21    -1     0     0   502   501  0.000000000E+00  0.000000000E+00  1.107884940E+03  1.107884940E+03  0.000000000E+00  0.00000E+00  9.000E+00
      21    -1     0     0   512   502  0.000000000E+00  0.000000000E+00 -6.206392016E+01  6.206392016E+01  0.000000000E+00  0.00000E+00  9.000E+00
      25     1     1     2     0     0  8.527847604E+01 -1.695702392E+02  4.028388827E+02  4.625263776E+02  1.250000000E+02  0.00000E+00  9.000E+00
      25     1     1     2     0     0 -1.017623778E+02  1.234586480E+02  6.217272020E+02  6.540392442E+02  1.250000000E+02  0.00000E+00  9.000E+00
      21     1     1     2   512   501  1.648390174E+01  4.611159121E+01  2.125493498E+01  5.338323821E+01  8.920806376E-07  0.00000E+00  9.000E+00
#rwgt            1           1   3.1523680580938254E-002           8      316090           0
</event>
<event>
      5   9999  3.19816E-02  3.31353E+02 -1.00000E+00  1.04208E-01
      -1    -1     0     0     0   501  0.000000000E+00  0.000000000E+00  8.141792043E+02  8.141792043E+02  0.000000000E+00  0.00000E+00  9.000E+00
      21    -1     0     0   501   502  0.000000000E+00  0.000000000E+00 -5.659286099E+02  5.659286099E+02  0.000000000E+00  0.00000E+00  9.000E+00
      25     1     1     2     0     0  8.708458260E+01  2.220669285E+02  5.670475262E+01  2.752051493E+02  1.250000000E+02  0.00000E+00  9.000E+00
      25     1     1     2     0     0  5.190301965E+01 -5.228611376E+02 -2.142238482E+02  5.810288717E+02  1.250000000E+02  0.00000E+00  9.000E+00
      -1     1     1     2     0   502 -1.389876023E+02  3.007942091E+02  4.057696900E+02  5.238737931E+02  5.394796609E-06  0.00000E+00  9.000E+00
#rwgt            1           1   2.1157507550954521E-002           8      316156           0
</event>
<event>
      5   9999  3.19816E-02  2.28433E+02 -1.00000E+00  1.09586E-01
      21    -1     0     0   502   501  0.000000000E+00  0.000000000E+00  8.287923700E+01  8.287923700E+01  0.000000000E+00  0.00000E+00  9.000E+00
       2    -1     0     0   501     0  0.000000000E+00  0.000000000E+00 -2.198227080E+03  2.198227080E+03  0.000000000E+00  0.00000E+00  9.000E+00
      25     1     1     2     0     0 -1.307357089E+02 -6.273619436E+01 -1.206412365E+03  1.221508677E+03  1.250000000E+02  0.00000E+00  9.000E+00
      25     1     1     2     0     0  1.597355498E+02 -1.638484581E+02 -2.462451318E+02  3.586410852E+02  1.250000000E+02  0.00000E+00  9.000E+00
       2     1     1     2   502     0 -2.899984089E+01  2.265846525E+02 -6.626903468E+02  7.009565545E+02  1.705984480E-05  0.00000E+00  9.000E+00
#rwgt            1           1   3.0068181739063941E-002           8      316197           0
</event>
<event>
      5   9999  3.19816E-02  7.13097E+01 -1.00000E+00  1.30814E-01
      21    -1     0     0   502   501  0.000000000E+00  0.000000000E+00  1.982947998E+02  1.982947998E+02  0.000000000E+00  0.00000E+00  9.000E+00
       2    -1     0     0   501     0  0.000000000E+00  0.000000000E+00 -2.122532845E+03  2.122532845E+03  0.000000000E+00  0.00000E+00  9.000E+00
      25     1     1     2     0     0  3.840069668E+02 -4.220647804E+01 -8.964787621E+02  9.841452678E+02  1.250000000E+02  0.00000E+00  9.000E+00
      25     1     1     2     0     0 -3.246754542E+02  8.176452155E+01 -5.533176117E+01  3.616437353E+02  1.250000000E+02  0.00000E+00  9.000E+00
       2     1     1     2   502     0 -5.933151262E+01 -3.955804351E+01 -9.724275218E+02  9.750386415E+02  0.000000000E+00  0.00000E+00  9.000E+00
#rwgt            1           1   2.7427294107748603E-002           8      316264           0
</event>
<event>
      5   9999  3.19816E-02  1.96653E+01 -1.00000E+00  1.66976E-01
      21    -1     0     0   502   501  0.000000000E+00  0.000000000E+00  2.057045238E+01  2.057045238E+01  0.000000000E+00  0.00000E+00  9.000E+00
      21    -1     0     0   501   511  0.000000000E+00  0.000000000E+00 -2.602114917E+03  2.602114917E+03  0.000000000E+00  0.00000E+00  9.000E+00
      25     1     1     2     0     0  1.254331536E+02 -2.366755064E+01 -1.819966205E+03  1.828714198E+03  1.250000000E+02  0.00000E+00  9.000E+00
      25     1     1     2     0     0 -1.430694571E+02  1.496788514E+01 -5.621227713E+02  5.935485803E+02  1.250000000E+02  0.00000E+00  9.000E+00
      21     1     1     2   502   511  1.763630351E+01  8.699665497E+00 -1.994554885E+02  2.004225917E+02  2.697398305E-06  0.00000E+00  9.000E+00
#rwgt            1           1   6.4379009559207875E-002           8      316368           0
</event>
<event>
      5   9999  3.19816E-02  2.51525E+02 -1.00000E+00  1.08140E-01
       1    -1     0     0   502     0  0.000000000E+00  0.000000000E+00  8.774135522E+02  8.774135522E+02  0.000000000E+00  0.00000E+00  9.000E+00
      21    -1     0     0   501   502  0.000000000E+00  0.000000000E+00 -1.317700800E+03  1.317700800E+03  0.000000000E+00  0.00000E+00  9.000E+00
      25     1     1     2     0     0  2.825345224E+02 -3.567058334E+02 -6.876999583E+02  8.340389922E+02  1.250000000E+02  0.00000E+00  9.000E+00
      25     1     1     2     0     0 -5.254997010E+02  4.217636454E+02 -3.080123095E+02  7.513528407E+02  1.250000000E+02  0.00000E+00  9.000E+00
       1     1     1     2   501     0  2.429651786E+02 -6.505781202E+01  5.554250203E+02  6.097225190E+02  0.000000000E+00  0.00000E+00  9.000E+00
#rwgt            2          17   8.8173019381802744E-004           8      316489           0
</event>
<event>
      5   9999  3.19816E-02  5.67678E+01 -1.00000E+00  1.36001E-01
      21    -1     0     0   511   501  0.000000000E+00  0.000000000E+00  1.801638495E+02  1.801638495E+02  0.000000000E+00  0.00000E+00  9.000E+00
      21    -1     0     0   501   502  0.000000000E+00  0.000000000E+00 -1.252210863E+03  1.252210863E+03  0.000000000E+00  0.00000E+00  9.000E+00
      25     1     1     2     0     0  4.149606795E+02  1.203188415E+01 -3.090373441E+02  5.324154504E+02  1.250000000E+02  0.00000E+00  9.000E+00
      25     1     1     2     0     0 -3.600817635E+02 -2.655394145E+01 -7.500028492E+02  8.417204180E+02  1.250000000E+02  0.00000E+00  9.000E+00
      21     1     1     2   511   502 -5.487891600E+01  1.452205730E+01 -1.300681989E+01  5.823884385E+01  1.118282261E-06  0.00000E+00  9.000E+00
#rwgt            1           1   2.7935009603191750E-002           8      316508           0
</event>
<event>
      5   9999  3.19816E-02  1.61813E+02 -1.00000E+00  1.15104E-01
      21    -1     0     0   502   501  0.000000000E+00  0.000000000E+00  1.724444728E+03  1.724444728E+03  0.000000000E+00  0.00000E+00  9.000E+00
       1    -1     0     0   501     0  0.000000000E+00  0.000000000E+00 -1.937058992E+03  1.937058992E+03  0.000000000E+00  0.00000E+00  9.000E+00
      25     1     1     2     0     0 -8.418772352E+02 -4.220438685E+02 -1.643105478E+03  1.897972317E+03  1.250000000E+02  0.00000E+00  9.000E+00
      25     1     1     2     0     0  6.801071706E+02  4.183031850E+02  1.370328802E+03  1.590895768E+03  1.250000000E+02  0.00000E+00  9.000E+00
       1     1     1     2   502     0  1.617700646E+02  3.740683505E+00  6.016241163E+01  1.726356344E+02  3.932099939E-06  0.00000E+00  9.000E+00
#rwgt            1           1   2.5386184250461814E-002           8      316673           0
</event>
<event>
      5   9999  3.19816E-02  7.12758E+01 -1.00000E+00  1.30825E-01
       2    -1     0     0   502     0  0.000000000E+00  0.000000000E+00  3.425848984E+03  3.425848984E+03  0.000000000E+00  0.00000E+00  9.000E+00
      21    -1     0     0   501   502  0.000000000E+00  0.000000000E+00 -9.378143350E+01  9.378143350E+01  0.000000000E+00  0.00000E+00  9.000E+00
      25     1     1     2     0     0  2.768849645E+02  3.295460800E+01  1.068463765E+03  1.111301538E+03  1.250000000E+02  0.00000E+00  9.000E+00
      25     1     1     2     0     0 -2.928634805E+02  3.650711165E+01  2.863602806E+02  4.298011141E+02  1.250000000E+02  0.00000E+00  9.000E+00
       2     1     1     2   501     0  1.597851600E+01 -6.946171965E+01  1.977243505E+03  1.978527766E+03  0.000000000E+00  0.00000E+00  9.000E+00
#rwgt            1           1   2.8937757025342049E-002           8      316769           0
</event>
<event>
      5   9999  3.19816E-02  5.93251E+01 -1.00000E+00  1.34966E-01
      21    -1     0     0   502   511  0.000000000E+00  0.000000000E+00  1.178925363E+03  1.178925363E+03  0.000000000E+00  0.00000E+00  9.000E+00
      21    -1     0     0   501   502  0.000000000E+00  0.000000000E+00 -1.020892832E+03  1.020892832E+03  0.000000000E+00  0.00000E+00  9.000E+00
      25     1     1     2     0     0 -8.546171617E+02 -2.776744866E+02  2.038828564E+02  9.298746328E+02  1.250000000E+02  0.00000E+00  9.000E+00
      25     1     1     2     0     0  8.935573377E+02  2.329181396E+02 -3.232187846E+02  9.863016568E+02  1.250000000E+02  0.00000E+00  9.000E+00
      21     1     1     2   501   511 -3.894017598E+01  4.475634691E+01  2.773684591E+02  2.836419045E+02  0.000000000E+00  0.00000E+00  9.000E+00
#rwgt            1           1   3.7022762193704054E-002           8      316950           0
</event>
<event>
      5   9999  3.19816E-02  7.93712E+01 -1.00000E+00  1.28516E-01
      21    -1     0     0   502   501  0.000000000E+00  0.000000000E+00  1.364340890E+02  1.364340890E+02  0.000000000E+00  0.00000E+00  9.000E+00
      21    -1     0     0   501   512  0.000000000E+00  0.000000000E+00 -1.491467569E+03  1.491467569E+03  0.000000000E+00  0.00000E+00  9.000E+00
      25     1     1     2     0     0 -1.224466759E+02 -1.904782916E+02 -8.673108275E+02  9.050570366E+02  1.250000000E+02  0.00000E+00  9.000E+00
      25     1     1     2     0     0  1.238127794E+02  1.111188649E+02  1.991250730E+01  2.090418964E+02  1.250000000E+02  0.00000E+00  9.000E+00
      21     1     1     2   502   512 -1.366103473E+00  7.935942667E+01 -5.076351595E+02  5.138027248E+02  5.394796609E-06  0.00000E+00  9.000E+00
#rwgt            1           1   2.8028068448912494E-002           8      317105           0
</event>
<event>
      5   9999  3.19816E-02  2.67722E+02 -1.00000E+00  1.07224E-01
      21    -1     0     0   511   501  0.000000000E+00  0.000000000E+00  1.245620113E+03  1.245620113E+03  0.000000000E+00  0.00000E+00  9.000E+00
      21    -1     0     0   501   502  0.000000000E+00  0.000000000E+00 -1.298066621E+02  1.298066621E+02  0.000000000E+00  0.00000E+00  9.000E+00
      25     1     1     2     0     0  2.680293884E+01  1.183981599E+02  2.479186870E+01  1.760004504E+02  1.250000000E+02  0.00000E+00  9.000E+00
      25     1     1     2     0     0 -6.410833336E+01  1.467120519E+02  6.733191216E+02  7.032907963E+02  1.250000000E+02  0.00000E+00  9.000E+00
      21     1     1     2   511   502  3.730539453E+01 -2.651102118E+02  4.177024606E+02  4.961355283E+02  0.000000000E+00  0.00000E+00  9.000E+00
#rwgt            2          11   2.5516046681012378E-003           8      317366           0
</event>
<event>
      5   9999  3.19816E-02  1.27095E+02 -1.00000E+00  1.19319E-01
      21    -1     0     0   502   501  0.000000000E+00  0.000000000E+00  1.009327130E+03  1.009327130E+03  0.000000000E+00  0.00000E+00  9.000E+00
      21    -1     0     0   501   512  0.000000000E+00  0.000000000E+00 -1.821307175E+02  1.821307175E+02  0.000000000E+00  0.00000E+00  9.000E+00
      25     1     1     2     0     0 -1.138863985E+01 -5.677815211E+01  8.924917014E+02  9.030614025E+02  1.250000000E+02  0.00000E+00  9.000E+00
      25     1     1     2     0     0  4.922799338E+01 -6.455359590E+01 -8.794270888E+00  1.493080751E+02  1.250000000E+02  0.00000E+00  9.000E+00
      21     1     1     2   502   512 -3.783935352E+01  1.213317480E+02 -5.650101771E+01  1.390883703E+02  4.156969970E-06  0.00000E+00  9.000E+00
#rwgt            1           1   2.8929653955597361E-002           8      317386           0
</event>
<event>
      5   9999  3.19816E-02  7.70508E+01 -1.00000E+00  1.29144E-01
      21    -1     0     0   502   501  0.000000000E+00  0.000000000E+00  1.196030120E+03  1.196030120E+03  0.000000000E+00  0.00000E+00  9.000E+00
      21    -1     0     0   501   511  0.000000000E+00  0.000000000E+00 -2.049978850E+02  2.049978850E+02  0.000000000E+00  0.00000E+00  9.000E+00
      25     1     1     2     0     0  6.645201588E+01 -1.923057576E+02  9.034020617E+02  9.344290556E+02  1.250000000E+02  0.00000E+00  9.000E+00
      25     1     1     2     0     0 -6.175207895E+01  1.153983874E+02  2.371933523E+02  2.983551465E+02  1.250000000E+02  0.00000E+00  9.000E+00
      21     1     1     2   502   511 -4.699936937E+00  7.690737022E+01 -1.495631786E+02  1.682438034E+02  2.697398305E-06  0.00000E+00  9.000E+00
#rwgt            1           1   2.8642657449753719E-002           8      317446           0
</event>
<event>
      5   9999  3.19816E-02  8.83531E+01 -1.00000E+00  1.26296E-01
      21    -1     0     0   502   501  0.000000000E+00  0.000000000E+00  4.456847650E+02  4.456847650E+02  0.000000000E+00  0.00000E+00  9.000E+00
      21    -1     0     0   501   512  0.000000000E+00  0.000000000E+00 -1.039434282E+03  1.039434282E+03  0.000000000E+00  0.00000E+00  9.000E+00
      25     1     1     2     0     0 -6.254059660E+01  2.165688616E+02  3.656701058E+02  4.473846492E+02  1.250000000E+02  0.00000E+00  9.000E+00
      25     1     1     2     0     0 -1.637394628E+01 -1.768352515E+02 -9.119189579E+02  9.374219958E+02  1.250000000E+02  0.00000E+00  9.000E+00
      21     1     1     2   502   512  7.891454288E+01 -3.973361008E+01 -4.750066503E+01  1.003124022E+02  1.784161275E-06  0.00000E+00  9.000E+00
#rwgt            1           1   2.6482360218764652E-002           8      317514           0
</event>
<event>
      5   9999  3.19816E-02  4.18374E+01 -1.00000E+00  1.43641E-01
      21    -1     0     0   502   501  0.000000000E+00  0.000000000E+00  2.349171209E+02  2.349171209E+02  0.000000000E+00  0.00000E+00  9.000E+00
       2    -1     0     0   501     0  0.000000000E+00  0.000000000E+00 -1.860739101E+03  1.860739101E+03  0.000000000E+00  0.00000E+00  9.000E+00
      25     1     1     2     0     0 -2.251942852E+02  8.408033832E+00 -7.996826286E+02  8.401788307E+02  1.250000000E+02  0.00000E+00  9.000E+00
      25     1     1     2     0     0  1.996309500E+02 -4.152726042E+01  1.474635265E+02  2.809760153E+02  1.250000000E+02  0.00000E+00  9.000E+00
       2     1     1     2   502     0  2.556333524E+01  3.311922658E+01 -9.736028777E+02  9.745013754E+02  0.000000000E+00  0.00000E+00  9.000E+00
#rwgt            1           1   2.6139161815469953E-002           8      317643           0
</event>
<event>
      5   9999  3.19816E-02  4.39665E+01 -1.00000E+00  1.42339E-01
      21    -1     0     0   502   511  0.000000000E+00  0.000000000E+00  7.977072659E+02  7.977072659E+02  0.000000000E+00  0.00000E+00  9.000E+00
      21    -1     0     0   501   502  0.000000000E+00  0.000000000E+00 -3.066223123E+02  3.066223123E+02  0.000000000E+00  0.00000E+00  9.000E+00
      25     1     1     2     0     0 -2.644175638E+02  2.422275717E+02  1.256194547E+02  3.999951149E+02  1.250000000E+02  0.00000E+00  9.000E+00
      25     1     1     2     0     0  3.035951760E+02 -2.621818129E+02  9.558406063E+01  4.308951689E+02  1.250000000E+02  0.00000E+00  9.000E+00
      21     1     1     2   501   511 -3.917761217E+01  1.995424120E+01  2.698814382E+02  2.734392944E+02  0.000000000E+00  0.00000E+00  9.000E+00
#rwgt            1           1   3.2343583279664960E-002           8      317803           0
</event>
<event>
      5   9999  3.19816E-02  2.21114E+01 -1.00000E+00  1.62851E-01
      21    -1     0     0   502   512  0.000000000E+00  0.000000000E+00  2.786647001E+02  2.786647001E+02  0.000000000E+00  0.00000E+00  9.000E+00
      21    -1     0     0   501   502  0.000000000E+00  0.000000000E+00 -2.082965594E+02  2.082965594E+02  0.000000000E+00  0.00000E+00  9.000E+00
      25     1     1     2     0     0  7.870353600E+01  1.212212920E+02 -7.394916450E+01  2.048958935E+02  1.250000000E+02  0.00000E+00  9.000E+00
      25     1     1     2     0     0 -6.493919972E+01 -1.385260639E+02  7.842262964E+01  2.125598242E+02  1.250000000E+02  0.00000E+00  9.000E+00
      21     1     1     2   501   512 -1.376433628E+01  1.730477183E+01  6.589467550E+01  6.950554179E+01  0.000000000E+00  0.00000E+00  9.000E+00
#rwgt            1           1   2.7920192041392556E-002           8      317893           0
</event>
<event>
      5   9999  3.19816E-02  2.29110E+01 -1.00000E+00  1.61643E-01
      21    -1     0     0   511   501  0.000000000E+00  0.000000000E+00  3.721890717E+02  3.721890717E+02  0.000000000E+00  0.00000E+00  9.000E+00
      21    -1     0     0   501   502  0.000000000E+00  0.000000000E+00 -4.719997731E+02  4.719997731E+02  0.000000000E+00  0.00000E+00  9.000E+00
      25     1     1     2     0     0  2.862367935E+02  1.219905382E+02 -2.406841495E+02  4.127554400E+02  1.250000000E+02  0.00000E+00  9.000E+00
      25     1     1     2     0     0 -2.814047679E+02 -1.443861708E+02  5.743359030E+01  3.449052435E+02  1.250000000E+02  0.00000E+00  9.000E+00
      21     1     1     2   511   502 -4.832025654E+00  2.239563255E+01  8.343985780E+01  8.652816131E+01  9.536743164E-07  0.00000E+00  9.000E+00
#rwgt            1           1   2.8308342510877348E-002           8      318030           0
</event>
<event>
      5   9999  3.19816E-02  2.37211E+01 -1.00000E+00  1.60478E-01
      21    -1     0     0   502   501  0.000000000E+00  0.000000000E+00  7.238650536E+02  7.238650536E+02  0.000000000E+00  0.00000E+00  9.000E+00
      21    -1     0     0   512   502  0.000000000E+00  0.000000000E+00 -1.504036540E+02  1.504036540E+02  0.000000000E+00  0.00000E+00  9.000E+00
      25     1     1     2     0     0 -2.248401697E+02  7.767157782E+01  3.910769638E+02  4.745020206E+02  1.250000000E+02  0.00000E+00  9.000E+00
      25     1     1     2     0     0  2.030365547E+02 -6.832852674E+01  2.352343230E+02  3.418374128E+02  1.250000000E+02  0.00000E+00  9.000E+00
      21     1     1     2   512   501  2.180361503E+01 -9.343051076E+00 -5.284988720E+01  5.792927419E+01  9.536743164E-07  0.00000E+00  9.000E+00
#rwgt            1           1   3.1743226455915791E-002           8      318191           0
</event>
<event>
      5   9999  3.19816E-02  6.27498E+01 -1.00000E+00  1.33672E-01
      21    -1     0     0   502   501  0.000000000E+00  0.000000000E+00  1.957600914E+02  1.957600914E+02  0.000000000E+00  0.00000E+00  9.000E+00
      21    -1     0     0   501   511  0.000000000E+00  0.000000000E+00 -3.577809562E+02  3.577809562E+02  0.000000000E+00  0.00000E+00  9.000E+00
      25     1     1     2     0     0 -5.695420798E+01 -1.014402970E+02  7.980196200E+01  1.884867868E+02  1.250000000E+02  0.00000E+00  9.000E+00
      25     1     1     2     0     0  4.138403397E+01  1.622276995E+02 -1.675433850E+02  2.678175697E+02  1.250000000E+02  0.00000E+00  9.000E+00
      21     1     1     2   502   511  1.557017401E+01 -6.078740259E+01 -7.427944178E+01  9.723669113E+01  1.348699152E-06  0.00000E+00  9.000E+00
#rwgt            1           1   3.1490967322123413E-002           8      318316           0
</event>
<event>
      5   9999  3.19816E-02  2.20057E+02 -1.00000E+00  1.10158E-01
      21    -1     0     0   502   512  0.000000000E+00  0.000000000E+00  6.232336991E+02  6.232336991E+02  0.000000000E+00  0.00000E+00  9.000E+00
      21    -1     0     0   501   502  0.000000000E+00  0.000000000E+00 -7.851246954E+02  7.851246954E+02  0.000000000E+00  0.00000E+00  9.000E+00
      25     1     1     2     0     0 -2.140787696E+02 -4.026531053E+02  2.970487385E+02  5.584104188E+02  1.250000000E+02  0.00000E+00  9.000E+00
      25     1     1     2     0     0  3.367613013E+02  2.199676836E+02 -4.680862049E+02  6.297012395E+02  1.250000000E+02  0.00000E+00  9.000E+00
      21     1     1     2   501   512 -1.226825317E+02  1.826854217E+02  9.146470134E+00  2.202467362E+02  1.186117455E-06  0.00000E+00  9.000E+00
#rwgt            2          11   5.2344168058450534E-003           8      318472           0
</event>
<event>
      5   9999  3.19816E-02  7.07671E+01 -1.00000E+00  1.30981E-01
      21    -1     0     0   502   501  0.000000000E+00  0.000000000E+00  1.717004087E+02  1.717004087E+02  0.000000000E+00  0.00000E+00  9.000E+00
      21    -1     0     0   501   511  0.000000000E+00  0.000000000E+00 -1.363681798E+03  1.363681798E+03  0.000000000E+00  0.00000E+00  9.000E+00
      25     1     1     2     0     0  1.683972280E+02 -1.229597295E+02 -1.143955434E+03  1.169502355E+03  1.250000000E+02  0.00000E+00  9.000E+00
      25     1     1     2     0     0 -1.817432439E+02  5.346244856E+01  6.179894468E+01  2.352295680E+02  1.250000000E+02  0.00000E+00  9.000E+00
      21     1     1     2   502   511  1.334601587E+01  6.949728092E+01 -1.098248999E+02  1.306502844E+02  2.697398305E-06  0.00000E+00  9.000E+00
#rwgt            1           1   2.8346498418257701E-002           8      318492           0
</event>
<event>
      5   9999  3.19816E-02  1.63593E+02 -1.00000E+00  1.14920E-01
       2    -1     0     0   502     0  0.000000000E+00  0.000000000E+00  1.701828195E+03  1.701828195E+03  0.000000000E+00  0.00000E+00  9.000E+00
      21    -1     0     0   501   502  0.000000000E+00  0.000000000E+00 -2.462085811E+02  2.462085811E+02  0.000000000E+00  0.00000E+00  9.000E+00
      25     1     1     2     0     0 -1.429181759E+02  6.716425933E+01  3.833604770E+02  4.330437600E+02  1.250000000E+02  0.00000E+00  9.000E+00
      25     1     1     2     0     0  2.788135908E+02  2.391253550E+01 -1.068587448E+02  3.245806820E+02  1.250000000E+02  0.00000E+00  9.000E+00
       2     1     1     2   501     0 -1.358954149E+02 -9.107679483E+01  1.179117882E+03  1.190412334E+03  0.000000000E+00  0.00000E+00  9.000E+00
#rwgt            2          18   1.6505880506177918E-003           8      318612           0
</event>
<event>
      5   9999  3.19816E-02  5.06202E+02 -1.00000E+00  9.87002E-02
       1    -1     0     0   502     0  0.000000000E+00  0.000000000E+00  9.031349251E+02  9.031349251E+02  0.000000000E+00  0.00000E+00  9.000E+00
      21    -1     0     0   501   502  0.000000000E+00  0.000000000E+00 -5.792797770E+02  5.792797770E+02  0.000000000E+00  0.00000E+00  9.000E+00
      25     1     1     2     0     0  3.206695492E+02  2.071575296E+02  1.227006970E+02  4.200281691E+02  1.250000000E+02  0.00000E+00  9.000E+00
      25     1     1     2     0     0  7.553214689E+01  1.079046517E+02 -2.996109490E+02  3.503430316E+02  1.250000000E+02  0.00000E+00  9.000E+00
       1     1     1     2   501     0 -3.962016961E+02 -3.150621812E+02  5.007654001E+02  7.120435014E+02  7.629394531E-06  0.00000E+00  9.000E+00
#rwgt            2          17   5.9260908802854422E-004           8      318631           0
</event>
<event>
      5   9999  3.19816E-02  1.34988E+02 -1.00000E+00  1.18238E-01
       1    -1     0     0   502     0  0.000000000E+00  0.000000000E+00  4.342349082E+02  4.342349082E+02  0.000000000E+00  0.00000E+00  9.000E+00
      21    -1     0     0   501   502  0.000000000E+00  0.000000000E+00 -1.955379450E+03  1.955379450E+03  0.000000000E+00  0.00000E+00  9.000E+00
      25     1     1     2     0     0  9.682121366E+01 -5.101467318E+02 -1.478465081E+03  1.571975836E+03  1.250000000E+02  0.00000E+00  9.000E+00
      25     1     1     2     0     0 -4.731528638E+01  3.845644583E+02 -3.142945351E+02  5.143292853E+02  1.250000000E+02  0.00000E+00  9.000E+00
       1     1     1     2   501     0 -4.950592728E+01  1.255822735E+02  2.716150743E+02  3.033092363E+02  6.607249480E-06  0.00000E+00  9.000E+00
#rwgt            2          17   7.4064953856377497E-004           8      318665           0
</event>
<event>
      5   9999  3.19816E-02  2.55546E+01 -1.00000E+00  1.58040E-01
      21    -1     0     0   502   511  0.000000000E+00  0.000000000E+00  3.078084988E+02  3.078084988E+02  0.000000000E+00  0.00000E+00  9.000E+00
      21    -1     0     0   501   502  0.000000000E+00  0.000000000E+00 -6.674045278E+02  6.674045278E+02  0.000000000E+00  0.00000E+00  9.000E+00
      25     1     1     2     0     0  2.760874540E+02  2.520017028E+02  1.980047644E+00  3.941548694E+02  1.250000000E+02  0.00000E+00  9.000E+00
      25     1     1     2     0     0 -2.827294363E+02 -2.766780574E+02 -3.681642016E+02  5.546679736E+02  1.250000000E+02  0.00000E+00  9.000E+00
      21     1     1     2   501   511  6.641982268E+00  2.467635454E+01  6.588125016E+00  2.639018365E+01  6.743495762E-07  0.00000E+00  9.000E+00
#rwgt            1           1   2.9396907653021966E-002           8      318714           0
</event>
<event>
      5   9999  3.19816E-02  9.76911E+01 -1.00000E+00  1.24286E-01
      21    -1     0     0   512   501  0.000000000E+00  0.000000000E+00  4.698102418E+02  4.698102418E+02  0.000000000E+00  0.00000E+00  9.000E+00
      21    -1     0     0   501   502  0.000000000E+00  0.000000000E+00 -9.216866934E+02  9.216866934E+02  0.000000000E+00  0.00000E+00  9.000E+00
      25     1     1     2     0     0 -5.906869155E+02  2.326852226E+00 -3.571935031E+02  7.015188130E+02  1.250000000E+02  0.00000E+00  9.000E+00
      25     1     1     2     0     0  5.060881444E+02  4.652588210E+01 -1.867997165E+02  5.557058590E+02  1.250000000E+02  0.00000E+00  9.000E+00
      21     1     1     2   512   502  8.459877105E+01 -4.885273433E+01  9.211676791E+01  1.342722631E+02  1.348699152E-06  0.00000E+00  9.000E+00
#rwgt            1           1   2.8733620000489634E-002           8      318870           0
</event>
<event>
      5   9999  3.19816E-02  2.46131E+02 -1.00000E+00  1.08462E-01
      21    -1     0     0   502   501  0.000000000E+00  0.000000000E+00  3.451618631E+02  3.451618631E+02  0.000000000E+00  0.00000E+00  9.000E+00
       3    -1     0     0   501     0  0.000000000E+00  0.000000000E+00 -1.571886077E+03  1.571886077E+03  0.000000000E+00  0.00000E+00  9.000E+00
      25     1     1     2     0     0 -3.976526050E+02 -3.227706764E+02 -9.421123162E+02  1.079587477E+03  1.250000000E+02  0.00000E+00  9.000E+00
      25     1     1     2     0     0  1.885346710E+02  1.929629286E+02  1.537474214E+02  3.347286715E+02  1.250000000E+02  0.00000E+00  9.000E+00
       3     1     1     2   502     0  2.091179341E+02  1.298077478E+02 -4.383593189E+02  5.027317915E+02  0.000000000E+00  0.00000E+00  9.000E+00
#rwgt            1           1   2.8239202889111095E-002           8      318966           0
</event>
<event>
      5   9999  3.19816E-02  6.45188E+02 -1.00000E+00  9.58053E-02
      21    -1     0     0   502   501  0.000000000E+00  0.000000000E+00  8.154401322E+02  8.154401322E+02  0.000000000E+00  0.00000E+00  9.000E+00
      21    -1     0     0   511   502  0.000000000E+00  0.000000000E+00 -1.411011577E+03  1.411011577E+03  0.000000000E+00  0.00000E+00  9.000E+00
      25     1     1     2     0     0 -1.643182378E+02 -1.990504587E+02  2.902799740E+02  4.080551822E+02  1.250000000E+02  0.00000E+00  9.000E+00
      25     1     1     2     0     0  2.081057389E+01  8.280758689E+02 -1.701671041E+02  8.548242907E+02  1.250000000E+02  0.00000E+00  9.000E+00
      21     1     1     2   511   501  1.435076639E+02 -6.290254102E+02 -7.156843149E+02  9.635722365E+02  7.629394531E-06  0.00000E+00  9.000E+00
#rwgt            1           1   2.7737382454731393E-002           8      319044           0
</event>
<event>
      5   9999  3.19816E-02  2.64479E+01 -1.00000E+00  1.56941E-01
      21    -1     0     0   502   501  0.000000000E+00  0.000000000E+00  5.374269193E+02  5.374269193E+02  0.000000000E+00  0.00000E+00  9.000E+00
      21    -1     0     0   512   502  0.000000000E+00  0.000000000E+00 -3.005213775E+02  3.005213775E+02  0.000000000E+00  0.00000E+00  9.000E+00
      25     1     1     2     0     0  5.246549180E+01  6.231458535E+01  7.636651606E+01  1.676084131E+02  1.250000000E+02  0.00000E+00  9.000E+00
      25     1     1     2     0     0 -2.927937289E+01 -7.503841548E+01  4.013853048E+02  4.280458017E+02  1.250000000E+02  0.00000E+00  9.000E+00
      21     1     1     2   512   501 -2.318611891E+01  1.272383014E+01 -2.408462791E+02  2.422940819E+02  3.814697266E-06  0.00000E+00  9.000E+00
#rwgt            1           1   3.6791874217422763E-002           8      319086           0
</event>
<event>
      5   9999  3.19816E-02  1.20103E+02 -1.00000E+00  1.20352E-01
       3    -1     0     0   502     0  0.000000000E+00  0.000000000E+00  1.521487079E+02  1.521487079E+02  0.000000000E+00  0.00000E+00  9.000E+00
      21    -1     0     0   501   502  0.000000000E+00  0.000000000E+00 -8.012900120E+02  8.012900120E+02  0.000000000E+00  0.00000E+00  9.000E+00
      25     1     1     2     0     0 -2.043036809E+01  1.756714141E+02 -4.236363095E+02  4.757841616E+02  1.250000000E+02  0.00000E+00  9.000E+00
      25     1     1     2     0     0  1.359818831E+02 -2.084214533E+02 -8.156121044E+01  2.901858125E+02  1.250000000E+02  0.00000E+00  9.000E+00
       3     1     1     2   501     0 -1.155515150E+02  3.275003923E+01 -1.439437841E+02  1.874687459E+02  1.907348633E-06  0.00000E+00  9.000E+00
#rwgt            1           1   2.7433282463527133E-002           8      319174           0
</event>
<event>
      5   9999  3.19816E-02  1.89005E+01 -1.00000E+00  1.68421E-01
      21    -1     0     0   502   511  0.000000000E+00  0.000000000E+00  4.270648165E+02  4.270648165E+02  0.000000000E+00  0.00000E+00  9.000E+00
      21    -1     0     0   501   502  0.000000000E+00  0.000000000E+00 -9.544496646E+02  9.544496646E+02  0.000000000E+00  0.00000E+00  9.000E+00
      25     1     1     2     0     0 -2.629402325E+02  1.745842702E+02 -4.744204013E+02  5.833669089E+02  1.250000000E+02  0.00000E+00  9.000E+00
      25     1     1     2     0     0  2.644661551E+02 -1.934230558E+02 -3.529615298E+02  4.975556926E+02  1.250000000E+02  0.00000E+00  9.000E+00
      21     1     1     2   501   511 -1.525922584E+00  1.883878566E+01  2.999970830E+02  3.005918796E+02  3.814697266E-06  0.00000E+00  9.000E+00
#rwgt            1           1   2.9836645037774077E-002           8      319225           0
</event>
<event>
      5   9999  3.19816E-02  2.31182E+01 -1.00000E+00  1.61339E-01
      21    -1     0     0   502   501  0.000000000E+00  0.000000000E+00  3.602163680E+02  3.602163680E+02  0.000000000E+00  0.00000E+00  9.000E+00
      -3    -1     0     0     0   502  0.000000000E+00  0.000000000E+00 -1.139778587E+03  1.139778587E+03  0.000000000E+00  0.00000E+00  9.000E+00
      25     1     1     2     0     0 -5.946973990E+01  6.650245637E+00  1.708698103E+02  2.200053813E+02  1.250000000E+02  0.00000E+00  9.000E+00
      25     1     1     2     0     0  3.686068579E+01 -1.147520261E+01  1.386695335E+02  1.906426761E+02  1.250000000E+02  0.00000E+00  9.000E+00
      -3     1     1     2     0   501  2.260905411E+01  4.824956972E+00 -1.089101563E+03  1.089346898E+03  0.000000000E+00  0.00000E+00  9.000E+00
#rwgt            1           1   7.0769676687436039E-003           8      319407           0
</event>
<event>
      5   9999  3.19816E-02  1.16086E+02 -1.00000E+00  1.20983E-01
       2    -1     0     0   502     0  0.000000000E+00  0.000000000E+00  1.279771650E+03  1.279771650E+03  0.000000000E+00  0.00000E+00  9.000E+00
      21    -1     0     0   501   502  0.000000000E+00  0.000000000E+00 -8.434915301E+02  8.434915301E+02  0.000000000E+00  0.00000E+00  9.000E+00
      25     1     1     2     0     0 -7.255819605E+01 -6.203024158E+01 -1.711815349E+01  1.582102205E+02  1.250000000E+02  0.00000E+00  9.000E+00
      25     1     1     2     0     0  9.443900807E+01 -5.197537567E+01 -7.439749578E+02  7.620655509E+02  1.250000000E+02  0.00000E+00  9.000E+00
       2     1     1     2   501     0 -2.188081202E+01  1.140056173E+02  1.197373231E+03  1.202987409E+03  2.157918644E-05  0.00000E+00  9.000E+00
#rwgt            1           1   2.6800603810381126E-002           8      319491           0
</event>
<event>
      5   9999  3.19816E-02  2.83093E+02 -1.00000E+00  1.06417E-01
      21    -1     0     0   502   501  0.000000000E+00  0.000000000E+00  7.857985211E+02  7.857985211E+02  0.000000000E+00  0.00000E+00  9.000E+00
      21    -1     0     0   501   511  0.000000000E+00  0.000000000E+00 -1.042273651E+03  1.042273651E+03  0.000000000E+00  0.00000E+00  9.000E+00
      25     1     1     2     0     0  4.640660979E+02 -4.909610826E+02 -1.238998290E+02  6.981234099E+02  1.250000000E+02  0.00000E+00  9.000E+00
      25     1     1     2     0     0 -1.880457396E+02  5.538443026E+02  2.548320507E+02  6.501300530E+02  1.250000000E+02  0.00000E+00  9.000E+00
      21     1     1     2   502   511 -2.760203583E+02 -6.288322004E+01 -3.874073515E+02  4.798187091E+02  7.629394531E-06  0.00000E+00  9.000E+00
#rwgt            1           1   3.1586411541916014E-002           8      319581           0
</event>
<event>
      5   9999  3.19816E-02  1.79135E+01 -1.00000E+00  1.70416E-01
      21    -1     0     0   502   501  0.000000000E+00  0.000000000E+00  2.825045522E+02  2.825045522E+02  0.000000000E+00  0.00000E+00  9.000E+00
      21    -1     0     0   512   502  0.000000000E+00  0.000000000E+00 -1.148750329E+02  1.148750329E+02  0.000000000E+00  0.00000E+00  9.000E+00
      25     1     1     2     0     0 -5.193572868E+01 -9.842226990E+01  8.302467240E+01  1.868217315E+02  1.250000000E+02  0.00000E+00  9.000E+00
      25     1     1     2     0     0  6.972708719E+01  1.005106975E+02  7.654418085E+01  1.909143227E+02  1.250000000E+02  0.00000E+00  9.000E+00
      21     1     1     2   512   501 -1.779135851E+01 -2.088427585E+00  8.060666071E+00  1.964353087E+01  4.129530925E-07  0.00000E+00  9.000E+00
#rwgt            1           1   3.0460976407276200E-002           8      319617           0
</event>
<event>
      5   9999  3.19816E-02  4.29182E+01 -1.00000E+00  1.42969E-01
      21    -1     0     0   502   511  0.000000000E+00  0.000000000E+00  4.592050075E+02  4.592050075E+02  0.000000000E+00  0.00000E+00  9.000E+00
      21    -1     0     0   501   502  0.000000000E+00  0.000000000E+00 -1.024348142E+03  1.024348142E+03  0.000000000E+00  0.00000E+00  9.000E+00
      25     1     1     2     0     0 -2.954332508E+02  1.267921769E+02  3.063646374E+02  4.613473234E+02  1.250000000E+02  0.00000E+00  9.000E+00
      25     1     1     2     0     0  2.699831805E+02 -1.613503218E+02 -9.059946322E+02  9.671484466E+02  1.250000000E+02  0.00000E+00  9.000E+00
      21     1     1     2   501   511  2.545007033E+01  3.455814493E+01  3.448686053E+01  5.505737925E+01  1.066240300E-06  0.00000E+00  9.000E+00
#rwgt            1           1   2.9896596726005125E-002           8      319794           0
</event>
<event>
      5   9999  3.19816E-02  4.99836E+01 -1.00000E+00  1.39084E-01
      21    -1     0     0   502   501  0.000000000E+00  0.000000000E+00  2.503862448E+02  2.503862448E+02  0.000000000E+00  0.00000E+00  9.000E+00
       2    -1     0     0   501     0  0.000000000E+00  0.000000000E+00 -1.036771744E+03  1.036771744E+03  0.000000000E+00  0.00000E+00  9.000E+00
      25     1     1     2     0     0  2.107006637E+02 -1.925324413E+02 -1.928544004E+02  3.664441709E+02  1.250000000E+02  0.00000E+00  9.000E+00
      25     1     1     2     0     0 -2.545181644E+02  1.684828391E+02 -4.805053477E+00  3.298697495E+02  1.250000000E+02  0.00000E+00  9.000E+00
       2     1     1     2   502     0  4.381750070E+01  2.404960222E+01 -5.887260454E+02  5.908440685E+02  0.000000000E+00  0.00000E+00  9.000E+00
#rwgt            1           1   2.8097822106889180E-002           8      319970           0
</event>
<event>
      5   9999  3.19816E-02  6.88753E+00 -1.00000E+00  2.16553E-01
      21    -1     0     0   511   501  0.000000000E+00  0.000000000E+00  6.369855204E+02  6.369855204E+02  0.000000000E+00  0.00000E+00  9.000E+00
      21    -1     0     0   501   502  0.000000000E+00  0.000000000E+00 -3.265470952E+02  3.265470952E+02  0.000000000E+00  0.00000E+00  9.000E+00
      25     1     1     2     0     0  2.359136053E+02  6.420282406E+01  5.126119592E+01  2.793384005E+02  1.250000000E+02  0.00000E+00  9.000E+00
      25     1     1     2     0     0 -2.333863307E+02 -7.060992959E+01 -1.241388830E+02  3.008162292E+02  1.250000000E+02  0.00000E+00  9.000E+00
      21     1     1     2   511   502 -2.527274656E+00  6.407105536E+00  3.833161123E+02  3.833779858E+02  5.394796609E-06  0.00000E+00  9.000E+00
#rwgt            1           1   2.5986129830499770E-002           8      320097           0
</event>
<event>
      5   9999  3.19816E-02  1.02812E+02 -1.00000E+00  1.23289E-01
       2    -1     0     0   502     0  0.000000000E+00  0.000000000E+00  2.019413685E+03  2.019413685E+03  0.000000000E+00  0.00000E+00  9.000E+00
      21    -1     0     0   501   502  0.000000000E+00  0.000000000E+00 -1.901221769E+02  1.901221769E+02  0.000000000E+00  0.00000E+00  9.000E+00
      25     1     1     2     0     0  2.062669847E+02  5.291409909E+02  6.630294453E+02  8.819122987E+02  1.250000000E+02  0.00000E+00  9.000E+00
      25     1     1     2     0     0 -1.833687223E+02 -4.289118060E+02  7.016938109E+02  8.518149035E+02  1.250000000E+02  0.00000E+00  9.000E+00
       2     1     1     2   501     0 -2.289826238E+01 -1.002291849E+02  4.645682516E+02  4.758086593E+02  0.000000000E+00  0.00000E+00  9.000E+00
#rwgt            1           1   2.1839435886933441E-002           8      320347           0
</event>
<event>
      5   9999  3.19816E-02  1.43450E+02 -1.00000E+00  1.17167E-01
      21    -1     0     0   502   501  0.000000000E+00  0.000000000E+00  1.008951338E+03  1.008951338E+03  0.000000000E+00  0.00000E+00  9.000E+00
      21    -1     0     0   511   502  0.000000000E+00  0.000000000E+00 -3.670528534E+02  3.670528534E+02  0.000000000E+00  0.00000E+00  9.000E+00
      25     1     1     2     0     0 -8.931555598E+01 -8.950903527E+01  8.634300466E+02  8.815472655E+02  1.250000000E+02  0.00000E+00  9.000E+00
      25     1     1     2     0     0  1.672968484E+02  2.099121581E+02 -1.734472104E+02  3.431621838E+02  1.250000000E+02  0.00000E+00  9.000E+00
      21     1     1     2   511   501 -7.798129240E+01 -1.204031229E+02 -4.808435195E+01  1.512947417E+02  2.523185073E-06  0.00000E+00  9.000E+00
#rwgt            1           1   3.2818997453280215E-002           8      320447           0
</event>
<event>
      5   9999  3.19816E-02  3.61543E+01 -1.00000E+00  1.47616E-01
      21    -1     0     0   502   512  0.000000000E+00  0.000000000E+00  2.667921735E+02  2.667921735E+02  0.000000000E+00  0.00000E+00  9.000E+00
      21    -1     0     0   501   502  0.000000000E+00  0.000000000E+00 -6.092132994E+02  6.092132994E+02  0.000000000E+00  0.00000E+00  9.000E+00
      25     1     1     2     0     0 -6.357996061E+01  2.405993691E+02 -4.622465583E+02  5.396548420E+02  1.250000000E+02  0.00000E+00  9.000E+00
      25     1     1     2     0     0  9.478687450E+01 -2.223438436E+02  8.240646601E+01  2.843187683E+02  1.250000000E+02  0.00000E+00  9.000E+00
      21     1     1     2   501   512 -3.120691388E+01 -1.825552553E+01  3.741896638E+01  5.203186266E+01  0.000000000E+00  0.00000E+00  9.000E+00
#rwgt            1           1   2.7825202938594609E-002           8      320526           0
</event>
<event>
      5   9999  3.19816E-02  4.59827E+01 -1.00000E+00  1.41183E-01
      21    -1     0     0   502   501  0.000000000E+00  0.000000000E+00  2.045288474E+02  2.045288474E+02  0.000000000E+00  0.00000E+00  9.000E+00
      -2    -1     0     0     0   502  0.000000000E+00  0.000000000E+00 -7.898374037E+02  7.898374037E+02  0.000000000E+00  0.00000E+00  9.000E+00
      25     1     1     2     0     0 -9.281514284E+01 -2.826796779E+02 -6.073657904E+01  3.283845049E+02  1.250000000E+02  0.00000E+00  9.000E+00
      25     1     1     2     0     0  1.273750691E+02  3.130114781E+02 -4.313781271E+02  5.620611018E+02  1.250000000E+02  0.00000E+00  9.000E+00
      -2     1     1     2     0   501 -3.455992625E+01 -3.033180016E+01 -9.319385023E+01  1.039206444E+02  0.000000000E+00  0.00000E+00  9.000E+00
#rwgt            1           1   2.6391979266181330E-002           8      320620           0
</event>
<event>
      5   9999  3.19816E-02  1.09945E+01 -1.00000E+00  1.91115E-01
      21    -1     0     0   502   501  0.000000000E+00  0.000000000E+00  9.451789417E+01  9.451789417E+01  0.000000000E+00  0.00000E+00  9.000E+00
      21    -1     0     0   511   502  0.000000000E+00  0.000000000E+00 -2.599270997E+02  2.599270997E+02  0.000000000E+00  0.00000E+00  9.000E+00
      25     1     1     2     0     0 -7.543008863E+01 -4.631943551E+01 -7.292800446E+01  1.696428077E+02  1.250000000E+02  0.00000E+00  9.000E+00
      25     1     1     2     0     0  6.470287770E+01  4.872885254E+01 -8.489183262E+01  1.714426630E+02  1.250000000E+02  0.00000E+00  9.000E+00
      21     1     1     2   511   501  1.072721092E+01 -2.409417030E+00 -7.589368402E+00  1.335952310E+01  2.384185791E-07  0.00000E+00  9.000E+00
#rwgt            1           1   5.3818345829093651E-002           8      320713           0
</event>
<event>
      5   9999  3.19816E-02  3.47818E+01 -1.00000E+00  1.48709E-01
      21    -1     0     0   502   501  0.000000000E+00  0.000000000E+00  5.910108296E+02  5.910108296E+02  0.000000000E+00  0.00000E+00  9.000E+00
       1    -1     0     0   501     0  0.000000000E+00  0.000000000E+00 -4.372571443E+02  4.372571443E+02  0.000000000E+00  0.00000E+00  9.000E+00
      25     1     1     2     0     0 -2.681354571E+02 -1.270208580E+02  2.805536083E+02  4.270436147E+02  1.250000000E+02  0.00000E+00  9.000E+00
      25     1     1     2     0     0  2.732477282E+02  9.261684254E+01  1.313339710E+02  3.407577034E+02  1.250000000E+02  0.00000E+00  9.000E+00
       1     1     1     2   502     0 -5.112271101E+00  3.440401542E+01 -2.581338940E+02  2.604666559E+02  0.000000000E+00  0.00000E+00  9.000E+00
#rwgt            1           1   3.0681244058677948E-002           8      320865           0
</event>
<event>
      5   9999  3.19816E-02  7.77890E+01 -1.00000E+00  1.28941E-01
      21    -1     0     0   502   511  0.000000000E+00  0.000000000E+00  7.047947197E+02  7.047947197E+02  0.000000000E+00  0.00000E+00  9.000E+00
      21    -1     0     0   501   502  0.000000000E+00  0.000000000E+00 -6.147256094E+02  6.147256094E+02  0.000000000E+00  0.00000E+00  9.000E+00
      25     1     1     2     0     0  8.428148057E+01 -1.634911148E+02  5.801688766E+02  6.213321478E+02  1.250000000E+02  0.00000E+00  9.000E+00
      25     1     1     2     0     0 -1.145628690E+02  2.351442429E+02 -5.349091324E+02  6.084161781E+02  1.250000000E+02  0.00000E+00  9.000E+00
      21     1     1     2   501   511  3.028138842E+01 -7.165312811E+01  4.480936603E+01  8.977200308E+01  1.581489940E-06  0.00000E+00  9.000E+00
#rwgt            2          11   8.0798133392541369E-003           8      321020           0
</event>
<event>
      5   9999  3.19816E-02  5.72033E+01 -1.00000E+00  1.35821E-01
      21    -1     0     0   502   501  0.000000000E+00  0.000000000E+00  1.211893838E+03  1.211893838E+03  0.000000000E+00  0.00000E+00  9.000E+00
      21    -1     0     0   512   502  0.000000000E+00  0.000000000E+00 -1.530691185E+02  1.530691185E+02  0.000000000E+00  0.00000E+00  9.000E+00
      25     1     1     2     0     0 -1.338511607E+02 -1.785590036E+02  4.621441412E+02  5.282060755E+02  1.250000000E+02  0.00000E+00  9.000E+00
      25     1     1     2     0     0  1.509604045E+02  1.239742368E+02  6.896495812E+02  7.275989280E+02  1.250000000E+02  0.00000E+00  9.000E+00
      21     1     1     2   512   501 -1.710924386E+01  5.458476683E+01 -9.296900347E+01  1.091579525E+02  1.348699152E-06  0.00000E+00  9.000E+00
#rwgt            1           1   2.6570978416740585E-002           8      321055           0
</event>
<event>
      5   9999  3.19816E-02  3.32190E+01 -1.00000E+00  1.50028E-01
      21    -1     0     0   502   501  0.000000000E+00  0.000000000E+00  4.683166670E+02  4.683166670E+02  0.000000000E+00  0.00000E+00  9.000E+00
      -1    -1     0     0     0   502  0.000000000E+00  0.000000000E+00 -1.253454230E+02  1.253454230E+02  0.000000000E+00  0.00000E+00  9.000E+00
      25     1     1     2     0     0 -9.417429562E+01 -4.391355624E+01  2.228899356E+02  2.758661302E+02  1.250000000E+02  0.00000E+00  9.000E+00
      25     1     1     2     0     0  9.290200410E+01  7.710820837E+01  1.794236260E+02  2.497885020E+02  1.250000000E+02  0.00000E+00  9.000E+00
      -1     1     1     2     0   501  1.272291525E+00 -3.319465213E+01 -5.934231761E+01  6.800745779E+01  1.168007728E-06  0.00000E+00  9.000E+00
#rwgt            1           1   2.9124913315753738E-002           8      321136           0
</event>
<event>
      5   9999  3.19816E-02  3.07498E+02 -1.00000E+00  1.05245E-01
       1    -1     0     0   502     0  0.000000000E+00  0.000000000E+00  1.164151312E+03  1.164151312E+03  0.000000000E+00  0.00000E+00  9.000E+00
      21    -1     0     0   501   502  0.000000000E+00  0.000000000E+00 -2.261387217E+02  2.261387217E+02  0.000000000E+00  0.00000E+00  9.000E+00
      25     1     1     2     0     0 -1.194564637E+02 -1.637016808E+02  1.539326320E+02  2.835283799E+02  1.250000000E+02  0.00000E+00  9.000E+00
      25     1     1     2     0     0  4.221854405E+02  1.097555795E+02  5.853335813E+02  7.406262450E+02  1.250000000E+02  0.00000E+00  9.000E+00
       1     1     1     2   501     0 -3.027289768E+02  5.394610132E+01  1.987463770E+02  3.661354088E+02  5.394796609E-06  0.00000E+00  9.000E+00
#rwgt            1           1   2.8044019502848676E-002           8      321227           0
</event>
<event>
      5   9999  3.19816E-02  2.29677E+01 -1.00000E+00  1.61559E-01
      21    -1     0     0   502   501  0.000000000E+00  0.000000000E+00  3.372465373E+03  3.372465373E+03  0.000000000E+00  0.00000E+00  9.000E+00
      21    -1     0     0   501   511  0.000000000E+00  0.000000000E+00 -1.962719889E+02  1.962719889E+02  0.000000000E+00  0.00000E+00  9.000E+00
      25     1     1     2     0     0 -3.241867910E+02  6.572242289E+02  1.595415491E+03  1.760118278E+03  1.250000000E+02  0.00000E+00  9.000E+00
      25     1     1     2     0     0  3.300130085E+02 -6.794407166E+02  1.603130431E+03  1.776569855E+03  1.250000000E+02  0.00000E+00  9.000E+00
      21     1     1     2   502   511 -5.826217525E+00  2.221648771E+01 -2.235253763E+01  3.204922894E+01  8.259061849E-07  0.00000E+00  9.000E+00
#rwgt            1           1   3.9703980087293228E-002           8      321290           0
</event>
<event>
      5   9999  3.19816E-02  8.42110E+01 -1.00000E+00  1.27280E-01
      21    -1     0     0   512   501  0.000000000E+00  0.000000000E+00  5.150208601E+02  5.150208601E+02  0.000000000E+00  0.00000E+00  9.000E+00
      21    -1     0     0   501   502  0.000000000E+00  0.000000000E+00 -4.111809989E+02  4.111809989E+02  0.000000000E+00  0.00000E+00  9.000E+00
      25     1     1     2     0     0  3.331226959E+02 -1.171967678E+02  6.971250469E+01  3.810389038E+02  1.250000000E+02  0.00000E+00  9.000E+00
      25     1     1     2     0     0 -4.169209183E+02  1.088685976E+02 -1.262801842E+01  4.488428349E+02  1.250000000E+02  0.00000E+00  9.000E+00
      21     1     1     2   512   502  8.379822232E+01  8.328170235E+00  4.675537492E+01  9.632012027E+01  1.784161275E-06  0.00000E+00  9.000E+00
#rwgt            1           1   2.8615314482455721E-002           8      321473           0
</event>
<event>
      5   9999  3.19816E-02  1.23917E+02 -1.00000E+00  1.19779E-01
      21    -1     0     0   502   501  0.000000000E+00  0.000000000E+00  5.560924862E+02  5.560924862E+02  0.000000000E+00  0.00000E+00  9.000E+00
      21    -1     0     0   511   502  0.000000000E+00  0.000000000E+00 -3.675187441E+02  3.675187441E+02  0.000000000E+00  0.00000E+00  9.000E+00
      25     1     1     2     0     0  2.344190568E+02 -2.075255380E+02  2.271951612E+02  4.065240268E+02  1.250000000E+02  0.00000E+00  9.000E+00
      25     1     1     2     0     0 -1.565659252E+02  3.039319765E+02  4.616805737E+01  3.669387208E+02  1.250000000E+02  0.00000E+00  9.000E+00
      21     1     1     2   511   501 -7.785313168E+01 -9.640643858E+01 -8.478947653E+01  1.501484827E+02  2.336015456E-06  0.00000E+00  9.000E+00
#rwgt            1           1   2.9215311052997392E-002           8      321570           0
</event>
<event>
      5   9999  3.19816E-02  3.26892E+02 -1.00000E+00  1.04395E-01
       2    -1     0     0   502     0  0.000000000E+00  0.000000000E+00  2.837868062E+03  2.837868062E+03  0.000000000E+00  0.00000E+00  9.000E+00
      21    -1     0     0   501   502  0.000000000E+00  0.000000000E+00 -2.625189205E+02  2.625189205E+02  0.000000000E+00  0.00000E+00  9.000E+00
      25     1     1     2     0     0  1.109395227E+02  2.174100324E+02 -6.187541543E+00  2.742954348E+02  1.250000000E+02  0.00000E+00  9.000E+00
      25     1     1     2     0     0 -1.739314009E+02 -5.381751108E+02  2.362811589E+03  2.432773764E+03  1.250000000E+02  0.00000E+00  9.000E+00
       2     1     1     2   501     0  6.299187821E+01  3.207650784E+02  2.187250944E+02  3.933177839E+02  0.000000000E+00  0.00000E+00  9.000E+00
#rwgt            1           1   3.0902010942179113E-002           8      321649           0
</event>
<event>
      5   9999  3.19816E-02  4.90385E+00 -1.00000E+00  2.44227E-01
      21    -1     0     0   502   511  0.000000000E+00  0.000000000E+00  1.973655610E+02  1.973655610E+02  0.000000000E+00  0.00000E+00  9.000E+00
      21    -1     0     0   501   502  0.000000000E+00  0.000000000E+00 -9.368901655E+02  9.368901655E+02  0.000000000E+00  0.00000E+00  9.000E+00
      25     1     1     2     0     0  2.649962428E+02  2.797941344E+02 -4.248546048E+02  5.870555353E+02  1.250000000E+02  0.00000E+00  9.000E+00
      25     1     1     2     0     0 -2.623716982E+02 -2.756517316E+02 -3.375377912E+02  5.238125101E+02  1.250000000E+02  0.00000E+00  9.000E+00
      21     1     1     2   501   511 -2.624544523E+00 -4.142402757E+00  2.286779160E+01  2.338768110E+01  0.000000000E+00  0.00000E+00  9.000E+00
#rwgt            1           1   3.1511798844198462E-002           8      321709           0
</event>
<event>
      5   9999  3.19816E-02  2.07654E+01 -1.00000E+00  1.65034E-01
      21    -1     0     0   512   501  0.000000000E+00  0.000000000E+00  9.676308882E+02  9.676308882E+02  0.000000000E+00  0.00000E+00  9.000E+00
      21    -1     0     0   501   502  0.000000000E+00  0.000000000E+00 -1.598927558E+03  1.598927558E+03  0.000000000E+00  0.00000E+00  9.000E+00
      25     1     1     2     0     0  7.742943047E+02 -8.407394156E+02 -1.905115211E+02  1.165458740E+03  1.250000000E+02  0.00000E+00  9.000E+00
      25     1     1     2     0     0 -7.545041458E+02  8.470285025E+02 -5.662211499E+02  1.273956507E+03  1.250000000E+02  0.00000E+00  9.000E+00
      21     1     1     2   512   502 -1.979015881E+01 -6.289086937E+00  1.254360008E+02  1.271431999E+02  1.348699152E-06  0.00000E+00  9.000E+00
#rwgt            1           1   3.0480524986489312E-002           8      321998           0
</event>
<event>
      5   9999  3.19816E-02  5.13286E+01 -1.00000E+00  1.38429E-01
      21    -1     0     0   502   501  0.000000000E+00  0.000000000E+00  1.637999118E+03  1.637999118E+03  0.000000000E+00  0.00000E+00  9.000E+00
       2    -1     0     0   501     0  0.000000000E+00  0.000000000E+00 -5.115157106E+02  5.115157106E+02  0.000000000E+00  0.00000E+00  9.000E+00
      25     1     1     2     0     0  1.664050606E+02  5.001911171E+02  1.403181053E+02  5.596391413E+02  1.250000000E+02  0.00000E+00  9.000E+00
      25     1     1     2     0     0 -1.273911541E+02 -5.335458087E+02  1.223712104E+03  1.346846669E+03  1.250000000E+02  0.00000E+00  9.000E+00
       2     1     1     2   502     0 -3.901390649E+01  3.335469165E+01 -2.375468023E+02  2.430290181E+02  4.672030912E-06  0.00000E+00  9.000E+00
#rwgt            1           1   3.5265420723846551E-002           8      322259           0
</event>
<event>
      5   9999  3.19816E-02  1.00109E+02 -1.00000E+00  1.23807E-01
      21    -1     0     0   502   501  0.000000000E+00  0.000000000E+00  2.631058720E+02  2.631058720E+02  0.000000000E+00  0.00000E+00  9.000E+00
      21    -1     0     0   501   511  0.000000000E+00  0.000000000E+00 -1.240536897E+03  1.240536897E+03  0.000000000E+00  0.00000E+00  9.000E+00
      25     1     1     2     0     0 -2.329485187E+02 -2.380220097E+02 -4.862181031E+01  3.590383961E+02  1.250000000E+02  0.00000E+00  9.000E+00
      25     1     1     2     0     0  1.943077831E+02  1.456707323E+02 -7.267122226E+01  2.826333019E+02  1.250000000E+02  0.00000E+00  9.000E+00
      21     1     1     2   502   511  3.864073560E+01  9.235127740E+01 -8.561379922E+02  8.619710706E+02  1.078959322E-05  0.00000E+00  9.000E+00
#rwgt            1           1   2.6294292209088077E-002           8      322378           0
</event>
<event>
      5   9999  3.19816E-02  1.16458E+02 -1.00000E+00  1.20923E-01
      21    -1     0     0   502   512  0.000000000E+00  0.000000000E+00  3.215498180E+02  3.215498180E+02  0.000000000E+00  0.00000E+00  9.000E+00
      21    -1     0     0   501   502  0.000000000E+00  0.000000000E+00 -6.890136149E+02  6.890136149E+02  0.000000000E+00  0.00000E+00  9.000E+00
      25     1     1     2     0     0  3.447458896E+02 -1.727234191E+02 -5.935728151E+01  4.096723017E+02  1.250000000E+02  0.00000E+00  9.000E+00
      25     1     1     2     0     0 -3.490441862E+02  5.634491413E+01 -3.066515968E+02  4.844241893E+02  1.250000000E+02  0.00000E+00  9.000E+00
      21     1     1     2   501   512  4.298296618E+00  1.163785050E+02 -1.454918550E+00  1.164669420E+02  2.659930317E-06  0.00000E+00  9.000E+00
#rwgt            1           1   2.8132440943975302E-002           8      322426           0
</event>
<event>
      5   9999  3.19816E-02  5.41850E+01 -1.00000E+00  1.37113E-01
      21    -1     0     0   502   501  0.000000000E+00  0.000000000E+00  2.931345296E+03  2.931345296E+03  0.000000000E+00  0.00000E+00  9.000E+00
      21    -1     0     0   511   502  0.000000000E+00  0.000000000E+00 -7.161786853E+01  7.161786853E+01  0.000000000E+00  0.00000E+00  9.000E+00
      25     1     1     2     0     0 -2.882422805E+02  8.267560126E+01  2.233542463E+03  2.257045813E+03  1.250000000E+02  0.00000E+00  9.000E+00
      25     1     1     2     0     0  2.409611176E+02 -1.091426436E+02  6.268088389E+02  6.917287744E+02  1.250000000E+02  0.00000E+00  9.000E+00
      21     1     1     2   511   501  4.728116293E+01  2.646704231E+01 -6.238743499E-01  5.418857735E+01  1.911244567E-06  0.00000E+00  9.000E+00
#rwgt            1           1   4.0377180877276909E-002           8      322543           0
</event>
<event>
      5   9999  3.19816E-02  8.48838E+01 -1.00000E+00  1.27116E-01
      21    -1     0     0   502   501  0.000000000E+00  0.000000000E+00  3.786256069E+02  3.786256069E+02  0.000000000E+00  0.00000E+00  9.000E+00
       3    -1     0     0   501     0  0.000000000E+00  0.000000000E+00 -6.162918130E+02  6.162918130E+02  0.000000000E+00  0.00000E+00  9.000E+00
      25     1     1     2     0     0 -1.361964473E+02  3.416891896E+01 -5.936302111E+01  1.971445043E+02  1.250000000E+02  0.00000E+00  9.000E+00
      25     1     1     2     0     0  1.855748761E+02  3.487472197E+01  2.637605995E+02  3.476333337E+02  1.250000000E+02  0.00000E+00  9.000E+00
       3     1     1     2   502     0 -4.937842877E+01 -6.904364093E+01 -4.420637845E+02  4.501395818E+02  9.344061824E-06  0.00000E+00  9.000E+00
#rwgt            1           1   3.0434251269312200E-002           8      322654           0
</event>
<event>
      5   9999  3.19816E-02  1.12931E+02 -1.00000E+00  1.21498E-01
      21    -1     0     0   502   511  0.000000000E+00  0.000000000E+00  1.435416859E+03  1.435416859E+03  0.000000000E+00  0.00000E+00  9.000E+00
      21    -1     0     0   501   502  0.000000000E+00  0.000000000E+00 -2.595468023E+02  2.595468023E+02  0.000000000E+00  0.00000E+00  9.000E+00
      25     1     1     2     0     0 -1.490818454E+02  2.422077832E+01  3.798478812E+02  4.274593028E+02  1.250000000E+02  0.00000E+00  9.000E+00
      25     1     1     2     0     0  2.040197652E+02  7.444618620E+01 -1.648979042E+02  2.999710286E+02  1.250000000E+02  0.00000E+00  9.000E+00
      21     1     1     2   501   511 -5.493791977E+01 -9.866696452E+01  9.609200801E+02  9.675333303E+02  1.078959322E-05  0.00000E+00  9.000E+00
#rwgt            1           1   2.8595465996685231E-002           8      322727           0
</event>
<event>
      5   9999  3.19816E-02  5.16104E+01 -1.00000E+00  1.38295E-01
      21    -1     0     0   512   501  0.000000000E+00  0.000000000E+00  5.266005425E+02  5.266005425E+02  0.000000000E+00  0.00000E+00  9.000E+00
      21    -1     0     0   501   502  0.000000000E+00  0.000000000E+00 -1.165766874E+03  1.165766874E+03  0.000000000E+00  0.00000E+00  9.000E+00
      25     1     1     2     0     0 -1.598109862E+02 -6.958141506E+02 -3.069717218E+01  7.254406936E+02  1.250000000E+02  0.00000E+00  9.000E+00
      25     1     1     2     0     0  1.247539101E+02  6.579375131E+02 -6.112272604E+02  9.152426307E+02  1.250000000E+02  0.00000E+00  9.000E+00
      21     1     1     2   512   502  3.505707614E+01  3.787663756E+01  2.758101046E+00  5.168409215E+01  5.161913656E-07  0.00000E+00  9.000E+00
#rwgt            1           1   2.7062547281101856E-002           8      322824           0
</event>
<event>
      5   9999  3.19816E-02  3.52171E+01 -1.00000E+00  1.48356E-01
       2    -1     0     0   502     0  0.000000000E+00  0.000000000E+00  1.436792731E+03  1.436792731E+03  0.000000000E+00  0.00000E+00  9.000E+00
      21    -1     0     0   501   502  0.000000000E+00  0.000000000E+00 -5.360285711E+01  5.360285711E+01  0.000000000E+00  0.00000E+00  9.000E+00
      25     1     1     2     0     0  1.469462268E+02  5.052360161E+00  2.076596360E+02  2.834894078E+02  1.250000000E+02  0.00000E+00  9.000E+00
      25     1     1     2     0     0 -1.798385291E+02 -1.763579717E+01  1.118510391E+03  1.139887456E+03  1.250000000E+02  0.00000E+00  9.000E+00
       2     1     1     2   501     0  3.289230229E+01  1.258343701E+01  5.701984621E+01  6.701872349E+01  9.536743164E-07  0.00000E+00  9.000E+00
#rwgt            1           1   2.7198625022631425E-002           8      322928           0
</event>
<event>
      5   9999  3.19816E-02  6.71465E+01 -1.00000E+00  1.32143E-01
      21    -1     0     0   502   501  0.000000000E+00  0.000000000E+00  3.148297080E+02  3.148297080E+02  0.000000000E+00  0.00000E+00  9.000E+00
      -3    -1     0     0     0   502  0.000000000E+00  0.000000000E+00 -6.002377691E+02  6.002377691E+02  0.000000000E+00  0.00000E+00  9.000E+00
      25     1     1     2     0     0  1.402031350E+02  1.845311297E+01  4.237505384E+00  1.887866333E+02  1.250000000E+02  0.00000E+00  9.000E+00
      25     1     1     2     0     0 -1.991773611E+02  1.365137661E+01  1.514944175E+02  2.800598861E+02  1.250000000E+02  0.00000E+00  9.000E+00
      -3     1     1     2     0   501  5.897422607E+01 -3.210448957E+01 -4.411399840E+02  4.462209577E+02  0.000000000E+00  0.00000E+00  9.000E+00
#rwgt            1           1   2.7391713523115396E-002           8      323043           0
</event>
<event>
      5   9999  3.19816E-02  2.77763E+02 -1.00000E+00  1.06690E-01
       2    -1     0     0   502     0  0.000000000E+00  0.000000000E+00  7.201678180E+02  7.201678180E+02  0.000000000E+00  0.00000E+00  9.000E+00
      21    -1     0     0   501   502  0.000000000E+00  0.000000000E+00 -2.583603100E+02  2.583603100E+02  0.000000000E+00  0.00000E+00  9.000E+00
      25     1     1     2     0     0 -2.950537390E+01  6.859713782E+01  7.280154981E+01  1.627918919E+02  1.250000000E+02  0.00000E+00  9.000E+00
      25     1     1     2     0     0  1.396833088E+02 -3.235736894E+02  3.867415658E+02  5.379641233E+02  1.250000000E+02  0.00000E+00  9.000E+00
       2     1     1     2   501     0 -1.101779349E+02  2.549765516E+02  2.264392491E+00  2.777721128E+02  3.405428846E-06  0.00000E+00  9.000E+00
#rwgt            2          18   2.6158234436010765E-004           8      323186           0
</event>
<event>
      5   9999  3.19816E-02  1.34808E+02 -1.00000E+00  1.18262E-01
      21    -1     0     0   502   501  0.000000000E+00  0.000000000E+00  2.271583278E+02  2.271583278E+02  0.000000000E+00  0.00000E+00  9.000E+00
      21    -1     0     0   501   511  0.000000000E+00  0.000000000E+00 -6.215844637E+02  6.215844637E+02  0.000000000E+00  0.00000E+00  9.000E+00
      25     1     1     2     0     0  7.917647302E+01  1.933358885E+02  9.956889914E+00  2.436633319E+02  1.250000000E+02  0.00000E+00  9.000E+00
      25     1     1     2     0     0 -2.135733183E+02 -1.828163542E+02 -3.297383872E+02  4.509853497E+02  1.250000000E+02  0.00000E+00  9.000E+00
      21     1     1     2   502   511  1.343968453E+02 -1.051953425E+01 -7.464463862E+01  1.540941099E+02  2.336015456E-06  0.00000E+00  9.000E+00
#rwgt            1           1   2.1926652338942698E-002           8      323220           0
</event>
<event>
      5   9999  3.19816E-02  1.24611E+01 -1.00000E+00  1.85323E-01
      21    -1     0     0   502   501  0.000000000E+00  0.000000000E+00  7.337061483E+02  7.337061483E+02  0.000000000E+00  0.00000E+00  9.000E+00
      21    -1     0     0   501   512  0.000000000E+00  0.000000000E+00 -2.197089457E+03  2.197089457E+03  0.000000000E+00  0.00000E+00  9.000E+00
      25     1     1     2     0     0 -9.965112220E+02  7.433812036E+02 -8.417678212E+02  1.506601571E+03  1.250000000E+02  0.00000E+00  9.000E+00
      25     1     1     2     0     0  9.913277943E+02 -7.320493635E+02 -5.565387478E+02  1.357934993E+03  1.250000000E+02  0.00000E+00  9.000E+00
      21     1     1     2   502   512  5.183427629E+00 -1.133184018E+01 -6.507673975E+01  6.625904150E+01  0.000000000E+00  0.00000E+00  9.000E+00
#rwgt            1           1   5.7449420193681794E-002           8      323282           0
</event>
<event>
      5   9999  3.19816E-02  1.19079E+01 -1.00000E+00  1.87381E-01
      21    -1     0     0   502   511  0.000000000E+00  0.000000000E+00  1.147744992E+03  1.147744992E+03  0.000000000E+00  0.00000E+00  9.000E+00
      21    -1     0     0   501   502  0.000000000E+00  0.000000000E+00 -4.812200598E+01  4.812200598E+01  0.000000000E+00  0.00000E+00  9.000E+00
      25     1     1     2     0     0  3.385682433E+01  1.859686264E+01  1.015584435E+03  1.023976988E+03  1.250000000E+02  0.00000E+00  9.000E+00
      25     1     1     2     0     0 -2.729221629E+01 -8.661878387E+00  5.320481117E+01  1.388367572E+02  1.250000000E+02  0.00000E+00  9.000E+00
      21     1     1     2   501   511 -6.564608042E+00 -9.934984251E+00  3.083373952E+01  3.305325224E+01  0.000000000E+00  0.00000E+00  9.000E+00
#rwgt            1           1   2.5744193835621890E-002           8      323614           0
</event>
<event>
      5   9999  3.19816E-02  1.43558E+02 -1.00000E+00  1.17154E-01
      21    -1     0     0   502   512  0.000000000E+00  0.000000000E+00  1.236983938E+03  1.236983938E+03  0.000000000E+00  0.00000E+00  9.000E+00
      21    -1     0     0   501   502  0.000000000E+00  0.000000000E+00 -2.464053922E+02  2.464053922E+02  0.000000000E+00  0.00000E+00  9.000E+00
      25     1     1     2     0     0  1.944194165E+02 -4.465237805E+02  4.057766311E+02  6.461130477E+02  1.250000000E+02  0.00000E+00  9.000E+00
      25     1     1     2     0     0 -1.308140487E+02  3.178256833E+02  1.796868331E+02  4.074774083E+02  1.250000000E+02  0.00000E+00  9.000E+00
      21     1     1     2   501   512 -6.360536775E+01  1.286980971E+02  4.051150818E+02  4.297988745E+02  5.394796609E-06  0.00000E+00  9.000E+00
#rwgt            1           1   2.8416505414437666E-002           8      323746           0
</event>
<event>
      5   9999  3.19816E-02  1.20474E+01 -1.00000E+00  1.86848E-01
       2    -1     0     0   502     0  0.000000000E+00  0.000000000E+00  1.856561988E+03  1.856561988E+03  0.000000000E+00  0.00000E+00  9.000E+00
      21    -1     0     0   501   502  0.000000000E+00  0.000000000E+00 -2.402953731E+02  2.402953731E+02  0.000000000E+00  0.00000E+00  9.000E+00
      25     1     1     2     0     0 -2.097363353E+02 -7.903815170E+01 -1.087428089E+02  2.787227265E+02  1.250000000E+02  0.00000E+00  9.000E+00
      25     1     1     2     0     0  2.014614074E+02  7.028220822E+01  2.819682540E+02  3.750431758E+02  1.250000000E+02  0.00000E+00  9.000E+00
       2     1     1     2   501     0  8.274927916E+00  8.755943484E+00  1.443041169E+03  1.443091459E+03  1.525878906E-05  0.00000E+00  9.000E+00
#rwgt            1           1   2.7342723312039723E-002           8      323792           0
</event>
<event>
      5   9999  3.19816E-02  2.06371E+01 -1.00000E+00  1.65253E-01
      21    -1     0     0   502   501  0.000000000E+00  0.000000000E+00  4.231100900E+02  4.231100900E+02  0.000000000E+00  0.00000E+00  9.000E+00
      21    -1     0     0   501   511  0.000000000E+00  0.000000000E+00 -2.412575344E+02  2.412575344E+02  0.000000000E+00  0.00000E+00  9.000E+00
      25     1     1     2     0     0 -2.207860943E+02 -1.452864666E+02  5.811268970E+01  2.980884793E+02  1.250000000E+02  0.00000E+00  9.000E+00
      25     1     1     2     0     0  2.043026890E+02  1.577036108E+02  1.571544849E+02  3.270054277E+02  1.250000000E+02  0.00000E+00  9.000E+00
      21     1     1     2   502   511  1.648340523E+01 -1.241714419E+01 -3.341461902E+01  3.927371744E+01  6.743495762E-07  0.00000E+00  9.000E+00
#rwgt            1           1   3.1467939559248460E-002           8      324010           0
</event>
<event>
      5   9999  3.19816E-02  7.85647E+01 -1.00000E+00  1.28731E-01
      21    -1     0     0   502   501  0.000000000E+00  0.000000000E+00  6.589985632E+02  6.589985632E+02  0.000000000E+00  0.00000E+00  9.000E+00
      21    -1     0     0   512   502  0.000000000E+00  0.000000000E+00 -2.260147998E+02  2.260147998E+02  0.000000000E+00  0.00000E+00  9.000E+00
      25     1     1     2     0     0  1.051819278E+02 -1.703926876E+02  4.710266119E+02  5.268661832E+02  1.250000000E+02  0.00000E+00  9.000E+00
      25     1     1     2     0     0 -1.601367768E+02  1.142466352E+02  5.184385601E+01  2.387652955E+02  1.250000000E+02  0.00000E+00  9.000E+00
      21     1     1     2   512   501  5.495484895E+01  5.614605238E+01 -8.988670460E+01  1.193818842E+02  2.132480600E-06  0.00000E+00  9.000E+00
#rwgt            1           1   2.9758542213069644E-002           8      324118           0
</event>
<event>
      5   9999  3.19816E-02  3.42253E+01 -1.00000E+00  1.49169E-01
      21    -1     0     0   502   501  0.000000000E+00  0.000000000E+00  1.801481592E+02  1.801481592E+02  0.000000000E+00  0.00000E+00  9.000E+00
      21    -1     0     0   511   502  0.000000000E+00  0.000000000E+00 -7.605647504E+02  7.605647504E+02  0.000000000E+00  0.00000E+00  9.000E+00
      25     1     1     2     0     0 -2.924009641E+02  2.691857097E+01 -1.348661929E+02  3.464633072E+02  1.250000000E+02  0.00000E+00  9.000E+00
      25     1     1     2     0     0  2.776262467E+02 -5.779056371E+01 -2.569595079E+02  4.025782791E+02  1.250000000E+02  0.00000E+00  9.000E+00
      21     1     1     2   511   501  1.477471744E+01  3.087199275E+01 -1.885908905E+02  1.916713233E+02  2.697398305E-06  0.00000E+00  9.000E+00
#rwgt            1           1   2.8973387916530730E-002           8      324227           0
</event>
<event>
      5   9999  3.19816E-02  1.24244E+02 -1.00000E+00  1.19731E-01
       2    -1     0     0   502     0  0.000000000E+00  0.000000000E+00  1.607436479E+03  1.607436479E+03  0.000000000E+00  0.00000E+00  9.000E+00
      21    -1     0     0   501   502  0.000000000E+00  0.000000000E+00 -6.698096170E+01  6.698096170E+01  0.000000000E+00  0.00000E+00  9.000E+00
      25     1     1     2     0     0  5.858969669E+00  2.198161670E+02  4.869267423E+02  5.487040433E+02  1.250000000E+02  0.00000E+00  9.000E+00
      25     1     1     2     0     0  1.040733463E+02 -1.619244089E+02  4.060791119E+02  4.664504483E+02  1.250000000E+02  0.00000E+00  9.000E+00
       2     1     1     2   501     0 -1.099323159E+02 -5.789175806E+01  6.474496630E+02  6.592629489E+02  7.629394531E-06  0.00000E+00  9.000E+00
#rwgt            1           1   2.6444685920639695E-002           8      324320           0
</event>
<event>
      5   9999  3.19816E-02  2.54109E+01 -1.00000E+00  1.58222E-01
      21    -1     0     0   502   511  0.000000000E+00  0.000000000E+00  1.120775925E+02  1.120775925E+02  0.000000000E+00  0.00000E+00  9.000E+00
      21    -1     0     0   501   502  0.000000000E+00  0.000000000E+00 -4.582115041E+02  4.582115041E+02  0.000000000E+00  0.00000E+00  9.000E+00
      25     1     1     2     0     0 -1.897791168E+00  7.513290654E+01 -2.853761175E+01  1.486201552E+02  1.250000000E+02  0.00000E+00  9.000E+00
      25     1     1     2     0     0 -2.054918198E+01 -8.704283266E+01 -3.489563659E+02  3.813060043E+02  1.250000000E+02  0.00000E+00  9.000E+00
      21     1     1     2   501   511  2.244697315E+01  1.190992612E+01  3.136006612E+01  4.036293709E+01  7.539457465E-07  0.00000E+00  9.000E+00
#rwgt            1           1   2.9021176962631220E-002           8      324393           0
</event>
<event>
      5   9999  3.19816E-02  1.21165E+02 -1.00000E+00  1.20190E-01
      21    -1     0     0   502   501  0.000000000E+00  0.000000000E+00  8.130352005E+02  8.130352005E+02  0.000000000E+00  0.00000E+00  9.000E+00
       1    -1     0     0   501     0  0.000000000E+00  0.000000000E+00 -1.209212391E+03  1.209212391E+03  0.000000000E+00  0.00000E+00  9.000E+00
      25     1     1     2     0     0 -1.615860251E+02 -2.139158762E+01  6.433960641E+02  6.753896200E+02  1.250000000E+02  0.00000E+00  9.000E+00
      25     1     1     2     0     0  2.719814927E+02  7.132940718E+01 -7.610379159E+00  3.078063264E+02  1.250000000E+02  0.00000E+00  9.000E+00
       1     1     1     2   502     0 -1.103954676E+02 -4.993781956E+01 -1.031962875E+03  1.039051645E+03  0.000000000E+00  0.00000E+00  9.000E+00
#rwgt            1           1   2.9260943074523510E-002           8      324471           0
</event>
<event>
      5   9999  3.19816E-02  1.47556E+01 -1.00000E+00  1.78058E-01
      21    -1     0     0   502   501  0.000000000E+00  0.000000000E+00  4.001071230E+02  4.001071230E+02  0.000000000E+00  0.00000E+00  9.000E+00
      21    -1     0     0   501   511  0.000000000E+00  0.000000000E+00 -2.936890426E+03  2.936890426E+03  0.000000000E+00  0.00000E+00  9.000E+00
      25     1     1     2     0     0  5.020614623E+02 -3.467273413E+02 -1.319139230E+03  1.458779925E+03  1.250000000E+02  0.00000E+00  9.000E+00
      25     1     1     2     0     0 -5.148738529E+02  3.540465508E+02  2.284109738E+01  6.376446975E+02  1.250000000E+02  0.00000E+00  9.000E+00
      21     1     1     2   502   511  1.281239062E+01 -7.319209413E+00 -1.240485171E+03  1.240572927E+03  2.157918644E-05  0.00000E+00  9.000E+00
#rwgt            1           1   2.8691220615141632E-002           8      324516           0
</event>
<event>
      5   9999  3.19816E-02  3.52141E+01 -1.00000E+00  1.48358E-01
      21    -1     0     0   502   501  0.000000000E+00  0.000000000E+00  7.504096311E+02  7.504096311E+02  0.000000000E+00  0.00000E+00  9.000E+00
      21    -1     0     0   512   502  0.000000000E+00  0.000000000E+00 -5.338857519E+02  5.338857519E+02  0.000000000E+00  0.00000E+00  9.000E+00
      25     1     1     2     0     0  2.785248381E+02  5.038828010E+02 -3.014747235E+01  5.899218869E+02  1.250000000E+02  0.00000E+00  9.000E+00
      25     1     1     2     0     0 -2.460270584E+02 -4.903207939E+02  2.944381158E+02  6.350296044E+02  1.250000000E+02  0.00000E+00  9.000E+00
      21     1     1     2   512   501 -3.249777964E+01 -1.356200711E+01 -4.776676421E+01  5.934389169E+01  1.168007728E-06  0.00000E+00  9.000E+00
#rwgt            1           1   3.0319797874845560E-002           8      324866           0
</event>
<event>
      5   9999  3.19816E-02  1.36173E+01 -1.00000E+00  1.81434E-01
      21    -1     0     0   502   511  0.000000000E+00  0.000000000E+00  3.165776380E+01  3.165776380E+01  0.000000000E+00  0.00000E+00  9.000E+00
      21    -1     0     0   501   502  0.000000000E+00  0.000000000E+00 -9.781067702E+02  9.781067702E+02  0.000000000E+00  0.00000E+00  9.000E+00
      25     1     1     2     0     0  4.860669622E+01 -6.855428621E+01 -2.364695591E+02  2.803661061E+02  1.250000000E+02  0.00000E+00  9.000E+00
      25     1     1     2     0     0 -4.099381168E+01  5.726375081E+01 -6.926789951E+02  7.073816650E+02  1.250000000E+02  0.00000E+00  9.000E+00
      21     1     1     2   501   511 -7.612884545E+00  1.129053541E+01 -1.730045224E+01  2.201676290E+01  4.129530925E-07  0.00000E+00  9.000E+00
#rwgt            1           1   2.9799989231627664E-002           8      325043           0
</event>
<event>
      5   9999  3.19816E-02  6.80523E+01 -1.00000E+00  1.31844E-01
      21    -1     0     0   502   501  0.000000000E+00  0.000000000E+00  5.218241136E+02  5.218241136E+02  0.000000000E+00  0.00000E+00  9.000E+00
      21    -1     0     0   512   502  0.000000000E+00  0.000000000E+00 -5.152155424E+02  5.152155424E+02  0.000000000E+00  0.00000E+00  9.000E+00
      25     1     1     2     0     0  2.449583138E+01 -2.486877057E+02 -2.936863043E+02  4.053668290E+02  1.250000000E+02  0.00000E+00  9.000E+00
      25     1     1     2     0     0 -5.178638937E+01  3.110282407E+02  3.914249433E+02  5.179371418E+02  1.250000000E+02  0.00000E+00  9.000E+00
      21     1     1     2   512   501  2.729055799E+01 -6.234053496E+01 -9.113006770E+01  1.137356852E+02  0.000000000E+00  0.00000E+00  9.000E+00
#rwgt            1           1   2.8916356662374226E-002           8      325184           0
</event>
<event>
      5   9999  3.19816E-02  2.02889E+01 -1.00000E+00  1.65857E-01
      21    -1     0     0   502   501  0.000000000E+00  0.000000000E+00  3.706752957E+02  3.706752957E+02  0.000000000E+00  0.00000E+00  9.000E+00
      21    -1     0     0   511   502  0.000000000E+00  0.000000000E+00 -2.114790097E+02  2.114790097E+02  0.000000000E+00  0.00000E+00  9.000E+00
      25     1     1     2     0     0  3.851721005E+01 -2.130522038E+02 -3.406728349E+01  2.523101203E+02  1.250000000E+02  0.00000E+00  9.000E+00
      25     1     1     2     0     0 -5.531532568E+01  2.016740063E+02  1.907030889E+02  3.093943409E+02  1.250000000E+02  0.00000E+00  9.000E+00
      21     1     1     2   511   501  1.679811564E+01  1.137819745E+01  2.560480493E+00  2.044984417E+01  3.650024150E-07  0.00000E+00  9.000E+00
#rwgt            1           1   2.7722959097139042E-002           8      325284           0
</event>
<event>
      5   9999  3.19816E-02  6.91741E+01 -1.00000E+00  1.31482E-01
      21    -1     0     0   502   501  0.000000000E+00  0.000000000E+00  3.083975739E+02  3.083975739E+02  0.000000000E+00  0.00000E+00  9.000E+00
      21    -1     0     0   512   502  0.000000000E+00  0.000000000E+00 -3.297122351E+03  3.297122351E+03  0.000000000E+00  0.00000E+00  9.000E+00
      25     1     1     2     0     0 -2.814240068E+02  2.763171716E+02 -4.119288285E+02  5.838330332E+02  1.250000000E+02  0.00000E+00  9.000E+00
      25     1     1     2     0     0  2.888567102E+02 -3.450908385E+02 -2.371386625E+01  4.676678664E+02  1.250000000E+02  0.00000E+00  9.000E+00
      21     1     1     2   512   501 -7.432703441E+00  6.877366688E+01 -2.553082082E+03  2.554019025E+03  3.051757812E-05  0.00000E+00  9.000E+00
#rwgt            1           1   2.6161984472257566E-002           8      325504           0
</event>
<event>
      5   9999  3.19816E-02  3.90661E+02 -1.00000E+00  1.01995E-01
      21    -1     0     0   511   501  0.000000000E+00  0.000000000E+00  8.386160016E+02  8.386160016E+02  0.000000000E+00  0.00000E+00  9.000E+00
      21    -1     0     0   501   502  0.000000000E+00  0.000000000E+00 -3.925696838E+02  3.925696838E+02  0.000000000E+00  0.00000E+00  9.000E+00
      25     1     1     2     0     0  2.084846314E+02  2.131842267E+02 -1.564970928E+02  3.592070379E+02  1.250000000E+02  0.00000E+00  9.000E+00
      25     1     1     2     0     0  1.693530007E+02 -1.139144581E+02  2.422694222E+02  3.405531024E+02  1.250000000E+02  0.00000E+00  9.000E+00
      21     1     1     2   511   502 -3.778376322E+02 -9.926976856E+01  3.602739884E+02  5.314255451E+02  5.394796609E-06  0.00000E+00  9.000E+00
#rwgt            1           1   2.4818586823990893E-002           8      325587           0
</event>
<event>
      5   9999  3.19816E-02  1.59213E+02 -1.00000E+00  1.15377E-01
      21    -1     0     0   502   501  0.000000000E+00  0.000000000E+00  1.337531459E+02  1.337531459E+02  0.000000000E+00  0.00000E+00  9.000E+00
       2    -1     0     0   501     0  0.000000000E+00  0.000000000E+00 -2.428627332E+03  2.428627332E+03  0.000000000E+00  0.00000E+00  9.000E+00
      25     1     1     2     0     0 -6.715076837E+01 -3.065265638E+02 -1.710039340E+03  1.743079833E+03  1.250000000E+02  0.00000E+00  9.000E+00
      25     1     1     2     0     0  1.693612318E+02  1.844537282E+02 -8.167402322E+01  2.915511117E+02  1.250000000E+02  0.00000E+00  9.000E+00
       2     1     1     2   502     0 -1.022104634E+02  1.220728355E+02 -5.031608226E+02  5.277495328E+02  5.394796609E-06  0.00000E+00  9.000E+00
#rwgt            1           1   2.5293588884826509E-002           8      325621           0
</event>
<event>
      5   9999  3.19816E-02  2.03477E+02 -1.00000E+00  1.11376E-01
       3    -1     0     0   502     0  0.000000000E+00  0.000000000E+00  4.363527486E+02  4.363527486E+02  0.000000000E+00  0.00000E+00  9.000E+00
      21    -1     0     0   501   502  0.000000000E+00  0.000000000E+00 -4.408778346E+02  4.408778346E+02  0.000000000E+00  0.00000E+00  9.000E+00
      25     1     1     2     0     0 -1.976315830E+02 -2.467192413E+02 -2.539265122E+02  4.243021332E+02  1.250000000E+02  0.00000E+00  9.000E+00
      25     1     1     2     0     0  8.557759186E+01  7.687586642E+01  1.493019806E+02  2.261625621E+02  1.250000000E+02  0.00000E+00  9.000E+00
       3     1     1     2   501     0  1.120539912E+02  1.698433749E+02  1.000994455E+02  2.267658879E+02  3.303624740E-06  0.00000E+00  9.000E+00
#rwgt            1           1   2.7136674961095515E-002           8      325681           0
</event>
<event>
      5   9999  3.19816E-02  9.68363E+01 -1.00000E+00  1.24459E-01
      21    -1     0     0   502   511  0.000000000E+00  0.000000000E+00  1.150755516E+03  1.150755516E+03  0.000000000E+00  0.00000E+00  9.000E+00
      21    -1     0     0   501   502  0.000000000E+00  0.000000000E+00 -1.990235243E+02  1.990235243E+02  0.000000000E+00  0.00000E+00  9.000E+00
      25     1     1     2     0     0  3.921806577E+01 -3.767628957E+02  1.410080087E+02  4.230798918E+02  1.250000000E+02  0.00000E+00  9.000E+00
      25     1     1     2     0     0 -4.339820098E+01  2.800168147E+02  4.065020730E+02  5.110398769E+02  1.250000000E+02  0.00000E+00  9.000E+00
      21     1     1     2   501   511  4.180135203E+00  9.674608106E+01  4.042219101E+02  4.156592719E+02  7.629394531E-06  0.00000E+00  9.000E+00
#rwgt            1           1   3.2798615593047094E-002           8      325743           0
</event>
<event>
      5   9999  3.19816E-02  1.08129E+02 -1.00000E+00  1.22320E-01
      21    -1     0     0   502   501  0.000000000E+00  0.000000000E+00  9.486912021E+02  9.486912021E+02  0.000000000E+00  0.00000E+00  9.000E+00
      21    -1     0     0   512   502  0.000000000E+00  0.000000000E+00 -1.249038877E+03  1.249038877E+03  0.000000000E+00  0.00000E+00  9.000E+00
      25     1     1     2     0     0  1.046841450E+02  5.513606356E+02 -5.172359062E+02  7.733791459E+02  1.250000000E+02  0.00000E+00  9.000E+00
      25     1     1     2     0     0 -6.650571375E+01 -6.525254578E+02  6.774910389E+02  9.512263615E+02  1.250000000E+02  0.00000E+00  9.000E+00
      21     1     1     2   512   501 -3.817843129E+01  1.011648222E+02 -4.606028081E+02  4.731245721E+02  7.629394531E-06  0.00000E+00  9.000E+00
#rwgt            1           1   3.5951359731415396E-002           8      325828           0
</event>
<event>
      5   9999  3.19816E-02  8.51223E+01 -1.00000E+00  1.27058E-01
      21    -1     0     0   502   501  0.000000000E+00  0.000000000E+00  2.304030156E+03  2.304030156E+03  0.000000000E+00  0.00000E+00  9.000E+00
      21    -1     0     0   501   511  0.000000000E+00  0.000000000E+00 -2.381368556E+02  2.381368556E+02  0.000000000E+00  0.00000E+00  9.000E+00
      25     1     1     2     0     0  7.460342335E+01  1.166693731E+02  3.692568862E+01  1.901733943E+02  1.250000000E+02  0.00000E+00  9.000E+00
      25     1     1     2     0     0 -4.437239927E+01 -1.962425397E+02  2.172361907E+03  2.185237126E+03  1.250000000E+02  0.00000E+00  9.000E+00
      21     1     1     2   502   511 -3.023102408E+01  7.957316656E+01 -1.433942947E+02  1.667564913E+02  4.672030912E-06  0.00000E+00  9.000E+00
#rwgt            1           1   2.4876719107524255E-002           8      325925           0
</event>
<event>
      5   9999  3.19816E-02  6.86646E+01 -1.00000E+00  1.31646E-01
      21    -1     0     0   502   501  0.000000000E+00  0.000000000E+00  2.547723878E+02  2.547723878E+02  0.000000000E+00  0.00000E+00  9.000E+00
       2    -1     0     0   501     0  0.000000000E+00  0.000000000E+00 -4.748330178E+02  4.748330178E+02  0.000000000E+00  0.00000E+00  9.000E+00
      25     1     1     2     0     0  1.470269984E+01  5.826164831E+01  1.543431942E+02  2.075027967E+02  1.250000000E+02  0.00000E+00  9.000E+00
      25     1     1     2     0     0 -8.232566680E+01 -4.634707564E+01 -1.636443052E+01  1.575384443E+02  1.250000000E+02  0.00000E+00  9.000E+00
       2     1     1     2   502     0  6.762296697E+01 -1.191457267E+01 -3.580393937E+02  3.645641646E+02  3.814697266E-06  0.00000E+00  9.000E+00
#rwgt            1           1   2.7467922997486613E-002           8      325973           0
</event>
<event>
      5   9999  3.19816E-02  8.28105E+00 -1.00000E+00  2.05729E-01
      21    -1     0     0   502   501  0.000000000E+00  0.000000000E+00  6.644092462E+02  6.644092462E+02  0.000000000E+00  0.00000E+00  9.000E+00
      21    -1     0     0   501   511  0.000000000E+00  0.000000000E+00 -9.041442563E+02  9.041442563E+02  0.000000000E+00  0.00000E+00  9.000E+00
      25     1     1     2     0     0 -2.908744716E+02 -4.689928739E+02  4.062164403E+02  6.965623234E+02  1.250000000E+02  0.00000E+00  9.000E+00
      25     1     1     2     0     0  2.991154415E+02  4.698066463E+02 -6.112909740E+02  8.363551801E+02  1.250000000E+02  0.00000E+00  9.000E+00
      21     1     1     2   502   511 -8.240969913E+00 -8.137724089E-01 -3.466047630E+01  3.563599904E+01  4.768371582E-07  0.00000E+00  9.000E+00
#rwgt            2          11   3.4444178620702992E-003           8      326062           0
</event>
<event>
      5   9999  3.19816E-02  3.05468E+01 -1.00000E+00  1.52497E-01
      21    -1     0     0   502   501  0.000000000E+00  0.000000000E+00  2.533243958E+01  2.533243958E+01  0.000000000E+00  0.00000E+00  9.000E+00
       2    -1     0     0   501     0  0.000000000E+00  0.000000000E+00 -2.050031118E+03  2.050031118E+03  0.000000000E+00  0.00000E+00  9.000E+00
      25     1     1     2     0     0 -2.696079132E+01 -8.623037687E+01 -5.474954511E+02  5.688047390E+02  1.250000000E+02  0.00000E+00  9.000E+00
      25     1     1     2     0     0 -2.682588189E-01  7.238527571E+01 -3.459701013E+02  3.749133381E+02  1.250000000E+02  0.00000E+00  9.000E+00
       2     1     1     2   502     0  2.722905014E+01  1.384510116E+01 -1.131233127E+03  1.131645481E+03  1.525878906E-05  0.00000E+00  9.000E+00
#rwgt            1           1   4.9944930475415913E-002           8      326082           0
</event>
<event>
      5   9999  3.19816E-02  4.50915E+01 -1.00000E+00  1.41685E-01
      21    -1     0     0   502   501  0.000000000E+00  0.000000000E+00  5.677812644E+02  5.677812644E+02  0.000000000E+00  0.00000E+00  9.000E+00
       3    -1     0     0   501     0  0.000000000E+00  0.000000000E+00 -3.445469188E+02  3.445469188E+02  0.000000000E+00  0.00000E+00  9.000E+00
      25     1     1     2     0     0 -2.311388912E+02 -3.278716037E+02  2.053622202E+02  4.676789679E+02  1.250000000E+02  0.00000E+00  9.000E+00
      25     1     1     2     0     0  2.018806397E+02  2.935612989E+02  6.074983805E+01  3.824259036E+02  1.250000000E+02  0.00000E+00  9.000E+00
       3     1     1     2   502     0  2.925825148E+01  3.431030478E+01 -4.287771260E+01  6.222331180E+01  8.259061849E-07  0.00000E+00  9.000E+00
#rwgt            1           1   2.8981292382332463E-002           8      326169           0
</event>
<event>
      5   9999  3.19816E-02  7.07978E+01 -1.00000E+00  1.30972E-01
      21    -1     0     0   502   501  0.000000000E+00  0.000000000E+00  6.586392303E+02  6.586392303E+02  0.000000000E+00  0.00000E+00  9.000E+00
      21    -1     0     0   511   502  0.000000000E+00  0.000000000E+00 -5.662086064E+02  5.662086064E+02  0.000000000E+00  0.00000E+00  9.000E+00
      25     1     1     2     0     0 -3.452764537E+02  1.273071465E+02 -3.856126691E+01  3.905571794E+02  1.250000000E+02  0.00000E+00  9.000E+00
      25     1     1     2     0     0  3.380358132E+02 -1.977337324E+02  3.894742448E+02  5.662879367E+02  1.250000000E+02  0.00000E+00  9.000E+00
      21     1     1     2   511   501  7.240640541E+00  7.042658583E+01 -2.584823541E+02  2.680027206E+02  3.814697266E-06  0.00000E+00  9.000E+00
#rwgt            1           1   3.0134123335304207E-002           8      326273           0
</event>
<event>
      5   9999  3.19816E-02  7.80004E+01 -1.00000E+00  1.28884E-01
      21    -1     0     0   502   501  0.000000000E+00  0.000000000E+00  3.375479156E+02  3.375479156E+02  0.000000000E+00  0.00000E+00  9.000E+00
      21    -1     0     0   512   502  0.000000000E+00  0.000000000E+00 -4.532129298E+02  4.532129298E+02  0.000000000E+00  0.00000E+00  9.000E+00
      25     1     1     2     0     0  1.002222508E+02  1.351460437E+02 -3.527233629E+02  4.103019905E+02  1.250000000E+02  0.00000E+00  9.000E+00
      25     1     1     2     0     0 -2.984267044E+01 -1.015191001E+02  2.524835129E+02  3.009478974E+02  1.250000000E+02  0.00000E+00  9.000E+00
      21     1     1     2   512   501 -7.037958040E+01 -3.362694352E+01 -1.542516423E+01  7.951095748E+01  1.369610464E-06  0.00000E+00  9.000E+00
#rwgt            1           1   2.8876465753141269E-002           8      326345           0
</event>
<event>
      5   9999  3.19816E-02  9.59774E+01 -1.00000E+00  1.24635E-01
      21    -1     0     0   502   501  0.000000000E+00  0.000000000E+00  1.940743412E+02  1.940743412E+02  0.000000000E+00  0.00000E+00  9.000E+00
      21    -1     0     0   511   502  0.000000000E+00  0.000000000E+00 -5.597181755E+02  5.597181755E+02  0.000000000E+00  0.00000E+00  9.000E+00
      25     1     1     2     0     0  1.110678051E+02 -1.710737113E+02 -1.268640955E+02  2.707799305E+02  1.250000000E+02  0.00000E+00  9.000E+00
      25     1     1     2     0     0 -1.594952104E+01  1.838866684E+02  2.934999836E+00  2.229401450E+02  1.250000000E+02  0.00000E+00  9.000E+00
      21     1     1     2   511   501 -9.511828403E+01 -1.281295715E+01 -2.417147386E+02  2.600724412E+02  0.000000000E+00  0.00000E+00  9.000E+00
#rwgt            1           1   2.6757882631733475E-002           8      326456           0
</event>
<event>
      5   9999  3.19816E-02  5.18738E+01 -1.00000E+00  1.38170E-01
      21    -1     0     0   512   501  0.000000000E+00  0.000000000E+00  3.895383463E+02  3.895383463E+02  0.000000000E+00  0.00000E+00  9.000E+00
      21    -1     0     0   501   502  0.000000000E+00  0.000000000E+00 -1.562445719E+02  1.562445719E+02  0.000000000E+00  0.00000E+00  9.000E+00
      25     1     1     2     0     0 -6.087738075E+01 -1.502159021E+01  2.622422856E+02  2.971997981E+02  1.250000000E+02  0.00000E+00  9.000E+00
      25     1     1     2     0     0  9.036386445E+00  1.317769859E+01 -9.981575920E+01  1.607591173E+02  1.250000000E+02  0.00000E+00  9.000E+00
      21     1     1     2   512   502  5.184099431E+01  1.843891622E+00  7.086724795E+01  8.782400275E+01  9.536743164E-07  0.00000E+00  9.000E+00
#rwgt            1           1   2.8138602316532486E-002           8      326484           0
</event>
<event>
      5   9999  3.19816E-02  2.14874E+01 -1.00000E+00  1.63839E-01
      21    -1     0     0   502   511  0.000000000E+00  0.000000000E+00  4.326567924E+01  4.326567924E+01  0.000000000E+00  0.00000E+00  9.000E+00
      21    -1     0     0   501   502  0.000000000E+00  0.000000000E+00 -3.478531592E+03  3.478531592E+03  0.000000000E+00  0.00000E+00  9.000E+00
      25     1     1     2     0     0  2.896335399E+02 -1.866731923E+02 -1.712448134E+03  1.751239012E+03  1.250000000E+02  0.00000E+00  9.000E+00
      25     1     1     2     0     0 -3.021967443E+02  2.041052055E+02 -1.659775470E+03  1.703954640E+03  1.250000000E+02  0.00000E+00  9.000E+00
      21     1     1     2   501   511  1.256320443E+01 -1.743201325E+01 -6.304230948E+01  6.660361834E+01  9.536743164E-07  0.00000E+00  9.000E+00
#rwgt            1           1   2.4121234386685737E-002           8      326548           0
</event>
<event>
      5   9999  3.19816E-02  1.29432E+02 -1.00000E+00  1.18990E-01
      21    -1     0     0   502   501  0.000000000E+00  0.000000000E+00  3.367498684E+02  3.367498684E+02  0.000000000E+00  0.00000E+00  9.000E+00
      21    -1     0     0   512   502  0.000000000E+00  0.000000000E+00 -8.211558934E+02  8.211558934E+02  0.000000000E+00  0.00000E+00  9.000E+00
      25     1     1     2     0     0 -3.289866197E+02  1.211675237E+02 -2.453752904E+02  4.458113927E+02  1.250000000E+02  0.00000E+00  9.000E+00
      25     1     1     2     0     0  3.509831539E+02  6.381296166E+00  6.810082066E+01  3.788041935E+02  1.250000000E+02  0.00000E+00  9.000E+00
      21     1     1     2   512   501 -2.199653417E+01 -1.275488198E+02 -3.071315552E+02  3.332901756E+02  5.394796609E-06  0.00000E+00  9.000E+00
#rwgt            2          11   2.5647959231945468E-003           8      326721           0
</event>
<event>
      5   9999  3.19816E-02  8.04717E+00 -1.00000E+00  2.07337E-01
       2    -1     0     0   502     0  0.000000000E+00  0.000000000E+00  4.204955941E+03  4.204955941E+03  0.000000000E+00  0.00000E+00  9.000E+00
      21    -1     0     0   501   502  0.000000000E+00  0.000000000E+00 -1.259230167E+02  1.259230167E+02  0.000000000E+00  0.00000E+00  9.000E+00
      25     1     1     2     0     0 -5.137004994E+01 -1.418407178E+02  2.594445673E+02  3.251063745E+02  1.250000000E+02  0.00000E+00  9.000E+00
      25     1     1     2     0     0  4.909514189E+01  1.341218012E+02  3.659402355E+00  1.898351435E+02  1.250000000E+02  0.00000E+00  9.000E+00
       2     1     1     2   501     0  2.274908059E+00  7.718916619E+00  3.815928954E+03  3.815937439E+03  6.103515625E-05  0.00000E+00  9.000E+00
#rwgt            1           1   3.2571705120291984E-002           8      326786           0
</event>
<event>
      5   9999  3.19816E-02  3.97897E+02 -1.00000E+00  1.01754E-01
      21    -1     0     0   511   501  0.000000000E+00  0.000000000E+00  7.678435224E+02  7.678435224E+02  0.000000000E+00  0.00000E+00  9.000E+00
      21    -1     0     0   501   502  0.000000000E+00  0.000000000E+00 -1.610015890E+03  1.610015890E+03  0.000000000E+00  0.00000E+00  9.000E+00
      25     1     1     2     0     0 -2.099859191E+02  4.924619446E-01 -8.033235741E+01  2.572403864E+02  1.250000000E+02  0.00000E+00  9.000E+00
      25     1     1     2     0     0 -7.985839879E+01  2.721109494E+02 -1.364059202E+03  1.398822447E+03  1.250000000E+02  0.00000E+00  9.000E+00
      21     1     1     2   511   502  2.898443179E+02 -2.726034113E+02  6.022191908E+02  7.217965796E+02  1.705984480E-05  0.00000E+00  9.000E+00
#rwgt            1           1   2.9064290135700815E-002           8      327069           0
</event>
<event>
      5   9999  3.19816E-02  4.01167E+01 -1.00000E+00  1.44762E-01
      21    -1     0     0   502   512  0.000000000E+00  0.000000000E+00  2.433461575E+02  2.433461575E+02  0.000000000E+00  0.00000E+00  9.000E+00
      21    -1     0     0   501   502  0.000000000E+00  0.000000000E+00 -1.306939256E+03  1.306939256E+03  0.000000000E+00  0.00000E+00  9.000E+00
      25     1     1     2     0     0 -4.188879975E+02 -9.774003180E+01 -7.400194063E+02  8.650283174E+02  1.250000000E+02  0.00000E+00  9.000E+00
      25     1     1     2     0     0  4.480802467E+02  1.252566659E+02 -3.816923700E+02  6.146374583E+02  1.250000000E+02  0.00000E+00  9.000E+00
      21     1     1     2   501   512 -2.919224921E+01 -2.751663409E+01  5.811867764E+01  7.061963789E+01  1.168007728E-06  0.00000E+00  9.000E+00
#rwgt            1           1   2.8016883578975551E-002           8      327122           0
</event>
<event>
      5   9999  3.19816E-02  1.17582E+02 -1.00000E+00  1.20745E-01
      21    -1     0     0   502   501  0.000000000E+00  0.000000000E+00  4.526654809E+02  4.526654809E+02  0.000000000E+00  0.00000E+00  9.000E+00
       1    -1     0     0   501     0  0.000000000E+00  0.000000000E+00 -4.336916668E+02  4.336916668E+02  0.000000000E+00  0.00000E+00  9.000E+00
      25     1     1     2     0     0  1.439118825E+02  1.930713367E+02  3.499613411E+02  4.428149854E+02  1.250000000E+02  0.00000E+00  9.000E+00
      25     1     1     2     0     0 -6.001263764E+01 -1.106909177E+02 -1.900400290E+02  2.599888624E+02  1.250000000E+02  0.00000E+00  9.000E+00
       1     1     1     2   502     0 -8.389924489E+01 -8.238041905E+01 -1.409474980E+02  1.835533000E+02  1.907348633E-06  0.00000E+00  9.000E+00
#rwgt            1           1   2.6280092160763682E-002           8      327256           0
</event>
<event>
      5   9999  3.19816E-02  1.21728E+02 -1.00000E+00  1.20105E-01
      21    -1     0     0   502   501  0.000000000E+00  0.000000000E+00  9.386679464E+02  9.386679464E+02  0.000000000E+00  0.00000E+00  9.000E+00
      21    -1     0     0   511   502  0.000000000E+00  0.000000000E+00 -7.035941294E+02  7.035941294E+02  0.000000000E+00  0.00000E+00  9.000E+00
      25     1     1     2     0     0 -2.224768583E+02 -7.981810511E+01  3.377015761E+02  4.307368534E+02  1.250000000E+02  0.00000E+00  9.000E+00
      25     1     1     2     0     0  3.119935949E+02 -2.671628723E+00  4.968241947E+02  5.998386628E+02  1.250000000E+02  0.00000E+00  9.000E+00
      21     1     1     2   511   501 -8.951673669E+01  8.248973383E+01 -5.994519539E+02  6.116865597E+02  7.629394531E-06  0.00000E+00  9.000E+00
#rwgt            1           1   2.8304204953007686E-002           8      327341           0
</event>
<event>
      5   9999  3.19816E-02  1.73954E+02 -1.00000E+00  1.13899E-01
      21    -1     0     0   512   501  0.000000000E+00  0.000000000E+00  1.103227181E+03  1.103227181E+03  0.000000000E+00  0.00000E+00  9.000E+00
      21    -1     0     0   501   502  0.000000000E+00  0.000000000E+00 -2.122848090E+02  2.122848090E+02  0.000000000E+00  0.00000E+00  9.000E+00
      25     1     1     2     0     0 -7.614061608E+01 -3.007626453E+02  2.225011913E+02  4.017304349E+02  1.250000000E+02  0.00000E+00  9.000E+00
      25     1     1     2     0     0  2.404055109E+02  3.580065498E+02  4.742473135E+02  6.530689195E+02  1.250000000E+02  0.00000E+00  9.000E+00
      21     1     1     2   512   502 -1.642648948E+02 -5.724390448E+01  1.941938671E+02  2.607126355E+02  4.672030912E-06  0.00000E+00  9.000E+00
#rwgt            2          11   4.0016798370161250E-003           8      327554           0
</event>
<event>
      5   9999  3.19816E-02  6.04005E+01 -1.00000E+00  1.34549E-01
       2    -1     0     0   502     0  0.000000000E+00  0.000000000E+00  8.249999251E+02  8.249999251E+02  0.000000000E+00  0.00000E+00  9.000E+00
      21    -1     0     0   501   502  0.000000000E+00  0.000000000E+00 -3.818262100E+02  3.818262100E+02  0.000000000E+00  0.00000E+00  9.000E+00
      25     1     1     2     0     0 -3.303276945E+02 -2.973793893E+02  1.980217832E+01  4.621341939E+02  1.250000000E+02  0.00000E+00  9.000E+00
      25     1     1     2     0     0  3.865334731E+02  2.752631295E+02  2.296925492E+02  5.418132367E+02  1.250000000E+02  0.00000E+00  9.000E+00
       2     1     1     2   501     0 -5.620577863E+01  2.211625981E+01  1.936789876E+02  2.028787045E+02  2.697398305E-06  0.00000E+00  9.000E+00
#rwgt            1           1   2.6850894873972832E-002           8      327574           0
</event>
<event>
      5   9999  3.19816E-02  3.14616E+01 -1.00000E+00  1.51619E-01
      21    -1     0     0   502   501  0.000000000E+00  0.000000000E+00  7.203976811E+02  7.203976811E+02  0.000000000E+00  0.00000E+00  9.000E+00
      21    -1     0     0   511   502  0.000000000E+00  0.000000000E+00 -1.340557364E+02  1.340557364E+02  0.000000000E+00  0.00000E+00  9.000E+00
      25     1     1     2     0     0  1.383392812E+02  1.868507394E+02  2.822463007E+02  3.864439543E+02  1.250000000E+02  0.00000E+00  9.000E+00
      25     1     1     2     0     0 -1.644730305E+02 -2.043681824E+02  3.204206447E+02  4.325645863E+02  1.250000000E+02  0.00000E+00  9.000E+00
      21     1     1     2   511   501  2.613374927E+01  1.751744298E+01 -1.632500062E+01  3.544487699E+01  4.129530925E-07  0.00000E+00  9.000E+00
#rwgt            1           1   2.7327511883176996E-002           8      327650           0
</event>
<event>
      5   9999  3.19816E-02  1.38266E+01 -1.00000E+00  1.80782E-01
      21    -1     0     0   512   501  0.000000000E+00  0.000000000E+00  1.053016443E+02  1.053016443E+02  0.000000000E+00  0.00000E+00  9.000E+00
      21    -1     0     0   501   502  0.000000000E+00  0.000000000E+00 -8.915289796E+02  8.915289796E+02  0.000000000E+00  0.00000E+00  9.000E+00
      25     1     1     2     0     0 -1.498208572E+02  6.583528006E+01 -3.840657800E+02  4.357890507E+02  1.250000000E+02  0.00000E+00  9.000E+00
      25     1     1     2     0     0  1.491330376E+02 -7.964479442E+01 -4.577655727E+02  5.037442563E+02  1.250000000E+02  0.00000E+00  9.000E+00
      21     1     1     2   512   502  6.878196346E-01  1.380951436E+01  5.560401741E+01  5.729731699E+01  1.651812370E-06  0.00000E+00  9.000E+00
#rwgt            1           1   3.0841653383460631E-002           8      327768           0
</event>
<event>
      5   9999  3.19816E-02  1.17670E+02 -1.00000E+00  1.20731E-01
      21    -1     0     0   502   501  0.000000000E+00  0.000000000E+00  6.051685448E+01  6.051685448E+01  0.000000000E+00  0.00000E+00  9.000E+00
       1    -1     0     0   501     0  0.000000000E+00  0.000000000E+00 -2.635265658E+03  2.635265658E+03  0.000000000E+00  0.00000E+00  9.000E+00
      25     1     1     2     0     0  3.289008324E+02 -2.316738190E+01 -8.331571007E+02  9.047033986E+02  1.250000000E+02  0.00000E+00  9.000E+00
      25     1     1     2     0     0 -2.174765993E+02  6.099453644E+01 -7.640866413E+02  8.065170799E+02  1.250000000E+02  0.00000E+00  9.000E+00
       1     1     1     2   502     0 -1.114242331E+02 -3.782715454E+01 -9.775050611E+02  9.845620335E+02  1.525878906E-05  0.00000E+00  9.000E+00
#rwgt            1           1   3.6274327160717171E-002           8      327918           0
</event>
<event>
      5   9999  3.19816E-02  4.78615E+01 -1.00000E+00  1.40167E-01
      21    -1     0     0   511   501  0.000000000E+00  0.000000000E+00  9.757868834E+02  9.757868834E+02  0.000000000E+00  0.00000E+00  9.000E+00
      21    -1     0     0   501   502  0.000000000E+00  0.000000000E+00 -1.390359556E+03  1.390359556E+03  0.000000000E+00  0.00000E+00  9.000E+00
      25     1     1     2     0     0  8.960720518E+02 -6.662823028E+02  2.521328314E+01  1.123894096E+03  1.250000000E+02  0.00000E+00  9.000E+00
      25     1     1     2     0     0 -8.929316118E+02  6.185239750E+02 -4.649826851E+02  1.188163570E+03  1.250000000E+02  0.00000E+00  9.000E+00
      21     1     1     2   511   502 -3.140440052E+00  4.775832786E+01  2.519672958E+01  5.408877356E+01  3.371747881E-07  0.00000E+00  9.000E+00
#rwgt            1           1   3.0102082567896513E-002           8      327978           0
</event>
<event>
      5   9999  3.19816E-02  2.58024E+02 -1.00000E+00  1.07764E-01
      -1    -1     0     0     0   501  0.000000000E+00  0.000000000E+00  4.028313895E+02  4.028313895E+02  0.000000000E+00  0.00000E+00  9.000E+00
      21    -1     0     0   501   502  0.000000000E+00  0.000000000E+00 -4.073447867E+02  4.073447867E+02  0.000000000E+00  0.00000E+00  9.000E+00
      25     1     1     2     0     0 -1.733904167E+02 -9.255534525E+01 -8.159373419E+01  2.468061304E+02  1.250000000E+02  0.00000E+00  9.000E+00
      25     1     1     2     0     0 -8.226386393E+01  1.274426754E+02 -1.273260046E+02  2.341919944E+02  1.250000000E+02  0.00000E+00  9.000E+00
      -1     1     1     2     0   502  2.556542806E+02 -3.488733011E+01  2.044063416E+02  3.291780513E+02  6.031565972E-06  0.00000E+00  9.000E+00
#rwgt            1           1   2.4736177195094362E-002           8      328264           0
</event>
<event>
      5   9999  3.19816E-02  2.42949E+01 -1.00000E+00  1.59687E-01
      21    -1     0     0   511   501  0.000000000E+00  0.000000000E+00  1.658806224E+02  1.658806224E+02  0.000000000E+00  0.00000E+00  9.000E+00
      21    -1     0     0   501   502  0.000000000E+00  0.000000000E+00 -3.315414879E+02  3.315414879E+02  0.000000000E+00  0.00000E+00  9.000E+00
      25     1     1     2     0     0  1.152401984E+02 -1.757945677E+01 -5.145112575E+01  1.784980643E+02  1.250000000E+02  0.00000E+00  9.000E+00
      25     1     1     2     0     0 -1.355950597E+02  4.315941161E+00 -1.744962335E+02  2.539263340E+02  1.250000000E+02  0.00000E+00  9.000E+00
      21     1     1     2   511   502  2.035486134E+01  1.326351561E+01  6.028649378E+01  6.499771195E+01  9.536743164E-07  0.00000E+00  9.000E+00
#rwgt            1           1   2.7727107478324617E-002           8      328291           0
</event>
<event>
      5   9999  3.19816E-02  1.00306E+02 -1.00000E+00  1.23768E-01
      21    -1     0     0   502   501  0.000000000E+00  0.000000000E+00  2.653854125E+02  2.653854125E+02  0.000000000E+00  0.00000E+00  9.000E+00
      21    -1     0     0   512   502  0.000000000E+00  0.000000000E+00 -2.039059213E+02  2.039059213E+02  0.000000000E+00  0.00000E+00  9.000E+00
      25     1     1     2     0     0 -4.732476949E+01 -8.729504695E+01 -2.264712145E+01  1.612388016E+02  1.250000000E+02  0.00000E+00  9.000E+00
      25     1     1     2     0     0  1.327681625E+02  3.475250117E+01  9.248820919E+01  2.073986262E+02  1.250000000E+02  0.00000E+00  9.000E+00
      21     1     1     2   512   501 -8.544339296E+01  5.254254578E+01 -8.361596533E+00  1.006539061E+02  1.630162517E-06  0.00000E+00  9.000E+00
#rwgt            1           1   2.4059976891843443E-002           8      328447           0
</event>
<event>
      5   9999  3.19816E-02  2.72892E+02 -1.00000E+00  1.06946E-01
      21    -1     0     0   502   501  0.000000000E+00  0.000000000E+00  8.422981863E+02  8.422981863E+02  0.000000000E+00  0.00000E+00  9.000E+00
      21    -1     0     0   511   502  0.000000000E+00  0.000000000E+00 -8.187991932E+02  8.187991932E+02  0.000000000E+00  0.00000E+00  9.000E+00
      25     1     1     2     0     0 -6.888195826E+02  4.797440850E-01  3.706661535E+02  7.921433234E+02  1.250000000E+02  0.00000E+00  9.000E+00
      25     1     1     2     0     0  4.544400431E+02  1.392934563E+02 -1.016506507E+02  5.018727673E+02  1.250000000E+02  0.00000E+00  9.000E+00
      21     1     1     2   511   501  2.343795395E+02 -1.397732003E+02 -2.455165098E+02  3.670812888E+02  3.814697266E-06  0.00000E+00  9.000E+00
#rwgt            2          11   3.8504217596638220E-003           8      328568           0
</event>
<event>
      5   9999  3.19816E-02  3.00934E+01 -1.00000E+00  1.52946E-01
      21    -1     0     0   502   501  0.000000000E+00  0.000000000E+00  5.647548660E+02  5.647548660E+02  0.000000000E+00  0.00000E+00  9.000E+00
      21    -1     0     0   512   502  0.000000000E+00  0.000000000E+00 -4.819142809E+02  4.819142809E+02  0.000000000E+00  0.00000E+00  9.000E+00
      25     1     1     2     0     0 -2.210246200E+02  1.384914676E+01 -8.883383663E+01  2.693698796E+02  1.250000000E+02  0.00000E+00  9.000E+00
      25     1     1     2     0     0  1.956239137E+02 -2.998665732E+01  4.447402818E+02  5.025801762E+02  1.250000000E+02  0.00000E+00  9.000E+00
      21     1     1     2   512   501  2.540070624E+01  1.613751056E+01 -2.730658600E+02  2.747190911E+02  7.629394531E-06  0.00000E+00  9.000E+00
#rwgt            1           1   3.0443594384849504E-002           8      328588           0
</event>
<event>
      5   9999  3.19816E-02  2.80358E+02 -1.00000E+00  1.06556E-01
      21    -1     0     0   502   501  0.000000000E+00  0.000000000E+00  2.047807937E+02  2.047807937E+02  0.000000000E+00  0.00000E+00  9.000E+00
      21    -1     0     0   501   511  0.000000000E+00  0.000000000E+00 -1.129237701E+03  1.129237701E+03  0.000000000E+00  0.00000E+00  9.000E+00
      25     1     1     2     0     0 -2.451292386E+02 -1.433398978E+02 -1.290359111E+02  3.360207378E+02  1.250000000E+02  0.00000E+00  9.000E+00
      25     1     1     2     0     0  2.217646579E+02 -1.360426355E+02 -2.382469644E+02  3.742643160E+02  1.250000000E+02  0.00000E+00  9.000E+00
      21     1     1     2   502   511  2.336458072E+01  2.793825333E+02 -5.571740315E+02  6.237334407E+02  1.078959322E-05  0.00000E+00  9.000E+00
#rwgt            1           1   2.6944322448519738E-002           8      328700           0
</event>
<event>
      5   9999  3.19816E-02  1.36151E+02 -1.00000E+00  1.18086E-01
       1    -1     0     0   502     0  0.000000000E+00  0.000000000E+00  1.349452475E+03  1.349452475E+03  0.000000000E+00  0.00000E+00  9.000E+00
      21    -1     0     0   501   502  0.000000000E+00  0.000000000E+00 -4.542677680E+02  4.542677680E+02  0.000000000E+00  0.00000E+00  9.000E+00
      25     1     1     2     0     0 -6.325548448E+02 -3.788931396E+01  3.182362495E+02  7.200420420E+02  1.250000000E+02  0.00000E+00  9.000E+00
      25     1     1     2     0     0  5.977989056E+02 -9.375063205E+01  6.756030398E+02  9.155420143E+02  1.250000000E+02  0.00000E+00  9.000E+00
       1     1     1     2   501     0  3.475593921E+01  1.316399460E+02 -9.865458231E+01  1.681361868E+02  1.907348633E-06  0.00000E+00  9.000E+00
#rwgt            1           1   3.0760513212103765E-002           8      328746           0
</event>
<event>
      5   9999  3.19816E-02  1.86294E+02 -1.00000E+00  1.12782E-01
      -1    -1     0     0     0   501  0.000000000E+00  0.000000000E+00  7.474803107E+02  7.474803107E+02  0.000000000E+00  0.00000E+00  9.000E+00
      21    -1     0     0   501   502  0.000000000E+00  0.000000000E+00 -8.030061583E+02  8.030061583E+02  0.000000000E+00  0.00000E+00  9.000E+00
      25     1     1     2     0     0 -8.271404841E+01 -3.029342403E+02 -6.472683880E+02  7.302000642E+02  1.250000000E+02  0.00000E+00  9.000E+00
      25     1     1     2     0     0  5.532464200E+01  1.186648781E+02 -1.876588965E+01  1.819871642E+02  1.250000000E+02  0.00000E+00  9.000E+00
      -1     1     1     2     0   502  2.738940641E+01  1.842693621E+02  6.105084301E+02  6.382992406E+02  7.629394531E-06  0.00000E+00  9.000E+00
#rwgt            1           1   2.6971956445479575E-002           8      328853           0
</event>
<event>
      5   9999  3.19816E-02  2.00243E+02 -1.00000E+00  1.11629E-01
      21    -1     0     0   502   501  0.000000000E+00  0.000000000E+00  2.398145860E+03  2.398145860E+03  0.000000000E+00  0.00000E+00  9.000E+00
      21    -1     0     0   511   502  0.000000000E+00  0.000000000E+00 -2.653420788E+02  2.653420788E+02  0.000000000E+00  0.00000E+00  9.000E+00
      25     1     1     2     0     0  5.796060271E+01 -5.548306588E+02  1.876000072E+03  1.961172547E+03  1.250000000E+02  0.00000E+00  9.000E+00
      25     1     1     2     0     0  7.408184962E+01  4.042911523E+02  8.383973289E+01  4.377140129E+02  1.250000000E+02  0.00000E+00  9.000E+00
      21     1     1     2   511   501 -1.320424523E+02  1.505395064E+02  1.729639762E+02  2.646013781E+02  0.000000000E+00  0.00000E+00  9.000E+00
#rwgt            1           1   3.0245377069298810E-002           8      328922           0
</event>
<event>
      5   9999  3.19816E-02  4.70977E+01 -1.00000E+00  1.40574E-01
      21    -1     0     0   512   501  0.000000000E+00  0.000000000E+00  6.057631219E+01  6.057631219E+01  0.000000000E+00  0.00000E+00  9.000E+00
      21    -1     0     0   501   502  0.000000000E+00  0.000000000E+00 -1.092171786E+03  1.092171786E+03  0.000000000E+00  0.00000E+00  9.000E+00
      25     1     1     2     0     0 -5.291893620E+01 -2.432815062E+01 -9.160768323E+01  1.655573627E+02  1.250000000E+02  0.00000E+00  9.000E+00
      25     1     1     2     0     0  9.882844776E+01  3.484062337E+01 -9.227216659E+02  9.370278565E+02  1.250000000E+02  0.00000E+00  9.000E+00
      21     1     1     2   512   502 -4.590951155E+01 -1.051247275E+01 -1.726612419E+01  5.016287850E+01  4.129530925E-07  0.00000E+00  9.000E+00
#rwgt            1           1   3.2087878844562254E-002           8      328973           0
</event>
<event>
      5   9999  3.19816E-02  2.13936E+02 -1.00000E+00  1.10593E-01
      21    -1     0     0   502   501  0.000000000E+00  0.000000000E+00  2.004296019E+03  2.004296019E+03  0.000000000E+00  0.00000E+00  9.000E+00
      21    -1     0     0   501   511  0.000000000E+00  0.000000000E+00 -2.186909980E+02  2.186909980E+02  0.000000000E+00  0.00000E+00  9.000E+00
      25     1     1     2     0     0  2.326804527E+02 -1.186693812E+01  1.985991177E+02  3.306775269E+02  1.250000000E+02  0.00000E+00  9.000E+00
      25     1     1     2     0     0 -2.717895294E+02 -1.984643348E+02  1.634251292E+03  1.673218433E+03  1.250000000E+02  0.00000E+00  9.000E+00
      21     1     1     2   502   511  3.910907674E+01  2.103312729E+02 -4.724538887E+01  2.190910564E+02  3.932099939E-06  0.00000E+00  9.000E+00
#rwgt            2          11   5.1678652376291392E-003           8      329084           0
</event>
<event>
      5   9999  3.19816E-02  1.82621E+01 -1.00000E+00  1.69694E-01
      21    -1     0     0   502   501  0.000000000E+00  0.000000000E+00  1.156599304E+02  1.156599304E+02  0.000000000E+00  0.00000E+00  9.000E+00
      21    -1     0     0   512   502  0.000000000E+00  0.000000000E+00 -2.553904080E+02  2.553904080E+02  0.000000000E+00  0.00000E+00  9.000E+00
      25     1     1     2     0     0 -7.436408557E+01  6.996560936E+00 -1.322350098E+02  1.966979077E+02  1.250000000E+02  0.00000E+00  9.000E+00
      25     1     1     2     0     0  7.013806618E+01 -2.476298088E+01  1.402121472E+01  1.461305855E+02  1.250000000E+02  0.00000E+00  9.000E+00
      21     1     1     2   512   501  4.226019391E+00  1.776641994E+01 -2.151668248E+01  2.822184513E+01  4.768371582E-07  0.00000E+00  9.000E+00
#rwgt            1           1   1.8453202405744683E-002           8      329119           0
</event>
<event>
      5   9999  3.19816E-02  6.88359E+01 -1.00000E+00  1.31591E-01
      21    -1     0     0   502   501  0.000000000E+00  0.000000000E+00  2.200115696E+02  2.200115696E+02  0.000000000E+00  0.00000E+00  9.000E+00
      -1    -1     0     0     0   502  0.000000000E+00  0.000000000E+00 -3.121116605E+02  3.121116605E+02  0.000000000E+00  0.00000E+00  9.000E+00
      25     1     1     2     0     0  1.011238593E+02 -1.275277482E+02  7.645165488E+01  2.189959292E+02  1.250000000E+02  0.00000E+00  9.000E+00
      25     1     1     2     0     0 -3.803290203E+01  9.999742599E+01 -4.318508379E+01  1.701056681E+02  1.250000000E+02  0.00000E+00  9.000E+00
      -1     1     1     2     0   501 -6.309095728E+01  2.753032221E+01 -1.253666619E+02  1.430216328E+02  1.348699152E-06  0.00000E+00  9.000E+00
#rwgt            1           1   3.4110365151086793E-002           8      329241           0
</event>
<event>
      5   9999  3.19816E-02  1.73115E+02 -1.00000E+00  1.13979E-01
      21    -1     0     0   502   511  0.000000000E+00  0.000000000E+00  6.078457179E+02  6.078457179E+02  0.000000000E+00  0.00000E+00  9.000E+00
      21    -1     0     0   501   502  0.000000000E+00  0.000000000E+00 -4.752099019E+02  4.752099019E+02  0.000000000E+00  0.00000E+00  9.000E+00
      25     1     1     2     0     0  1.373828774E+02 -1.437896183E+02 -1.659896927E+02  2.876231691E+02  1.250000000E+02  0.00000E+00  9.000E+00
      25     1     1     2     0     0 -1.745129336E+02 -2.529662536E+01 -1.832697391E+02  2.833857451E+02  1.250000000E+02  0.00000E+00  9.000E+00
      21     1     1     2   501   511  3.713005617E+01  1.690862436E+02  4.818952478E+02  5.120467056E+02  7.629394531E-06  0.00000E+00  9.000E+00
#rwgt            2          11   5.5314465280326998E-003           8      329343           0
</event>
<event>
      5   9999  3.19816E-02  1.22204E+02 -1.00000E+00  1.20034E-01
      21    -1     0     0   502   512  0.000000000E+00  0.000000000E+00  1.146432354E+03  1.146432354E+03  0.000000000E+00  0.00000E+00  9.000E+00
      21    -1     0     0   501   502  0.000000000E+00  0.000000000E+00 -6.243308577E+02  6.243308577E+02  0.000000000E+00  0.00000E+00  9.000E+00
      25     1     1     2     0     0  6.028084276E+02 -1.840071527E+02 -1.534941629E+02  6.606225024E+02  1.250000000E+02  0.00000E+00  9.000E+00
      25     1     1     2     0     0 -5.343384098E+02  2.852285068E+02  2.495462860E+02  6.669116779E+02  1.250000000E+02  0.00000E+00  9.000E+00
      21     1     1     2   501   512 -6.847001782E+01 -1.012213540E+02  4.260493736E+02  4.432290317E+02  5.394796609E-06  0.00000E+00  9.000E+00
#rwgt            1           1   2.4347624114550308E-002           8      329363           0
</event>
<event>
      5   9999  3.19816E-02  1.63850E+01 -1.00000E+00  1.73845E-01
      21    -1     0     0   511   501  0.000000000E+00  0.000000000E+00  1.085821702E+03  1.085821702E+03  0.000000000E+00  0.00000E+00  9.000E+00
      21    -1     0     0   501   502  0.000000000E+00  0.000000000E+00 -5.365394043E+02  5.365394043E+02  0.000000000E+00  0.00000E+00  9.000E+00
      25     1     1     2     0     0  8.093534510E+01 -5.885513223E+01 -8.816978408E+01  1.827932370E+02  1.250000000E+02  0.00000E+00  9.000E+00
      25     1     1     2     0     0 -9.614216972E+01  5.275416776E+01 -3.837528610E+02  4.182314877E+02  1.250000000E+02  0.00000E+00  9.000E+00
      21     1     1     2   511   502  1.520682462E+01  6.100964469E+00  1.021204942E+03  1.021336381E+03  1.078959322E-05  0.00000E+00  9.000E+00
#rwgt            1           1   3.2690593893084444E-002           8      329440           0
</event>
<event>
      5   9999  3.19816E-02  1.26468E+01 -1.00000E+00  1.84662E-01
      21    -1     0     0   512   501  0.000000000E+00  0.000000000E+00  3.313972287E+01  3.313972287E+01  0.000000000E+00  0.00000E+00  9.000E+00
      21    -1     0     0   501   502  0.000000000E+00  0.000000000E+00 -3.921627050E+03  3.921627050E+03  0.000000000E+00  0.00000E+00  9.000E+00
      25     1     1     2     0     0 -8.958366717E+00 -2.145495520E+02 -1.506495860E+03  1.526848564E+03  1.250000000E+02  0.00000E+00  9.000E+00
      25     1     1     2     0     0  1.792672094E+01  2.234664153E+02 -2.395616622E+03  2.409328248E+03  1.250000000E+02  0.00000E+00  9.000E+00
      21     1     1     2   512   502 -8.968354226E+00 -8.916863313E+00  1.362515426E+01  1.858996121E+01  2.286830675E-06  0.00000E+00  9.000E+00
#rwgt            1           1   6.1151401940362097E-003           8      329599           0
</event>
<event>
      5   9999  3.19816E-02  4.71170E+01 -1.00000E+00  1.40563E-01
      21    -1     0     0   502   511  0.000000000E+00  0.000000000E+00  9.418581110E+02  9.418581110E+02  0.000000000E+00  0.00000E+00  9.000E+00
      21    -1     0     0   501   502  0.000000000E+00  0.000000000E+00 -2.732939703E+02  2.732939703E+02  0.000000000E+00  0.00000E+00  9.000E+00
      25     1     1     2     0     0 -4.115733343E+02 -1.301013659E+02  4.298008701E+02  6.218301720E+02  1.250000000E+02  0.00000E+00  9.000E+00
      25     1     1     2     0     0  4.580675595E+02  1.377368580E+02  2.042706629E+02  5.349288129E+02  1.250000000E+02  0.00000E+00  9.000E+00
      21     1     1     2   501   511 -4.649422521E+01 -7.635492084E+00  3.449260771E+01  5.839309638E+01  4.768371582E-07  0.00000E+00  9.000E+00
#rwgt            1           1   3.0523677638352835E-002           8      329847           0
</event>
<event>
      5   9999  3.19816E-02  4.41251E+01 -1.00000E+00  1.42245E-01
      21    -1     0     0   502   501  0.000000000E+00  0.000000000E+00  6.744062685E+02  6.744062685E+02  0.000000000E+00  0.00000E+00  9.000E+00
      21    -1     0     0   501   512  0.000000000E+00  0.000000000E+00 -3.782870712E+02  3.782870712E+02  0.000000000E+00  0.00000E+00  9.000E+00
      25     1     1     2     0     0  6.406354045E+00 -4.304895060E+02  7.696664581E+01  4.548748407E+02  1.250000000E+02  0.00000E+00  9.000E+00
      25     1     1     2     0     0  2.879853344E+01  4.570910393E+02  2.568558868E+02  5.397791403E+02  1.250000000E+02  0.00000E+00  9.000E+00
      21     1     1     2   502   512 -3.520488748E+01 -2.660153326E+01 -3.770333526E+01  5.803935875E+01  6.743495762E-07  0.00000E+00  9.000E+00
#rwgt            1           1   3.0283781593202455E-002           8      329978           0
</event>
<event>
      5   9999  3.19816E-02  5.83516E+01 -1.00000E+00  1.35353E-01
       3    -1     0     0   502     0  0.000000000E+00  0.000000000E+00  3.877201276E+02  3.877201276E+02  0.000000000E+00  0.00000E+00  9.000E+00
      21    -1     0     0   501   502  0.000000000E+00  0.000000000E+00 -3.684543601E+02  3.684543601E+02  0.000000000E+00  0.00000E+00  9.000E+00
      25     1     1     2     0     0 -8.510906661E+00 -1.263909783E+02  1.732738683E+01  1.788081465E+02  1.250000000E+02  0.00000E+00  9.000E+00
      25     1     1     2     0     0 -2.688330132E+01  7.999954543E+01 -2.645722844E+02  3.045424976E+02  1.250000000E+02  0.00000E+00  9.000E+00
       3     1     1     2   501     0  3.539420798E+01  4.639143283E+01  2.665106651E+02  2.728238435E+02  0.000000000E+00  0.00000E+00  9.000E+00
#rwgt            1           1   3.5043921247653730E-002           8      330129           0
</event>
<event>
      5   9999  3.19816E-02  1.39560E+02 -1.00000E+00  1.17649E-01
      21    -1     0     0   502   501  0.000000000E+00  0.000000000E+00  8.531287781E+02  8.531287781E+02  0.000000000E+00  0.00000E+00  9.000E+00
      21    -1     0     0   501   511  0.000000000E+00  0.000000000E+00 -3.414519427E+02  3.414519427E+02  0.000000000E+00  0.00000E+00  9.000E+00
      25     1     1     2     0     0  3.108428902E+02  2.418601934E+02 -5.883315723E+01  4.173799180E+02  1.250000000E+02  0.00000E+00  9.000E+00
      25     1     1     2     0     0 -1.817128405E+02 -1.889228280E+02  5.676371813E+02  6.376114499E+02  1.250000000E+02  0.00000E+00  9.000E+00
      21     1     1     2   502   511 -1.291300497E+02 -5.293736545E+01  2.872811294E+00  1.395893529E+02  1.086048314E-06  0.00000E+00  9.000E+00
#rwgt            1           1   2.5310216394088231E-002           8      330191           0
</event>
<event>
      5   9999  3.19816E-02  6.64772E+01 -1.00000E+00  1.32367E-01
      21    -1     0     0   502   512  0.000000000E+00  0.000000000E+00  1.288002281E+03  1.288002281E+03  0.000000000E+00  0.00000E+00  9.000E+00
      21    -1     0     0   501   502  0.000000000E+00  0.000000000E+00 -6.257059762E+02  6.257059762E+02  0.000000000E+00  0.00000E+00  9.000E+00
      25     1     1     2     0     0 -1.735530872E+02  4.398809337E+00 -5.820201082E+02  6.200906627E+02  1.250000000E+02  0.00000E+00  9.000E+00
      25     1     1     2     0     0  1.217047002E+02  3.720604560E+01  3.156032459E+02  3.625282509E+02  1.250000000E+02  0.00000E+00  9.000E+00
      21     1     1     2   501   512  5.184838697E+01 -4.160485494E+01  9.287131674E+02  9.310893440E+02  1.078959322E-05  0.00000E+00  9.000E+00
#rwgt            1           1   2.7150619763028103E-002           8      330288           0
</event>
<event>
      5   9999  3.19816E-02  2.53231E+01 -1.00000E+00  1.58334E-01
      21    -1     0     0   502   501  0.000000000E+00  0.000000000E+00  6.763081857E+02  6.763081857E+02  0.000000000E+00  0.00000E+00  9.000E+00
      21    -1     0     0   501   511  0.000000000E+00  0.000000000E+00 -4.042229440E+02  4.042229440E+02  0.000000000E+00  0.00000E+00  9.000E+00
      25     1     1     2     0     0  3.213062763E+02  2.408418751E+02  2.335548365E+02  4.810565389E+02  1.250000000E+02  0.00000E+00  9.000E+00
      25     1     1     2     0     0 -3.054206301E+02 -2.605625132E+02  1.788181971E+02  4.569196124E+02  1.250000000E+02  0.00000E+00  9.000E+00
      21     1     1     2   502   511 -1.588564615E+01  1.972063808E+01 -1.402877919E+02  1.425549784E+02  2.697398305E-06  0.00000E+00  9.000E+00
#rwgt            1           1   3.1584027802499373E-002           8      330373           0
</event>
<event>
      5   9999  3.19816E-02  3.08385E+02 -1.00000E+00  1.05204E-01
      21    -1     0     0   502   501  0.000000000E+00  0.000000000E+00  1.134399697E+03  1.134399697E+03  0.000000000E+00  0.00000E+00  9.000E+00
      21    -1     0     0   501   512  0.000000000E+00  0.000000000E+00 -3.742465361E+02  3.742465361E+02  0.000000000E+00  0.00000E+00  9.000E+00
      25     1     1     2     0     0 -4.115175582E+02 -2.486669252E+02  1.185806965E+02  5.107527014E+02  1.250000000E+02  0.00000E+00  9.000E+00
      25     1     1     2     0     0  1.558521983E+02  7.622484983E+01  6.551967155E+02  6.892081482E+02  1.250000000E+02  0.00000E+00  9.000E+00
      21     1     1     2   502   512  2.556653599E+02  1.724420754E+02 -1.362425148E+01  3.086853832E+02  4.314651745E-06  0.00000E+00  9.000E+00
#rwgt            2          11   3.6011581761251524E-003           8      330520           0
</event>
<event>
      5   9999  3.19816E-02  1.25258E+02 -1.00000E+00  1.19583E-01
       2    -1     0     0   502     0  0.000000000E+00  0.000000000E+00  2.416181635E+03  2.416181635E+03  0.000000000E+00  0.00000E+00  9.000E+00
      21    -1     0     0   501   502  0.000000000E+00  0.000000000E+00 -1.096870863E+02  1.096870863E+02  0.000000000E+00  0.00000E+00  9.000E+00
      25     1     1     2     0     0  2.414043418E+02  7.568229118E+01  2.518162895E+02  3.782067015E+02  1.250000000E+02  0.00000E+00  9.000E+00
      25     1     1     2     0     0 -1.749404358E+02  3.048735154E+01  2.214487799E+02  3.101583415E+02  1.250000000E+02  0.00000E+00  9.000E+00
       2     1     1     2   501     0 -6.646390602E+01 -1.061696427E+02  1.833229479E+03  1.837503678E+03  3.051757812E-05  0.00000E+00  9.000E+00
#rwgt            1           1   3.0029496960765241E-002           8      330555           0
</event>
<event>
      5   9999  3.19816E-02  3.84364E+02 -1.00000E+00  1.02209E-01
      21    -1     0     0   502   501  0.000000000E+00  0.000000000E+00  4.969894757E+02  4.969894757E+02  0.000000000E+00  0.00000E+00  9.000E+00
      21    -1     0     0   501   511  0.000000000E+00  0.000000000E+00 -5.253434812E+02  5.253434812E+02  0.000000000E+00  0.00000E+00  9.000E+00
      25     1     1     2     0     0  1.998153154E+02 -1.709785368E+01  1.271349547E+02  2.683408160E+02  1.250000000E+02  0.00000E+00  9.000E+00
      25     1     1     2     0     0  4.729872424E+00 -3.083204397E+02  1.598496809E+01  3.331131706E+02  1.250000000E+02  0.00000E+00  9.000E+00
      21     1     1     2   502   511 -2.045451878E+02  3.254182934E+02 -1.714739283E+02  4.208789702E+02  8.946258087E-06  0.00000E+00  9.000E+00
#rwgt            2          11   3.9512394071604465E-003           8      330611           0
</event>
<event>
      5   9999  3.19816E-02  9.21144E+01 -1.00000E+00  1.25454E-01
      21    -1     0     0   502   501  0.000000000E+00  0.000000000E+00  9.192871646E+01  9.192871646E+01  0.000000000E+00  0.00000E+00  9.000E+00
       1    -1     0     0   501     0  0.000000000E+00  0.000000000E+00 -1.355216026E+03  1.355216026E+03  0.000000000E+00  0.00000E+00  9.000E+00
      25     1     1     2     0     0  2.900026681E+01 -1.858426326E+02 -5.275355374E+02  5.738442671E+02  1.250000000E+02  0.00000E+00  9.000E+00
      25     1     1     2     0     0 -8.115205297E+01  1.099134156E+02 -6.500498635E+01  1.962581537E+02  1.250000000E+02  0.00000E+00  9.000E+00
       1     1     1     2   502     0  5.215178615E+01  7.592921699E+01 -6.707467861E+02  6.770423220E+02  7.629394531E-06  0.00000E+00  9.000E+00
#rwgt            1           1   1.8138883717755624E-002           8      330631           0
</event>
<event>
      5   9999  3.19816E-02  2.57058E+02 -1.00000E+00  1.07819E-01
      21    -1     0     0   502   511  0.000000000E+00  0.000000000E+00  6.979818720E+02  6.979818720E+02  0.000000000E+00  0.00000E+00  9.000E+00
      21    -1     0     0   501   502  0.000000000E+00  0.000000000E+00 -1.867989844E+03  1.867989844E+03  0.000000000E+00  0.00000E+00  9.000E+00
      25     1     1     2     0     0  8.091970348E+02  3.132592828E+02 -4.600641274E+02  9.900581906E+02  1.250000000E+02  0.00000E+00  9.000E+00
      25     1     1     2     0     0 -5.955213869E+02 -1.703547371E+02 -1.003399344E+03  1.185791593E+03  1.250000000E+02  0.00000E+00  9.000E+00
      21     1     1     2   501   511 -2.136756479E+02 -1.429045457E+02  2.934554996E+02  3.901219321E+02  3.814697266E-06  0.00000E+00  9.000E+00
#rwgt            2          11   4.8730601599043409E-003           8      330800           0
</event>
<event>
      5   9999  3.19816E-02  2.28845E+01 -1.00000E+00  1.61682E-01
      21    -1     0     0   502   501  0.000000000E+00  0.000000000E+00  2.164045289E+02  2.164045289E+02  0.000000000E+00  0.00000E+00  9.000E+00
      21    -1     0     0   501   512  0.000000000E+00  0.000000000E+00 -3.191483068E+02  3.191483068E+02  0.000000000E+00  0.00000E+00  9.000E+00
      25     1     1     2     0     0  1.862149561E+02 -7.490696222E+01 -1.172754111E+02  2.639423894E+02  1.250000000E+02  0.00000E+00  9.000E+00
      25     1     1     2     0     0 -2.024476531E+02  5.877627049E+01  2.517756603E+01  2.463708831E+02  1.250000000E+02  0.00000E+00  9.000E+00
      21     1     1     2   502   512  1.623269701E+01  1.613069173E+01 -1.064593283E+01  2.523956327E+01  0.000000000E+00  0.00000E+00  9.000E+00
#rwgt            1           1   2.8006830293808755E-002           8      330820           0
</event>
<event>
      5   9999  3.19816E-02  1.53028E+02 -1.00000E+00  1.16051E-01
       2    -1     0     0   502     0  0.000000000E+00  0.000000000E+00  2.315671043E+03  2.315671043E+03  0.000000000E+00  0.00000E+00  9.000E+00
      21    -1     0     0   501   502  0.000000000E+00  0.000000000E+00 -6.383235596E+02  6.383235596E+02  0.000000000E+00  0.00000E+00  9.000E+00
      25     1     1     2     0     0 -1.612159674E+02 -5.798086507E+02  4.020185700E+02  7.344471324E+02  1.250000000E+02  0.00000E+00  9.000E+00
      25     1     1     2     0     0  2.520263788E+02  4.566376299E+02 -3.149147864E+02  6.219578309E+02  1.250000000E+02  0.00000E+00  9.000E+00
       2     1     1     2   501     0 -9.081041140E+01  1.231710208E+02  1.590243700E+03  1.597589639E+03  0.000000000E+00  0.00000E+00  9.000E+00
#rwgt            1           1   2.9024065708282382E-002           8      330986           0
</event>
<event>
      5   9999  4.57128E-02  1.97380E+01 -1.00000E+00  1.66843E-01
      21    -1     0     0   502   511  0.000000000E+00  0.000000000E+00  1.251488880E+03  1.251488880E+03  0.000000000E+00  0.00000E+00  9.000E+00
      21    -1     0     0   501   502  0.000000000E+00  0.000000000E+00 -9.242737243E+01  9.242737243E+01  0.000000000E+00  0.00000E+00  9.000E+00
      25     1     1     2     0     0  1.146195311E+02  2.826371785E+02  7.260496579E+02  7.973672412E+02  1.250000000E+02  0.00000E+00  9.000E+00
      25     1     1     2     0     0 -1.003344443E+02 -2.690164637E+02  3.988232932E+02  5.070718664E+02  1.250000000E+02  0.00000E+00  9.000E+00
      21     1     1     2   501   511 -1.428508681E+01 -1.362071475E+01  3.418855669E+01  3.947714509E+01  4.768371582E-07  0.00000E+00  9.000E+00
#rwgt            1           1   4.3158256243860570E-002           8      331031           0
</event>
<event>
      5   9999  3.19816E-02  1.83781E+01 -1.00000E+00  1.69458E-01
      21    -1     0     0   502   501  0.000000000E+00  0.000000000E+00  1.219638760E+02  1.219638760E+02  0.000000000E+00  0.00000E+00  9.000E+00
      21    -1     0     0   512   502  0.000000000E+00  0.000000000E+00 -1.378523246E+03  1.378523246E+03  0.000000000E+00  0.00000E+00  9.000E+00
      25     1     1     2     0     0  9.089030575E+01  3.312063271E+02 -3.342353783E+02  4.952746378E+02  1.250000000E+02  0.00000E+00  9.000E+00
      25     1     1     2     0     0 -8.766873493E+01 -3.131128263E+02 -6.976280020E+02  7.797661690E+02  1.250000000E+02  0.00000E+00  9.000E+00
      21     1     1     2   512   501 -3.221570825E+00 -1.809350083E+01 -2.246959894E+02  2.254463150E+02  0.000000000E+00  0.00000E+00  9.000E+00
#rwgt            1           1   3.0760515969783398E-002           8      331223           0
</event>
<event>
      5   9999  3.19816E-02  1.88123E+01 -1.00000E+00  1.68593E-01
      21    -1     0     0   502   511  0.000000000E+00  0.000000000E+00  5.153217822E+02  5.153217822E+02  0.000000000E+00  0.00000E+00  9.000E+00
      21    -1     0     0   501   502  0.000000000E+00  0.000000000E+00 -2.699437474E+02  2.699437474E+02  0.000000000E+00  0.00000E+00  9.000E+00
      25     1     1     2     0     0  2.715500120E+02  1.753589214E+02  4.563304419E+01  3.495676402E+02  1.250000000E+02  0.00000E+00  9.000E+00
      25     1     1     2     0     0 -2.879475448E+02 -1.845797558E+02  1.734143698E+02  4.033373507E+02  1.250000000E+02  0.00000E+00  9.000E+00
      21     1     1     2   501   511  1.639753283E+01  9.220834400E+00  2.633062087E+01  3.236053871E+01  0.000000000E+00  0.00000E+00  9.000E+00
#rwgt            1           1   2.7781293952760407E-002           8      331456           0
</event>
<event>
      5   9999  3.19816E-02  4.47564E+01 -1.00000E+00  1.41878E-01
      21    -1     0     0   502   501  0.000000000E+00  0.000000000E+00  2.318086217E+02  2.318086217E+02  0.000000000E+00  0.00000E+00  9.000E+00
      21    -1     0     0   512   502  0.000000000E+00  0.000000000E+00 -1.727605809E+03  1.727605809E+03  0.000000000E+00  0.00000E+00  9.000E+00
      25     1     1     2     0     0 -6.370236886E+01 -1.732817577E+02  1.047045044E+02  2.463180720E+02  1.250000000E+02  0.00000E+00  9.000E+00
      25     1     1     2     0     0  2.922363474E+01  2.018185588E+02 -1.997350686E+02  3.116149052E+02  1.250000000E+02  0.00000E+00  9.000E+00
      21     1     1     2   512   501  3.447873412E+01 -2.853680107E+01 -1.400766623E+03  1.401481453E+03  2.157918644E-05  0.00000E+00  9.000E+00
#rwgt            1           1   2.8516779814439612E-002           8      331622           0
</event>
<event>
      5   9999  3.19816E-02  1.21774E+01 -1.00000E+00  1.86360E-01
      21    -1     0     0   511   501  0.000000000E+00  0.000000000E+00  8.618495657E+02  8.618495657E+02  0.000000000E+00  0.00000E+00  9.000E+00
      21    -1     0     0   501   502  0.000000000E+00  0.000000000E+00 -8.446044287E+01  8.446044287E+01  0.000000000E+00  0.00000E+00  9.000E+00
      25     1     1     2     0     0  1.212357177E+02  9.991521871E+01  6.881469198E+02  7.168349415E+02  1.250000000E+02  0.00000E+00  9.000E+00
      25     1     1     2     0     0 -1.151019106E+02 -8.939546092E+01  6.563331596E+01  2.029106464E+02  1.250000000E+02  0.00000E+00  9.000E+00
      21     1     1     2   511   502 -6.133807125E+00 -1.051975779E+01  2.360888706E+01  2.656442061E+01  3.371747881E-07  0.00000E+00  9.000E+00
#rwgt            1           1   2.7036364591317679E-002           8      331735           0
</event>
<event>
      5   9999  3.19816E-02  2.63623E+01 -1.00000E+00  1.57044E-01
      21    -1     0     0   502   512  0.000000000E+00  0.000000000E+00  4.060196085E+01  4.060196085E+01  0.000000000E+00  0.00000E+00  9.000E+00
      21    -1     0     0   501   502  0.000000000E+00  0.000000000E+00 -1.345590947E+03  1.345590947E+03  0.000000000E+00  0.00000E+00  9.000E+00
      25     1     1     2     0     0  1.172321996E+02  3.689540412E+01 -5.263456117E+02  5.547696481E+02  1.250000000E+02  0.00000E+00  9.000E+00
      25     1     1     2     0     0 -1.369459601E+02 -1.939280820E+01 -7.828372393E+02  8.047294081E+02  1.250000000E+02  0.00000E+00  9.000E+00
      21     1     1     2   501   512  1.971376048E+01 -1.750259593E+01  4.193864844E+00  2.669385170E+01  1.084411466E-06  0.00000E+00  9.000E+00
#rwgt            1           1   3.9253808500906519E-002           8      331869           0
</event>
<event>
      5   9999  3.19816E-02  1.99801E+01 -1.00000E+00  1.66405E-01
      21    -1     0     0   502   511  0.000000000E+00  0.000000000E+00  1.421214483E+02  1.421214483E+02  0.000000000E+00  0.00000E+00  9.000E+00
      21    -1     0     0   501   502  0.000000000E+00  0.000000000E+00 -3.239281981E+02  3.239281981E+02  0.000000000E+00  0.00000E+00  9.000E+00
      25     1     1     2     0     0  7.088121140E+01 -1.251997497E+02 -1.385761388E+02  2.356426738E+02  1.250000000E+02  0.00000E+00  9.000E+00
      25     1     1     2     0     0 -8.342967743E+01  1.407477490E+02 -3.527538797E+01  2.089013952E+02  1.250000000E+02  0.00000E+00  9.000E+00
      21     1     1     2   501   511  1.254846603E+01 -1.554799935E+01 -7.955222992E+00  2.150557733E+01  1.460009660E-07  0.00000E+00  9.000E+00
#rwgt            1           1   3.2722646019798719E-002           8      331983           0
</event>
<event>
      5   9999  3.19816E-02  6.13571E+01 -1.00000E+00  1.34186E-01
      21    -1     0     0   512   501  0.000000000E+00  0.000000000E+00  1.437254801E+02  1.437254801E+02  0.000000000E+00  0.00000E+00  9.000E+00
      21    -1     0     0   501   502  0.000000000E+00  0.000000000E+00 -1.847526197E+03  1.847526197E+03  0.000000000E+00  0.00000E+00  9.000E+00
      25     1     1     2     0     0 -3.038156834E+02 -2.757362931E+02 -1.341634377E+03  1.408524858E+03  1.250000000E+02  0.00000E+00  9.000E+00
      25     1     1     2     0     0  2.869103852E+02  2.167540646E+02 -3.557411670E+02  5.210342326E+02  1.250000000E+02  0.00000E+00  9.000E+00
      21     1     1     2   512   502  1.690529827E+01  5.898222845E+01 -6.425172317E+00  6.169258644E+01  5.462855929E-07  0.00000E+00  9.000E+00
#rwgt            1           1   2.9610601281054982E-002           8      332137           0
</event>
<event>
      5   9999  3.19816E-02  1.31788E+01 -1.00000E+00  1.82849E-01
      21    -1     0     0   502   511  0.000000000E+00  0.000000000E+00  2.407068370E+02  2.407068370E+02  0.000000000E+00  0.00000E+00  9.000E+00
      21    -1     0     0   501   502  0.000000000E+00  0.000000000E+00 -1.972401888E+02  1.972401888E+02  0.000000000E+00  0.00000E+00  9.000E+00
      25     1     1     2     0     0 -8.361281395E+01 -2.216518445E+01 -1.254841755E+02  1.971133592E+02  1.250000000E+02  0.00000E+00  9.000E+00
      25     1     1     2     0     0  9.087098115E+01  3.316516989E+01  1.599810598E+02  2.248919812E+02  1.250000000E+02  0.00000E+00  9.000E+00
      21     1     1     2   501   511 -7.258167194E+00 -1.099998544E+01  8.969763907E+00  1.594168546E+01  1.685873940E-07  0.00000E+00  9.000E+00
#rwgt            1           1   2.7273762477896896E-002           8      332216           0
</event>
<event>
      5   9999  3.19816E-02  4.10566E+01 -1.00000E+00  1.44141E-01
      21    -1     0     0   502   512  0.000000000E+00  0.000000000E+00  8.792899534E+02  8.792899534E+02  0.000000000E+00  0.00000E+00  9.000E+00
      21    -1     0     0   501   502  0.000000000E+00  0.000000000E+00 -4.926507084E+02  4.926507084E+02  0.000000000E+00  0.00000E+00  9.000E+00
      25     1     1     2     0     0 -5.342991855E+02  2.479654782E+02  6.052568036E+01  6.051866290E+02  1.250000000E+02  0.00000E+00  9.000E+00
      25     1     1     2     0     0  5.399426017E+02 -2.072985384E+02  1.852708730E+02  6.200491864E+02  1.250000000E+02  0.00000E+00  9.000E+00
      21     1     1     2   501   512 -5.643416196E+00 -4.066693977E+01  1.408426917E+02  1.467048463E+02  1.907348633E-06  0.00000E+00  9.000E+00
#rwgt            1           1   3.1509617750975959E-002           8      332425           0
</event>
<event>
      5   9999  3.19816E-02  1.17557E+02 -1.00000E+00  1.20749E-01
      21    -1     0     0   502   501  0.000000000E+00  0.000000000E+00  8.846480364E+02  8.846480364E+02  0.000000000E+00  0.00000E+00  9.000E+00
      21    -1     0     0   511   502  0.000000000E+00  0.000000000E+00 -3.745267331E+02  3.745267331E+02  0.000000000E+00  0.00000E+00  9.000E+00
      25     1     1     2     0     0 -5.074739756E+02 -2.931665326E+01  3.336651143E+02  6.207630068E+02  1.250000000E+02  0.00000E+00  9.000E+00
      25     1     1     2     0     0  4.013366880E+02  7.985862802E+01  2.539996180E+02  4.975835041E+02  1.250000000E+02  0.00000E+00  9.000E+00
      21     1     1     2   511   501  1.061372877E+02 -5.054197476E+01 -7.754342899E+01  1.408282586E+02  3.303624740E-06  0.00000E+00  9.000E+00
#rwgt            1           1   3.1911734630039018E-002           8      332540           0
</event>
<event>
      5   9999  3.19816E-02  7.04454E+01 -1.00000E+00  1.31081E-01
      21    -1     0     0   502   501  0.000000000E+00  0.000000000E+00  1.115900751E+03  1.115900751E+03  0.000000000E+00  0.00000E+00  9.000E+00
      21    -1     0     0   512   502  0.000000000E+00  0.000000000E+00 -2.635343192E+02  2.635343192E+02  0.000000000E+00  0.00000E+00  9.000E+00
      25     1     1     2     0     0 -3.519909750E+02  2.916840565E+02  7.195293185E+02  8.615826574E+02  1.250000000E+02  0.00000E+00  9.000E+00
      25     1     1     2     0     0  2.819929253E+02 -2.996100870E+02  1.111845248E+02  4.441544919E+02  1.250000000E+02  0.00000E+00  9.000E+00
      21     1     1     2   512   501  6.999804966E+01  7.926030496E+00  2.165258812E+01  7.369792051E+01  7.152557373E-07  0.00000E+00  9.000E+00
#rwgt            1           1   2.9318199482548754E-002           8      332608           0
</event>
<event>
      5   9999  3.19816E-02  1.15729E+02 -1.00000E+00  1.21040E-01
      21    -1     0     0   502   501  0.000000000E+00  0.000000000E+00  1.458867686E+02  1.458867686E+02  0.000000000E+00  0.00000E+00  9.000E+00
       1    -1     0     0   501     0  0.000000000E+00  0.000000000E+00 -2.233898831E+03  2.233898831E+03  0.000000000E+00  0.00000E+00  9.000E+00
      25     1     1     2     0     0 -8.275523271E+01 -2.857293266E+02 -1.319520445E+02  3.486058213E+02  1.250000000E+02  0.00000E+00  9.000E+00
      25     1     1     2     0     0  8.819450321E+00  1.966967474E+02 -3.477732978E+02  4.187345935E+02  1.250000000E+02  0.00000E+00  9.000E+00
       1     1     1     2   502     0  7.393578239E+01  8.903257921E+01 -1.608286720E+03  1.612445185E+03  3.051757812E-05  0.00000E+00  9.000E+00
#rwgt            1           1   2.6309149619998050E-002           8      332730           0
</event>
<event>
      5   9999  3.19816E-02  2.01940E+02 -1.00000E+00  1.11496E-01
      21    -1     0     0   502   501  0.000000000E+00  0.000000000E+00  1.198430395E+03  1.198430395E+03  0.000000000E+00  0.00000E+00  9.000E+00
      21    -1     0     0   501   511  0.000000000E+00  0.000000000E+00 -4.780551794E+02  4.780551794E+02  0.000000000E+00  0.00000E+00  9.000E+00
      25     1     1     2     0     0 -4.484193994E+01 -1.974019270E+02  1.009602026E+03  1.037255788E+03  1.250000000E+02  0.00000E+00  9.000E+00
      25     1     1     2     0     0  1.636892895E+02  3.413780132E+01  7.576987525E+01  2.220937797E+02  1.250000000E+02  0.00000E+00  9.000E+00
      21     1     1     2   502   511 -1.188473495E+02  1.632641256E+02 -3.649966855E+02  4.171360062E+02  7.629394531E-06  0.00000E+00  9.000E+00
#rwgt            1           1   2.8386996458450001E-002           8      332816           0
</event>
<event>
      5   9999  3.19816E-02  3.03977E+01 -1.00000E+00  1.52644E-01
      21    -1     0     0   502   501  0.000000000E+00  0.000000000E+00  7.949579067E+02  7.949579067E+02  0.000000000E+00  0.00000E+00  9.000E+00
       2    -1     0     0   501     0  0.000000000E+00  0.000000000E+00 -2.069765298E+03  2.069765298E+03  0.000000000E+00  0.00000E+00  9.000E+00
      25     1     1     2     0     0 -7.007342711E+02 -6.179212244E+02  3.231614804E+02  9.964504507E+02  1.250000000E+02  0.00000E+00  9.000E+00
      25     1     1     2     0     0  6.710050087E+02  6.115813681E+02 -1.436356205E+03  1.703826176E+03  1.250000000E+02  0.00000E+00  9.000E+00
       2     1     1     2   502     0  2.972926233E+01  6.339856274E+00 -1.616126675E+02  1.644465783E+02  1.907348633E-06  0.00000E+00  9.000E+00
#rwgt            1           1   3.9190172896991365E-002           8      332912           0
</event>
<event>
      5   9999  3.19816E-02  4.77887E+01 -1.00000E+00  1.40206E-01
      21    -1     0     0   502   501  0.000000000E+00  0.000000000E+00  3.615494762E+02  3.615494762E+02  0.000000000E+00  0.00000E+00  9.000E+00
      21    -1     0     0   511   502  0.000000000E+00  0.000000000E+00 -2.505217448E+02  2.505217448E+02  0.000000000E+00  0.00000E+00  9.000E+00
      25     1     1     2     0     0 -1.505856121E+02  1.896561152E+02  1.431149657E+02  3.078187161E+02  1.250000000E+02  0.00000E+00  9.000E+00
      25     1     1     2     0     0  1.142279249E+02 -1.586420038E+02  2.080856330E+01  2.329663076E+02  1.250000000E+02  0.00000E+00  9.000E+00
      21     1     1     2   511   501  3.635768718E+01 -3.101411147E+01 -5.289579755E+01  7.128619730E+01  6.743495762E-07  0.00000E+00  9.000E+00
#rwgt            1           1   2.7539165103501306E-002           8      333105           0
</event>
<event>
      5   9999  3.19816E-02  7.94614E+01 -1.00000E+00  1.28492E-01
      21    -1     0     0   512   501  0.000000000E+00  0.000000000E+00  2.519368909E+02  2.519368909E+02  0.000000000E+00  0.00000E+00  9.000E+00
      21    -1     0     0   501   502  0.000000000E+00  0.000000000E+00 -4.792391454E+02  4.792391454E+02  0.000000000E+00  0.00000E+00  9.000E+00
      25     1     1     2     0     0 -3.279854076E+01 -9.436447280E+01 -1.030058733E+02  1.903039882E+02  1.250000000E+02  0.00000E+00  9.000E+00
      25     1     1     2     0     0 -4.648317393E+01  9.970483220E+01 -3.027535585E+02  3.455234525E+02  1.250000000E+02  0.00000E+00  9.000E+00
      21     1     1     2   512   502  7.928171469E+01 -5.340359401E+00  1.784571772E+02  1.953485956E+02  0.000000000E+00  0.00000E+00  9.000E+00
#rwgt            1           1   3.2124548948311141E-002           8      333191           0
</event>
<event>
      5   9999  3.19816E-02  3.81173E+01 -1.00000E+00  1.46151E-01
      21    -1     0     0   502   511  0.000000000E+00  0.000000000E+00  4.369672804E+02  4.369672804E+02  0.000000000E+00  0.00000E+00  9.000E+00
      21    -1     0     0   501   502  0.000000000E+00  0.000000000E+00 -4.367283919E+02  4.367283919E+02  0.000000000E+00  0.00000E+00  9.000E+00
      25     1     1     2     0     0 -3.563226947E+02 -1.177562163E+01 -1.635301518E+02  4.116693316E+02  1.250000000E+02  0.00000E+00  9.000E+00
      25     1     1     2     0     0  3.688761934E+02  4.776643106E+01  1.598510880E+02  4.237082113E+02  1.250000000E+02  0.00000E+00  9.000E+00
      21     1     1     2   501   511 -1.255349866E+01 -3.599080942E+01  3.917952248E+00  3.831812941E+01  7.702617635E-07  0.00000E+00  9.000E+00
#rwgt            1           1   2.8244474056336979E-002           8      333253           0
</event>
<event>
      5   9999  3.19816E-02  7.04048E+01 -1.00000E+00  1.31094E-01
      21    -1     0     0   502   512  0.000000000E+00  0.000000000E+00  1.461013042E+02  1.461013042E+02  0.000000000E+00  0.00000E+00  9.000E+00
      21    -1     0     0   501   502  0.000000000E+00  0.000000000E+00 -1.523075524E+03  1.523075524E+03  0.000000000E+00  0.00000E+00  9.000E+00
      25     1     1     2     0     0  2.910882825E+02 -2.624192821E+02 -6.850224575E+02  7.990475800E+02  1.250000000E+02  0.00000E+00  9.000E+00
      25     1     1     2     0     0 -2.363211892E+02  3.066618201E+02 -6.884055951E+02  7.996351917E+02  1.250000000E+02  0.00000E+00  9.000E+00
      21     1     1     2   501   512 -5.476709327E+01 -4.424253800E+01 -3.546166969E+00  7.049405631E+01  1.295630045E-06  0.00000E+00  9.000E+00
#rwgt            1           1   2.9324100573695406E-002           8      333399           0
</event>
<event>
      5   9999  3.19816E-02  4.65782E+01 -1.00000E+00  1.40855E-01
      21    -1     0     0   502   511  0.000000000E+00  0.000000000E+00  1.883760766E+03  1.883760766E+03  0.000000000E+00  0.00000E+00  9.000E+00
      21    -1     0     0   501   502  0.000000000E+00  0.000000000E+00 -4.876631581E+02  4.876631581E+02  0.000000000E+00  0.00000E+00  9.000E+00
      25     1     1     2     0     0 -7.073709950E+01 -4.135297271E+02 -3.236011060E+02  5.443833652E+02  1.250000000E+02  0.00000E+00  9.000E+00
      25     1     1     2     0     0  1.071693397E+02  3.845086477E+02  7.706190564E+02  8.768186230E+02  1.250000000E+02  0.00000E+00  9.000E+00
      21     1     1     2   501   511 -3.643224022E+01  2.902107941E+01  9.490796579E+02  9.502219363E+02  1.078959322E-05  0.00000E+00  9.000E+00
#rwgt            1           1   2.6857042916231248E-002           8      333526           0
</event>
<event>
      5   9999  3.28423E-02  1.35838E+02 -1.00000E+00  1.18126E-01
      21    -1     0     0   512   501  0.000000000E+00  0.000000000E+00  1.739348316E+03  1.739348316E+03  0.000000000E+00  0.00000E+00  9.000E+00
      21    -1     0     0   501   502  0.000000000E+00  0.000000000E+00 -9.562797709E+02  9.562797709E+02  0.000000000E+00  0.00000E+00  9.000E+00
      25     1     1     2     0     0  1.043523168E+01  5.204670987E+02  1.319288375E+03  1.423777269E+03  1.250000000E+02  0.00000E+00  9.000E+00
      25     1     1     2     0     0  6.945460599E+01 -4.106053659E+02 -8.362357909E+02  9.425157860E+02  1.250000000E+02  0.00000E+00  9.000E+00
      21     1     1     2   512   502 -7.988983767E+01 -1.098617327E+02  3.000159611E+02  3.293350321E+02  0.000000000E+00  0.00000E+00  9.000E+00
#rwgt            1           1   7.6212720868431033E-002           8      333639           0
</event>
<event>
      5   9999  3.19816E-02  4.13474E+01 -1.00000E+00  1.43953E-01
      21    -1     0     0   502   511  0.000000000E+00  0.000000000E+00  1.635223264E+02  1.635223264E+02  0.000000000E+00  0.00000E+00  9.000E+00
      21    -1     0     0   501   502  0.000000000E+00  0.000000000E+00 -1.568083549E+03  1.568083549E+03  0.000000000E+00  0.00000E+00  9.000E+00
      25     1     1     2     0     0  1.672559140E+02 -1.202245303E+02 -1.373927457E+03  1.394894310E+03  1.250000000E+02  0.00000E+00  9.000E+00
      25     1     1     2     0     0 -2.082372002E+02  1.257146021E+02  1.654177977E+01  2.739808811E+02  1.250000000E+02  0.00000E+00  9.000E+00
      21     1     1     2   501   511  4.098128619E+01 -5.490071858E+00 -4.717554546E+01  6.273068464E+01  0.000000000E+00  0.00000E+00  9.000E+00
#rwgt            1           1   2.7851666737392894E-002           8      333756           0
</event>
<event>
      5   9999  3.19816E-02  5.82716E+01 -1.00000E+00  1.35385E-01
      21    -1     0     0   502   512  0.000000000E+00  0.000000000E+00  1.059345347E+03  1.059345347E+03  0.000000000E+00  0.00000E+00  9.000E+00
      21    -1     0     0   501   502  0.000000000E+00  0.000000000E+00 -2.845033800E+02  2.845033800E+02  0.000000000E+00  0.00000E+00  9.000E+00
      25     1     1     2     0     0 -3.657581059E+02  1.687611096E+02  5.108163782E+02  6.624331486E+02  1.250000000E+02  0.00000E+00  9.000E+00
      25     1     1     2     0     0  3.237182353E+02 -1.284097247E+02 -3.971534615E+01  3.721355425E+02  1.250000000E+02  0.00000E+00  9.000E+00
      21     1     1     2   501   512  4.203987059E+01 -4.035138495E+01  3.037409346E+02  3.092800354E+02  3.814697266E-06  0.00000E+00  9.000E+00
#rwgt            1           1   2.9382289077524406E-002           8      333846           0
</event>
<event>
      5   9999  3.19816E-02  4.15379E+01 -1.00000E+00  1.43831E-01
      21    -1     0     0   502   511  0.000000000E+00  0.000000000E+00  3.197197417E+02  3.197197417E+02  0.000000000E+00  0.00000E+00  9.000E+00
      21    -1     0     0   501   502  0.000000000E+00  0.000000000E+00 -5.836543989E+02  5.836543989E+02  0.000000000E+00  0.00000E+00  9.000E+00
      25     1     1     2     0     0 -2.382037108E+02 -1.611973249E+02  2.587611751E+01  3.146746874E+02  1.250000000E+02  0.00000E+00  9.000E+00
      25     1     1     2     0     0  2.626147484E+02  1.275893350E+02 -3.765028866E+02  4.925697596E+02  1.250000000E+02  0.00000E+00  9.000E+00
      21     1     1     2   501   511 -2.441103761E+01  3.360798993E+01  8.669211182E+01  9.612969363E+01  1.348699152E-06  0.00000E+00  9.000E+00
#rwgt            1           1   2.5519475628054487E-002           8      333953           0
</event>
<event>
      5   9999  3.19816E-02  1.97133E+01 -1.00000E+00  1.66888E-01
      21    -1     0     0   502   512  0.000000000E+00  0.000000000E+00  2.844287885E+02  2.844287885E+02  0.000000000E+00  0.00000E+00  9.000E+00
      21    -1     0     0   501   502  0.000000000E+00  0.000000000E+00 -8.479093212E+02  8.479093212E+02  0.000000000E+00  0.00000E+00  9.000E+00
      25     1     1     2     0     0  2.255439801E+02  1.409904521E+02  1.654858389E+02  3.372817182E+02  1.250000000E+02  0.00000E+00  9.000E+00
      25     1     1     2     0     0 -2.157538647E+02 -1.238800194E+02 -7.225292700E+02  7.743187557E+02  1.250000000E+02  0.00000E+00  9.000E+00
      21     1     1     2   501   512 -9.790115395E+00 -1.711043265E+01 -6.437101595E+00  2.073763588E+01  2.795705652E-07  0.00000E+00  9.000E+00
#rwgt            1           1   2.5387284602574261E-002           8      334135           0
</event>
<event>
      5   9999  3.19816E-02  1.60467E+02 -1.00000E+00  1.15244E-01
      21    -1     0     0   502   511  0.000000000E+00  0.000000000E+00  3.829509018E+02  3.829509018E+02  0.000000000E+00  0.00000E+00  9.000E+00
      21    -1     0     0   501   502  0.000000000E+00  0.000000000E+00 -4.184394263E+02  4.184394263E+02  0.000000000E+00  0.00000E+00  9.000E+00
      25     1     1     2     0     0  2.183453956E+01 -1.017763157E+02 -2.948331157E+02  3.367294636E+02  1.250000000E+02  0.00000E+00  9.000E+00
      25     1     1     2     0     0 -5.901032967E+01 -5.432454262E+01  2.653442998E+02  3.040821803E+02  1.250000000E+02  0.00000E+00  9.000E+00
      21     1     1     2   501   511  3.717579010E+01  1.561008583E+02 -5.999708620E+00  1.605786842E+02  3.445746525E-06  0.00000E+00  9.000E+00
#rwgt            1           1   3.0739581406064802E-002           8      334300           0
</event>
<event>
      5   9999  3.19816E-02  3.82789E+00 -1.00000E+00  2.68054E-01
      21    -1     0     0   502   512  0.000000000E+00  0.000000000E+00  9.186988309E+01  9.186988309E+01  0.000000000E+00  0.00000E+00  9.000E+00
      21    -1     0     0   501   502  0.000000000E+00  0.000000000E+00 -9.977331037E+02  9.977331037E+02  0.000000000E+00  0.00000E+00  9.000E+00
      25     1     1     2     0     0  1.663078755E+02  2.104447044E+02 -3.657230651E+02  4.704504686E+02  1.250000000E+02  0.00000E+00  9.000E+00
      25     1     1     2     0     0 -1.657615568E+02 -2.142334034E+02 -5.365282634E+02  6.138895848E+02  1.250000000E+02  0.00000E+00  9.000E+00
      21     1     1     2   501   512 -5.463186944E-01  3.788698948E+00 -3.611892149E+00  5.262933472E+00  1.264405455E-07  0.00000E+00  9.000E+00
#rwgt            1           1   3.2862717311756599E-002           8      334384           0
</event>
<event>
      5   9999  3.19816E-02  3.47508E+01 -1.00000E+00  1.48734E-01
      21    -1     0     0   502   511  0.000000000E+00  0.000000000E+00  8.369774391E+02  8.369774391E+02  0.000000000E+00  0.00000E+00  9.000E+00
      21    -1     0     0   501   502  0.000000000E+00  0.000000000E+00 -4.547457618E+02  4.547457618E+02  0.000000000E+00  0.00000E+00  9.000E+00
      25     1     1     2     0     0  1.871244328E+02  1.780019815E+02 -3.648721191E+02  4.641733751E+02  1.250000000E+02  0.00000E+00  9.000E+00
      25     1     1     2     0     0 -2.016156168E+02 -2.095871261E+02  7.060580172E+02  7.737690508E+02  1.250000000E+02  0.00000E+00  9.000E+00
      21     1     1     2   501   511  1.449118395E+01  3.158514451E+01  4.104577920E+01  5.378077497E+01  4.768371582E-07  0.00000E+00  9.000E+00
#rwgt            1           1   2.8776568600636133E-002           8      334718           0
</event>
<event>
      5   9999  3.19816E-02  3.69854E+02 -1.00000E+00  1.02720E-01
       2    -1     0     0   502     0  0.000000000E+00  0.000000000E+00  3.456436887E+03  3.456436887E+03  0.000000000E+00  0.00000E+00  9.000E+00
      21    -1     0     0   501   502  0.000000000E+00  0.000000000E+00 -1.035186730E+02  1.035186730E+02  0.000000000E+00  0.00000E+00  9.000E+00
      25     1     1     2     0     0  1.244160358E+02  1.516525744E+02  4.798558413E+02  5.332583630E+02  1.250000000E+02  0.00000E+00  9.000E+00
      25     1     1     2     0     0 -4.565671074E+02  1.103714974E+01  8.770061071E+02  9.966644642E+02  1.250000000E+02  0.00000E+00  9.000E+00
       2     1     1     2   501     0  3.321510716E+02 -1.626897241E+02  1.996056265E+03  2.030032732E+03  2.157918644E-05  0.00000E+00  9.000E+00
#rwgt            1           1   2.5987875251960096E-002           8      334885           0
</event>
<event>
      5   9999  3.19816E-02  7.21652E+01 -1.00000E+00  1.30554E-01
      21    -1     0     0   502   501  0.000000000E+00  0.000000000E+00  2.065187802E+02  2.065187802E+02  0.000000000E+00  0.00000E+00  9.000E+00
      21    -1     0     0   501   511  0.000000000E+00  0.000000000E+00 -5.971841124E+02  5.971841124E+02  0.000000000E+00  0.00000E+00  9.000E+00
      25     1     1     2     0     0  1.488951083E+02 -2.301347878E+02 -1.923062672E+02  3.574051962E+02  1.250000000E+02  0.00000E+00  9.000E+00
      25     1     1     2     0     0 -2.176563702E+02  2.082326480E+02 -1.470311117E+02  3.577405191E+02  1.250000000E+02  0.00000E+00  9.000E+00
      21     1     1     2   502   511  6.876126187E+01  2.190213979E+01 -5.132795323E+01  8.855717726E+01  1.507891493E-06  0.00000E+00  9.000E+00
#rwgt            1           1   2.4692998352584389E-002           8      334937           0
</event>
<event>
      5   9999  3.19816E-02  6.49030E+01 -1.00000E+00  1.32905E-01
      21    -1     0     0   512   501  0.000000000E+00  0.000000000E+00  8.324004759E+01  8.324004759E+01  0.000000000E+00  0.00000E+00  9.000E+00
      21    -1     0     0   501   502  0.000000000E+00  0.000000000E+00 -6.412455600E+02  6.412455600E+02  0.000000000E+00  0.00000E+00  9.000E+00
      25     1     1     2     0     0 -8.266758408E+01  4.217552298E+01 -4.448877781E+02  4.713415315E+02  1.250000000E+02  0.00000E+00  9.000E+00
      25     1     1     2     0     0  4.131081408E+01 -9.219569476E+01 -7.053460469E+01  1.755185459E+02  1.250000000E+02  0.00000E+00  9.000E+00
      21     1     1     2   512   502  4.135677000E+01  5.002017178E+01 -4.258312955E+01  7.762553015E+01  0.000000000E+00  0.00000E+00  9.000E+00
#rwgt            1           1   2.5502791335510182E-002           8      335003           0
</event>
<event>
      5   9999  3.19816E-02  8.67136E+01 -1.00000E+00  1.26678E-01
      21    -1     0     0   502   501  0.000000000E+00  0.000000000E+00  1.922230714E+02  1.922230714E+02  0.000000000E+00  0.00000E+00  9.000E+00
      21    -1     0     0   501   511  0.000000000E+00  0.000000000E+00 -2.084589147E+03  2.084589147E+03  0.000000000E+00  0.00000E+00  9.000E+00
      25     1     1     2     0     0  1.399188750E+02  1.793580393E+01 -1.995214254E+02  2.744681837E+02  1.250000000E+02  0.00000E+00  9.000E+00
      25     1     1     2     0     0 -1.022728829E+02 -9.605122971E+01  9.626521093E+01  2.111340147E+02  1.250000000E+02  0.00000E+00  9.000E+00
      21     1     1     2   502   511 -3.764599213E+01  7.811542578E+01 -1.789109862E+03  1.791210021E+03  2.157918644E-05  0.00000E+00  9.000E+00
#rwgt            1           1   2.8815331153448080E-002           8      335078           0
</event>
<event>
      5   9999  3.19816E-02  5.96939E+01 -1.00000E+00  1.34822E-01
      21    -1     0     0   502   512  0.000000000E+00  0.000000000E+00  3.670137629E+02  3.670137629E+02  0.000000000E+00  0.00000E+00  9.000E+00
      21    -1     0     0   501   502  0.000000000E+00  0.000000000E+00 -1.589426245E+03  1.589426245E+03  0.000000000E+00  0.00000E+00  9.000E+00
      25     1     1     2     0     0  5.405373309E+02 -2.997985373E+02 -2.564075317E+02  6.807566316E+02  1.250000000E+02  0.00000E+00  9.000E+00
      25     1     1     2     0     0 -5.452845516E+02  3.593033999E+02 -1.004533421E+03  1.204635450E+03  1.250000000E+02  0.00000E+00  9.000E+00
      21     1     1     2   501   512  4.747220668E+00 -5.950486254E+01  3.852847014E+01  7.104792594E+01  1.261592536E-06  0.00000E+00  9.000E+00
#rwgt            1           1   3.0961610742829073E-002           8      335134           0
</event>
<event>
      5   9999  3.19816E-02  3.53535E+01 -1.00000E+00  1.48246E-01
      21    -1     0     0   511   501  0.000000000E+00  0.000000000E+00  2.999507542E+02  2.999507542E+02  0.000000000E+00  0.00000E+00  9.000E+00
      21    -1     0     0   501   502  0.000000000E+00  0.000000000E+00 -7.024333286E+02  7.024333286E+02  0.000000000E+00  0.00000E+00  9.000E+00
      25     1     1     2     0     0  1.085697946E+02 -5.158673647E+01 -4.258792066E+02  4.598333288E+02  1.250000000E+02  0.00000E+00  9.000E+00
      25     1     1     2     0     0 -1.404954090E+02  6.677316102E+01 -2.197555291E+02  2.968418899E+02  1.250000000E+02  0.00000E+00  9.000E+00
      21     1     1     2   511   502  3.192561445E+01 -1.518642455E+01  2.431521613E+02  2.457088641E+02  3.814697266E-06  0.00000E+00  9.000E+00
#rwgt            1           1   3.2779697039326275E-002           8      335295           0
</event>
<event>
      5   9999  3.19816E-02  2.28660E+02 -1.00000E+00  1.09571E-01
      21    -1     0     0   502   501  0.000000000E+00  0.000000000E+00  1.892173732E+02  1.892173732E+02  0.000000000E+00  0.00000E+00  9.000E+00
       2    -1     0     0   501     0  0.000000000E+00  0.000000000E+00 -2.193810830E+03  2.193810830E+03  0.000000000E+00  0.00000E+00  9.000E+00
      25     1     1     2     0     0  4.009152572E+01  3.154078740E+01 -4.201147064E+01  1.413934771E+02  1.250000000E+02  0.00000E+00  9.000E+00
      25     1     1     2     0     0 -2.371429403E+02  8.445903807E+01 -1.583662638E+01  2.815064866E+02  1.250000000E+02  0.00000E+00  9.000E+00
       2     1     1     2   502     0  1.970514146E+02 -1.159998255E+02 -1.946745360E+03  1.960128240E+03  3.051757812E-05  0.00000E+00  9.000E+00
#rwgt            2          13   5.9658709414685679E-003           8      335477           0
</event>
<event>
      5   9999  3.19816E-02  7.64114E+01 -1.00000E+00  1.29322E-01
      21    -1     0     0   502   501  0.000000000E+00  0.000000000E+00  3.081305705E+02  3.081305705E+02  0.000000000E+00  0.00000E+00  9.000E+00
      21    -1     0     0   511   502  0.000000000E+00  0.000000000E+00 -3.814690502E+02  3.814690502E+02  0.000000000E+00  0.00000E+00  9.000E+00
      25     1     1     2     0     0  1.833374896E+01 -2.932484565E+02 -2.898053387E+01  3.206176149E+02  1.250000000E+02  0.00000E+00  9.000E+00
      25     1     1     2     0     0  2.918566541E+01  2.334103429E+02  2.266661731E+01  2.673405445E+02  1.250000000E+02  0.00000E+00  9.000E+00
      21     1     1     2   511   501 -4.751941438E+01  5.983811369E+01 -6.702456314E+01  1.016414613E+02  1.348699152E-06  0.00000E+00  9.000E+00
#rwgt            2          11   2.3382169626694660E-003           8      335616           0
</event>
<event>
      5   9999  3.19816E-02  1.06408E+02 -1.00000E+00  1.22627E-01
      21    -1     0     0   502   501  0.000000000E+00  0.000000000E+00  5.790550978E+01  5.790550978E+01  0.000000000E+00  0.00000E+00  9.000E+00
       2    -1     0     0   501     0  0.000000000E+00  0.000000000E+00 -1.116533396E+03  1.116533396E+03  0.000000000E+00  0.00000E+00  9.000E+00
      25     1     1     2     0     0  5.300306737E+01  3.381128217E+01 -9.226559175E+01  1.676021103E+02  1.250000000E+02  0.00000E+00  9.000E+00
      25     1     1     2     0     0 -1.065866505E+02  5.812020642E+01 -6.555906114E+02  6.783529481E+02  1.250000000E+02  0.00000E+00  9.000E+00
       2     1     1     2   502     0  5.358358316E+01 -9.193148859E+01 -3.107716828E+02  3.284838471E+02  3.814697266E-06  0.00000E+00  9.000E+00
#rwgt            1           1   3.3702769637788427E-002           8      335636           0
</event>
<event>
      5   9999  3.19816E-02  5.08629E+01 -1.00000E+00  1.38653E-01
      21    -1     0     0   511   501  0.000000000E+00  0.000000000E+00  9.167622051E+02  9.167622051E+02  0.000000000E+00  0.00000E+00  9.000E+00
      21    -1     0     0   501   502  0.000000000E+00  0.000000000E+00 -1.628709728E+02  1.628709728E+02  0.000000000E+00  0.00000E+00  9.000E+00
      25     1     1     2     0     0  1.728867233E+02  1.614708596E+02  2.018093336E+00  2.675663101E+02  1.250000000E+02  0.00000E+00  9.000E+00
      25     1     1     2     0     0 -1.877000985E+02 -1.128128757E+02  6.676078249E+02  7.136408619E+02  1.250000000E+02  0.00000E+00  9.000E+00
      21     1     1     2   511   502  1.481337520E+01 -4.865798382E+01  8.426531406E+01  9.842600585E+01  1.348699152E-06  0.00000E+00  9.000E+00
#rwgt            1           1   2.6452052385831825E-002           8      335693           0
</event>
<event>
      5   9999  3.19816E-02  2.91886E+02 -1.00000E+00  1.05980E-01
      21    -1     0     0   512   501  0.000000000E+00  0.000000000E+00  6.436998069E+02  6.436998069E+02  0.000000000E+00  0.00000E+00  9.000E+00
      21    -1     0     0   501   502  0.000000000E+00  0.000000000E+00 -6.633742081E+02  6.633742081E+02  0.000000000E+00  0.00000E+00  9.000E+00
      25     1     1     2     0     0  5.939476529E+01  4.840512614E+02  1.598803122E+02  5.282235095E+02  1.250000000E+02  0.00000E+00  9.000E+00
      25     1     1     2     0     0 -8.658929812E+01 -1.934351577E+02 -3.597347929E+02  4.358313757E+02  1.250000000E+02  0.00000E+00  9.000E+00
      21     1     1     2   512   502  2.719453282E+01 -2.906161036E+02  1.801800795E+02  3.430191297E+02  5.046370146E-06  0.00000E+00  9.000E+00
#rwgt            2          11   3.3886088800865158E-003           8      335923           0
</event>
<event>
      5   9999  3.19816E-02  9.03707E+01 -1.00000E+00  1.25839E-01
      21    -1     0     0   502   501  0.000000000E+00  0.000000000E+00  3.332460298E+02  3.332460298E+02  0.000000000E+00  0.00000E+00  9.000E+00
      21    -1     0     0   511   502  0.000000000E+00  0.000000000E+00 -4.704588142E+02  4.704588142E+02  0.000000000E+00  0.00000E+00  9.000E+00
      25     1     1     2     0     0  1.071143437E+02 -1.485154278E+02  2.531252302E+02  3.364932348E+02  1.250000000E+02  0.00000E+00  9.000E+00
      25     1     1     2     0     0 -7.157639577E+01  6.542557199E+01 -1.886739365E+02  2.462245728E+02  1.250000000E+02  0.00000E+00  9.000E+00
      21     1     1     2   511   501 -3.553794794E+01  8.308985577E+01 -2.016640781E+02  2.209870364E+02  0.000000000E+00  0.00000E+00  9.000E+00
#rwgt            1           1   3.2006683260237152E-002           8      335958           0
</event>
<event>
      5   9999  3.19816E-02  8.04130E+01 -1.00000E+00  1.28241E-01
      21    -1     0     0   502   501  0.000000000E+00  0.000000000E+00  2.941768363E+02  2.941768363E+02  0.000000000E+00  0.00000E+00  9.000E+00
      21    -1     0     0   501   512  0.000000000E+00  0.000000000E+00 -7.744860256E+02  7.744860256E+02  0.000000000E+00  0.00000E+00  9.000E+00
      25     1     1     2     0     0 -5.733661794E+01 -1.961416425E+01  2.361327412E+02  2.739632725E+02  1.250000000E+02  0.00000E+00  9.000E+00
      25     1     1     2     0     0  1.220904036E+02  6.729214652E+01 -2.076933616E+02  2.796351768E+02  1.250000000E+02  0.00000E+00  9.000E+00
      21     1     1     2   502   512 -6.475378563E+01 -4.767798227E+01 -5.087485689E+02  5.150644126E+02  5.394796609E-06  0.00000E+00  9.000E+00
#rwgt            1           1   2.6941194233996581E-002           8      336001           0
</event>
<event>
      5   9999  3.92654E-02  3.14285E+02 -1.00000E+00  1.04940E-01
       2    -1     0     0   502     0  0.000000000E+00  0.000000000E+00  1.273123625E+03  1.273123625E+03  0.000000000E+00  0.00000E+00  9.000E+00
      21    -1     0     0   501   502  0.000000000E+00  0.000000000E+00 -2.727255232E+03  2.727255232E+03  0.000000000E+00  0.00000E+00  9.000E+00
      25     1     1     2     0     0 -1.167864944E+02 -9.375709996E+01 -7.711853594E+02  7.954755418E+02  1.250000000E+02  0.00000E+00  9.000E+00
      25     1     1     2     0     0 -1.934035918E+02  1.443277083E+02 -1.914595252E+03  1.933787841E+03  1.250000000E+02  0.00000E+00  9.000E+00
       2     1     1     2   501     0  3.101900862E+02 -5.057060834E+01  1.231649005E+03  1.271115473E+03  1.525878906E-05  0.00000E+00  9.000E+00
#rwgt            2          18  0.14754350893638485                8      336242           0
</event>
<event>
      5   9999  3.19816E-02  9.23808E+01 -1.00000E+00  1.25396E-01
      21    -1     0     0   502   501  0.000000000E+00  0.000000000E+00  1.787273798E+03  1.787273798E+03  0.000000000E+00  0.00000E+00  9.000E+00
      21    -1     0     0   511   502  0.000000000E+00  0.000000000E+00 -9.798726818E+02  9.798726818E+02  0.000000000E+00  0.00000E+00  9.000E+00
      25     1     1     2     0     0  5.398106888E+02 -1.708373213E+02 -9.483986333E+01  5.875377178E+02  1.250000000E+02  0.00000E+00  9.000E+00
      25     1     1     2     0     0 -4.474629578E+02  1.683665552E+02  1.497652748E+03  1.577072969E+03  1.250000000E+02  0.00000E+00  9.000E+00
      21     1     1     2   511   501 -9.234773103E+01  2.470766163E+00 -5.954117684E+02  6.025357932E+02  1.078959322E-05  0.00000E+00  9.000E+00
#rwgt            1           1   2.7655955728219460E-002           8      336261           0
</event>
<event>
      5   9999  3.19816E-02  4.18162E+01 -1.00000E+00  1.43654E-01
      21    -1     0     0   502   501  0.000000000E+00  0.000000000E+00  1.083956323E+02  1.083956323E+02  0.000000000E+00  0.00000E+00  9.000E+00
      21    -1     0     0   501   512  0.000000000E+00  0.000000000E+00 -5.746791379E+02  5.746791379E+02  0.000000000E+00  0.00000E+00  9.000E+00
      25     1     1     2     0     0  1.747891507E+01  1.823946304E+02 -1.730308028E+02  2.813147212E+02  1.250000000E+02  0.00000E+00  9.000E+00
      25     1     1     2     0     0 -5.765397645E+01 -1.707946409E+02 -1.894335668E+02  2.898359305E+02  1.250000000E+02  0.00000E+00  9.000E+00
      21     1     1     2   502   512  4.017506138E+01 -1.159998948E+01 -1.038191360E+02  1.119241185E+02  0.000000000E+00  0.00000E+00  9.000E+00
#rwgt            1           1   2.7414534529385276E-002           8      336348           0
</event>
<event>
      5   9999  3.19816E-02  4.03383E+01 -1.00000E+00  1.44614E-01
      21    -1     0     0   511   501  0.000000000E+00  0.000000000E+00  3.908810475E+02  3.908810475E+02  0.000000000E+00  0.00000E+00  9.000E+00
      21    -1     0     0   501   502  0.000000000E+00  0.000000000E+00 -1.177643959E+02  1.177643959E+02  0.000000000E+00  0.00000E+00  9.000E+00
      25     1     1     2     0     0 -6.878269692E+01 -8.653244536E+01  6.748838336E+00  1.670014081E+02  1.250000000E+02  0.00000E+00  9.000E+00
      25     1     1     2     0     0  9.725749734E+01  5.796029568E+01  2.404397626E+02  2.936914982E+02  1.250000000E+02  0.00000E+00  9.000E+00
      21     1     1     2   511   502 -2.847480043E+01  2.857214968E+01  2.592805067E+01  4.795253704E+01  5.840038640E-07  0.00000E+00  9.000E+00
#rwgt            1           1   3.1936155354983446E-002           8      336434           0
</event>
<event>
      5   9999  3.19816E-02  3.78772E+01 -1.00000E+00  1.46324E-01
      21    -1     0     0   502   501  0.000000000E+00  0.000000000E+00  3.172471295E+02  3.172471295E+02  0.000000000E+00  0.00000E+00  9.000E+00
      21    -1     0     0   512   502  0.000000000E+00  0.000000000E+00 -3.945255866E+02  3.945255866E+02  0.000000000E+00  0.00000E+00  9.000E+00
      25     1     1     2     0     0 -1.940617477E+02  4.956679961E+01  1.521896657E+02  2.808977108E+02  1.250000000E+02  0.00000E+00  9.000E+00
      25     1     1     2     0     0  1.868433977E+02 -1.238372304E+01 -2.916602433E+01  2.270230580E+02  1.250000000E+02  0.00000E+00  9.000E+00
      21     1     1     2   512   501  7.218350000E+00 -3.718307657E+01 -2.003020985E+02  2.038519473E+02  0.000000000E+00  0.00000E+00  9.000E+00
#rwgt            1           1   2.6146094785934201E-002           8      336502           0
</event>
<event>
      5   9999  3.19816E-02  2.12937E+01 -1.00000E+00  1.64154E-01
      21    -1     0     0   502   501  0.000000000E+00  0.000000000E+00  6.893353054E+01  6.893353054E+01  0.000000000E+00  0.00000E+00  9.000E+00
      21    -1     0     0   501   511  0.000000000E+00  0.000000000E+00 -2.800083668E+03  2.800083668E+03  0.000000000E+00  0.00000E+00  9.000E+00
      25     1     1     2     0     0 -3.961676735E+02 -1.063976241E+01 -1.235816870E+03  1.303813778E+03  1.250000000E+02  0.00000E+00  9.000E+00
      25     1     1     2     0     0  3.911000882E+02  3.132167857E+01 -1.191972799E+03  1.261096539E+03  1.250000000E+02  0.00000E+00  9.000E+00
      21     1     1     2   502   511  5.067585254E+00 -2.068191616E+01 -3.033604679E+02  3.041068818E+02  0.000000000E+00  0.00000E+00  9.000E+00
#rwgt            1           1   4.8696374873394559E-002           8      336622           0
</event>
<event>
      5   9999  3.19816E-02  3.53249E+01 -1.00000E+00  1.48269E-01
       2    -1     0     0   502     0  0.000000000E+00  0.000000000E+00  3.544797519E+02  3.544797519E+02  0.000000000E+00  0.00000E+00  9.000E+00
      21    -1     0     0   501   502  0.000000000E+00  0.000000000E+00 -2.496069397E+02  2.496069397E+02  0.000000000E+00  0.00000E+00  9.000E+00
      25     1     1     2     0     0  2.540126985E+02  5.990553842E+01  8.098442325E+01  3.004906011E+02  1.250000000E+02  0.00000E+00  9.000E+00
      25     1     1     2     0     0 -2.256346477E+02 -3.886899471E+01  4.147685167E+01  2.641346669E+02  1.250000000E+02  0.00000E+00  9.000E+00
       2     1     1     2   501     0 -2.837805078E+01 -2.103654371E+01 -1.758846271E+01  3.946142367E+01  2.384185791E-07  0.00000E+00  9.000E+00
#rwgt            1           1   2.9201682771998291E-002           8      336786           0
</event>
<event>
      5   9999  3.19816E-02  4.96733E+01 -1.00000E+00  1.39238E-01
      21    -1     0     0   502   501  0.000000000E+00  0.000000000E+00  2.052360484E+03  2.052360484E+03  0.000000000E+00  0.00000E+00  9.000E+00
      -5    -1     0     0     0   502  0.000000000E+00  0.000000000E+00 -2.497922346E+02  2.497922346E+02  0.000000000E+00  0.00000E+00  9.000E+00
      25     1     1     2     0     0 -3.422392715E+02  4.569497999E+02  1.502338397E+03  1.612010080E+03  1.250000000E+02  0.00000E+00  9.000E+00
      25     1     1     2     0     0  2.926375016E+02 -4.542853552E+02  3.155898339E+02  6.381487558E+02  1.250000000E+02  0.00000E+00  9.000E+00
      -5     1     1     2     0   501  4.960176991E+01 -2.664444695E+00 -1.535998132E+01  5.199388301E+01  1.719260824E-06  0.00000E+00  9.000E+00
#rwgt            1           1   2.6149457348799025E-002           8      336851           0
</event>
<event>
      5   9999  3.19816E-02  1.62810E+02 -1.00000E+00  1.15000E-01
      21    -1     0     0   502   501  0.000000000E+00  0.000000000E+00  8.947212854E+02  8.947212854E+02  0.000000000E+00  0.00000E+00  9.000E+00
      21    -1     0     0   511   502  0.000000000E+00  0.000000000E+00 -3.892629855E+02  3.892629855E+02  0.000000000E+00  0.00000E+00  9.000E+00
      25     1     1     2     0     0  2.523906540E+02  3.511317258E+02 -6.043081752E+01  4.541711294E+02  1.250000000E+02  0.00000E+00  9.000E+00
      25     1     1     2     0     0 -9.011083033E+01 -3.380063279E+02  5.534108125E+02  6.665258936E+02  1.250000000E+02  0.00000E+00  9.000E+00
      21     1     1     2   511   501 -1.622798237E+02 -1.312539787E+01  1.247830485E+01  1.632872479E+02  1.039242493E-06  0.00000E+00  9.000E+00
#rwgt            1           1   2.7123627417047026E-002           8      336974           0
</event>
<event>
      5   9999  3.19816E-02  1.65160E+01 -1.00000E+00  1.73533E-01
      21    -1     0     0   502   501  0.000000000E+00  0.000000000E+00  7.789597220E+02  7.789597220E+02  0.000000000E+00  0.00000E+00  9.000E+00
      21    -1     0     0   512   502  0.000000000E+00  0.000000000E+00 -7.298290404E+01  7.298290404E+01  0.000000000E+00  0.00000E+00  9.000E+00
      25     1     1     2     0     0 -4.060695959E+00  1.395980413E+02  1.074502013E+02  2.160431627E+02  1.250000000E+02  0.00000E+00  9.000E+00
      25     1     1     2     0     0 -1.219937500E+01 -1.424941924E+02  5.832577177E+02  6.134068673E+02  1.250000000E+02  0.00000E+00  9.000E+00
      21     1     1     2   512   501  1.626007096E+01  2.896151037E+00  1.526889894E+01  2.249259596E+01  5.057621821E-07  0.00000E+00  9.000E+00
#rwgt            1           1   2.8578295278423083E-002           8      337020           0
</event>
<event>
      5   9999  3.19816E-02  1.81921E+01 -1.00000E+00  1.69837E-01
      21    -1     0     0   502   511  0.000000000E+00  0.000000000E+00  4.348095262E+02  4.348095262E+02  0.000000000E+00  0.00000E+00  9.000E+00
      21    -1     0     0   501   502  0.000000000E+00  0.000000000E+00 -6.078026864E+02  6.078026864E+02  0.000000000E+00  0.00000E+00  9.000E+00
      25     1     1     2     0     0  7.877947357E+00  1.755822917E+02 -4.394782597E+02  4.895481018E+02  1.250000000E+02  0.00000E+00  9.000E+00
      25     1     1     2     0     0  3.928695679E+00 -1.617419224E+02 -6.998768762E+01  2.160998855E+02  1.250000000E+02  0.00000E+00  9.000E+00
      21     1     1     2   501   511 -1.180664304E+01 -1.384036936E+01  3.364727871E+02  3.369642253E+02  0.000000000E+00  0.00000E+00  9.000E+00
#rwgt            1           1   2.5104287655648101E-002           8      337249           0
</event>
<event>
      5   9999  3.19816E-02  1.86613E+02 -1.00000E+00  1.12754E-01
      21    -1     0     0   502   501  0.000000000E+00  0.000000000E+00  6.523098955E+02  6.523098955E+02  0.000000000E+00  0.00000E+00  9.000E+00
      21    -1     0     0   501   512  0.000000000E+00  0.000000000E+00 -5.615524244E+02  5.615524244E+02  0.000000000E+00  0.00000E+00  9.000E+00
      25     1     1     2     0     0 -1.135829860E+02  4.001645251E+02  4.357175543E+02  6.152296555E+02  1.250000000E+02  0.00000E+00  9.000E+00
      25     1     1     2     0     0  1.192249153E+02 -2.136367028E+02 -2.997757234E+02  4.066272317E+02  1.250000000E+02  0.00000E+00  9.000E+00
      21     1     1     2   502   512 -5.641929307E+00 -1.865278223E+02 -4.518435984E+01  1.920054328E+02  2.739220927E-06  0.00000E+00  9.000E+00
#rwgt            1           1   3.0773923568467587E-002           8      337437           0
</event>
<event>
      5   9999  3.19816E-02  2.54820E+01 -1.00000E+00  1.58132E-01
      21    -1     0     0   502   511  0.000000000E+00  0.000000000E+00  1.086083934E+03  1.086083934E+03  0.000000000E+00  0.00000E+00  9.000E+00
      21    -1     0     0   501   502  0.000000000E+00  0.000000000E+00 -7.627738002E+01  7.627738002E+01  0.000000000E+00  0.00000E+00  9.000E+00
      25     1     1     2     0     0  1.093150721E+02  3.000424419E+01  5.605515727E+02  5.853999533E+02  1.250000000E+02  0.00000E+00  9.000E+00
      25     1     1     2     0     0 -9.674663909E+01 -5.217102991E+01  4.571397987E+01  1.726166171E+02  1.250000000E+02  0.00000E+00  9.000E+00
      21     1     1     2   501   511 -1.256843299E+01  2.216678572E+01  4.035410019E+02  4.043447441E+02  0.000000000E+00  0.00000E+00  9.000E+00
#rwgt            1           1   2.5837648620280484E-002           8      337499           0
</event>
<event>
      5   9999  3.19816E-02  8.00014E+01 -1.00000E+00  1.28349E-01
      21    -1     0     0   502   501  0.000000000E+00  0.000000000E+00  5.419267399E+02  5.419267399E+02  0.000000000E+00  0.00000E+00  9.000E+00
      21    -1     0     0   512   502  0.000000000E+00  0.000000000E+00 -1.710388797E+03  1.710388797E+03  0.000000000E+00  0.00000E+00  9.000E+00
      25     1     1     2     0     0 -1.509255503E+01  2.192984880E+02  3.636202389E+02  4.429043804E+02  1.250000000E+02  0.00000E+00  9.000E+00
      25     1     1     2     0     0  9.438343914E+01 -2.086597433E+02  1.397978734E+01  2.612806088E+02  1.250000000E+02  0.00000E+00  9.000E+00
      21     1     1     2   512   501 -7.929088411E+01 -1.063874471E+01 -1.546062084E+03  1.548130548E+03  2.157918644E-05  0.00000E+00  9.000E+00
#rwgt            1           1   2.7299328509864246E-002           8      337630           0
</event>
<event>
      5   9999  3.19816E-02  4.25409E+01 -1.00000E+00  1.43201E-01
      21    -1     0     0   502   501  0.000000000E+00  0.000000000E+00  9.660105653E+01  9.660105653E+01  0.000000000E+00  0.00000E+00  9.000E+00
      21    -1     0     0   501   511  0.000000000E+00  0.000000000E+00 -6.835786124E+02  6.835786124E+02  0.000000000E+00  0.00000E+00  9.000E+00
      25     1     1     2     0     0 -3.259927514E+01 -8.898838996E+01  6.813183187E+00  1.570129477E+02  1.250000000E+02  0.00000E+00  9.000E+00
      25     1     1     2     0     0 -2.613287509E+00  6.511780680E+01 -3.828312034E+02  4.079606455E+02  1.250000000E+02  0.00000E+00  9.000E+00
      21     1     1     2   502   511  3.521256265E+01  2.387058316E+01 -2.109595356E+02  2.152060756E+02  2.697398305E-06  0.00000E+00  9.000E+00
#rwgt            1           1   2.6240225344941821E-002           8      337737           0
</event>
<event>
      5   9999  3.19816E-02  1.83389E+02 -1.00000E+00  1.13036E-01
      21    -1     0     0   502   512  0.000000000E+00  0.000000000E+00  2.130625358E+03  2.130625358E+03  0.000000000E+00  0.00000E+00  9.000E+00
      21    -1     0     0   501   502  0.000000000E+00  0.000000000E+00 -5.350209136E+02  5.350209136E+02  0.000000000E+00  0.00000E+00  9.000E+00
      25     1     1     2     0     0  2.134148772E+02 -9.776212823E+01 -4.505220251E+02  5.231619622E+02  1.250000000E+02  0.00000E+00  9.000E+00
      25     1     1     2     0     0 -6.103836351E+01  1.998060134E+02  1.877923777E+03  1.893639575E+03  1.250000000E+02  0.00000E+00  9.000E+00
      21     1     1     2   501   512 -1.523765137E+02 -1.020438852E+02  1.682026923E+02  2.488447350E+02  4.264961200E-06  0.00000E+00  9.000E+00
#rwgt            1           1   2.9745946525251771E-002           8      337809           0
</event>
<event>
      5   9999  3.19816E-02  3.91868E+01 -1.00000E+00  1.45396E-01
      21    -1     0     0   511   501  0.000000000E+00  0.000000000E+00  8.262832591E+02  8.262832591E+02  0.000000000E+00  0.00000E+00  9.000E+00
      21    -1     0     0   501   502  0.000000000E+00  0.000000000E+00 -2.840195508E+02  2.840195508E+02  0.000000000E+00  0.00000E+00  9.000E+00
      25     1     1     2     0     0 -1.711228585E+02  3.800129124E+02  2.954620981E+02  5.259426753E+02  1.250000000E+02  0.00000E+00  9.000E+00
      25     1     1     2     0     0  1.839276979E+02 -3.429771998E+02  8.451491542E+01  4.174093058E+02  1.250000000E+02  0.00000E+00  9.000E+00
      21     1     1     2   511   502 -1.280483944E+01 -3.703571253E+01  1.622866948E+02  1.669508287E+02  1.907348633E-06  0.00000E+00  9.000E+00
#rwgt            1           1   2.9354921815157982E-002           8      337895           0
</event>
<event>
      5   9999  3.19816E-02  2.21730E+02 -1.00000E+00  1.10041E-01
      -3    -1     0     0     0   501  0.000000000E+00  0.000000000E+00  1.056968702E+03  1.056968702E+03  0.000000000E+00  0.00000E+00  9.000E+00
      21    -1     0     0   501   502  0.000000000E+00  0.000000000E+00 -7.732405637E+02  7.732405637E+02  0.000000000E+00  0.00000E+00  9.000E+00
      25     1     1     2     0     0  7.494793154E+02  1.195998987E+02 -6.722705792E+01  7.721190694E+02  1.250000000E+02  0.00000E+00  9.000E+00
      25     1     1     2     0     0 -6.883790163E+02 -3.327453524E+02  2.466153126E+02  8.130370545E+02  1.250000000E+02  0.00000E+00  9.000E+00
      -3     1     1     2     0   502 -6.110029913E+01  2.131454536E+02  1.043398837E+02  2.450531418E+02  4.046097457E-06  0.00000E+00  9.000E+00
#rwgt            2           3   2.8696495360952748E-005           8      338001           0
</event>
<event>
      5   9999  3.19816E-02  1.52534E+02 -1.00000E+00  1.16106E-01
      21    -1     0     0   502   501  0.000000000E+00  0.000000000E+00  2.429379211E+02  2.429379211E+02  0.000000000E+00  0.00000E+00  9.000E+00
      21    -1     0     0   511   502  0.000000000E+00  0.000000000E+00 -3.863508789E+02  3.863508789E+02  0.000000000E+00  0.00000E+00  9.000E+00
      25     1     1     2     0     0 -4.852724396E+01 -1.079182447E+02 -1.697483637E+02  2.417452129E+02  1.250000000E+02  0.00000E+00  9.000E+00
      25     1     1     2     0     0 -9.778743433E+01  1.510303194E+02  6.804946734E+01  2.294085214E+02  1.250000000E+02  0.00000E+00  9.000E+00
      21     1     1     2   511   501  1.463146783E+02 -4.311207470E+01 -4.171406146E+01  1.581350657E+02  1.430511475E-06  0.00000E+00  9.000E+00
#rwgt            1           1   2.2487961594939151E-002           8      338035           0
</event>
<event>
      5   9999  3.19816E-02  9.58750E+01 -1.00000E+00  1.24656E-01
      21    -1     0     0   512   501  0.000000000E+00  0.000000000E+00  2.313178553E+03  2.313178553E+03  0.000000000E+00  0.00000E+00  9.000E+00
      21    -1     0     0   501   502  0.000000000E+00  0.000000000E+00 -1.327609410E+03  1.327609410E+03  0.000000000E+00  0.00000E+00  9.000E+00
      25     1     1     2     0     0 -1.039899960E+03  5.042246359E+02  9.338363880E+02  1.491076728E+03  1.250000000E+02  0.00000E+00  9.000E+00
      25     1     1     2     0     0  1.117780569E+03 -5.601409013E+02 -6.683982554E+02  1.423226074E+03  1.250000000E+02  0.00000E+00  9.000E+00
      21     1     1     2   512   502 -7.788060902E+01  5.591626540E+01  7.201310099E+02  7.264851612E+02  1.078959322E-05  0.00000E+00  9.000E+00
#rwgt            1           1   5.3630884389381780E-002           8      338081           0
</event>
<event>
      5   9999  3.19816E-02  4.34862E+02 -1.00000E+00  1.00605E-01
      21    -1     0     0   511   501  0.000000000E+00  0.000000000E+00  4.489985240E+02  4.489985240E+02  0.000000000E+00  0.00000E+00  9.000E+00
      21    -1     0     0   501   502  0.000000000E+00  0.000000000E+00 -5.327656339E+02  5.327656339E+02  0.000000000E+00  0.00000E+00  9.000E+00
      25     1     1     2     0     0  3.686925407E+01 -3.302999777E+02 -4.265171894E+01  3.576333126E+02  1.250000000E+02  0.00000E+00  9.000E+00
      25     1     1     2     0     0 -9.778528754E+01 -1.002742747E+02 -5.423196203E+00  1.878065592E+02  1.250000000E+02  0.00000E+00  9.000E+00
      21     1     1     2   511   502  6.091603347E+01  4.305742523E+02 -3.569219473E+01  4.363242861E+02  6.253660702E-06  0.00000E+00  9.000E+00
#rwgt            2          11   1.1694656575560040E-002           8      338220           0
</event>
<event>
      5   9999  3.19816E-02  2.12662E+02 -1.00000E+00  1.10686E-01
      21    -1     0     0   502   501  0.000000000E+00  0.000000000E+00  7.667825613E+02  7.667825613E+02  0.000000000E+00  0.00000E+00  9.000E+00
      21    -1     0     0   512   502  0.000000000E+00  0.000000000E+00 -1.042965916E+03  1.042965916E+03  0.000000000E+00  0.00000E+00  9.000E+00
      25     1     1     2     0     0  2.791015295E+02 -5.306275150E+02  2.276613335E+02  6.533895517E+02  1.250000000E+02  0.00000E+00  9.000E+00
      25     1     1     2     0     0 -4.242395198E+02  6.860626905E+02 -3.253430079E+02  8.787117037E+02  1.250000000E+02  0.00000E+00  9.000E+00
      21     1     1     2   512   501  1.451379903E+02 -1.554351754E+02 -1.785016804E+02  2.776472220E+02  5.394796609E-06  0.00000E+00  9.000E+00
#rwgt            2          11   5.7354160038719819E-003           8      338255           0
</event>
<event>
      5   9999  3.19816E-02  1.13818E+02 -1.00000E+00  1.21351E-01
      21    -1     0     0   502   501  0.000000000E+00  0.000000000E+00  4.694946835E+01  4.694946835E+01  0.000000000E+00  0.00000E+00  9.000E+00
      21    -1     0     0   501   511  0.000000000E+00  0.000000000E+00 -4.988190092E+03  4.988190092E+03  0.000000000E+00  0.00000E+00  9.000E+00
      25     1     1     2     0     0  5.563151022E+01  2.505697449E+02 -6.289679858E+02  6.907284482E+02  1.250000000E+02  0.00000E+00  9.000E+00
      25     1     1     2     0     0 -3.244428165E+01 -3.620010922E+02 -2.587793477E+03  2.616179944E+03  1.250000000E+02  0.00000E+00  9.000E+00
      21     1     1     2   502   511 -2.318722858E+01  1.114313473E+02 -1.724479161E+03  1.728231168E+03  2.157918644E-05  0.00000E+00  9.000E+00
#rwgt            1           1   2.7727867689276951E-002           8      338275           0
</event>
<event>
      5   9999  3.19816E-02  4.27327E+01 -1.00000E+00  1.43082E-01
      21    -1     0     0   502   501  0.000000000E+00  0.000000000E+00  1.181029014E+03  1.181029014E+03  0.000000000E+00  0.00000E+00  9.000E+00
      21    -1     0     0   512   502  0.000000000E+00  0.000000000E+00 -2.247715738E+02  2.247715738E+02  0.000000000E+00  0.00000E+00  9.000E+00
      25     1     1     2     0     0  3.520018303E+01 -3.069253830E+02  9.821140022E+02  1.037118680E+03  1.250000000E+02  0.00000E+00  9.000E+00
      25     1     1     2     0     0 -7.467815185E+01  2.905677942E+02 -2.439629359E+01  3.259242987E+02  1.250000000E+02  0.00000E+00  9.000E+00
      21     1     1     2   512   501  3.947796882E+01  1.635758887E+01 -1.460268317E+00  4.275760891E+01  7.306129141E-07  0.00000E+00  9.000E+00
#rwgt            1           1   2.8709262819051770E-002           8      338345           0
</event>
<event>
      5   9999  3.19816E-02  3.31340E+01 -1.00000E+00  1.50102E-01
      21    -1     0     0   502   501  0.000000000E+00  0.000000000E+00  5.397820841E+02  5.397820841E+02  0.000000000E+00  0.00000E+00  9.000E+00
      21    -1     0     0   501   511  0.000000000E+00  0.000000000E+00 -3.705495255E+02  3.705495255E+02  0.000000000E+00  0.00000E+00  9.000E+00
      25     1     1     2     0     0 -3.082628588E+01  8.416128667E+01  4.589722904E+02  4.840598573E+02  1.250000000E+02  0.00000E+00  9.000E+00
      25     1     1     2     0     0  4.451061977E+01 -1.143374809E+02 -4.709589272E+01  1.813760676E+02  1.250000000E+02  0.00000E+00  9.000E+00
      21     1     1     2   502   511 -1.368433389E+01  3.017619419E+01 -2.426438391E+02  2.448956846E+02  2.697398305E-06  0.00000E+00  9.000E+00
#rwgt            1           1   2.1731779795571206E-002           8      338463           0
</event>
<event>
      5   9999  3.19816E-02  4.55344E+01 -1.00000E+00  1.41434E-01
       1    -1     0     0   502     0  0.000000000E+00  0.000000000E+00  3.299666048E+02  3.299666048E+02  0.000000000E+00  0.00000E+00  9.000E+00
      21    -1     0     0   501   502  0.000000000E+00  0.000000000E+00 -2.902130358E+02  2.902130358E+02  0.000000000E+00  0.00000E+00  9.000E+00
      25     1     1     2     0     0 -1.702034701E+02 -1.685661615E+01 -7.937932709E+01  2.262287433E+02  1.250000000E+02  0.00000E+00  9.000E+00
      25     1     1     2     0     0  1.253258911E+02  9.150600201E+00 -7.652966328E+01  1.930598400E+02  1.250000000E+02  0.00000E+00  9.000E+00
       1     1     1     2   501     0  4.487757894E+01  7.706015947E+00  1.956625594E+02  2.008910573E+02  2.697398305E-06  0.00000E+00  9.000E+00
#rwgt            1           1   2.3816423299218379E-002           8      338579           0
</event>
<event>
      5   9999  3.19816E-02  6.94707E+01 -1.00000E+00  1.31388E-01
      21    -1     0     0   502   501  0.000000000E+00  0.000000000E+00  2.800432292E+02  2.800432292E+02  0.000000000E+00  0.00000E+00  9.000E+00
      21    -1     0     0   511   502  0.000000000E+00  0.000000000E+00 -4.081811407E+02  4.081811407E+02  0.000000000E+00  0.00000E+00  9.000E+00
      25     1     1     2     0     0 -1.520923479E+02 -9.738589611E+01 -1.611321678E+02  2.724053424E+02  1.250000000E+02  0.00000E+00  9.000E+00
      25     1     1     2     0     0  8.371767918E+01  1.096776340E+02  1.763978286E+02  2.564742231E+02  1.250000000E+02  0.00000E+00  9.000E+00
      21     1     1     2   511   501  6.837466872E+01 -1.229173789E+01 -1.434035723E+02  1.593448044E+02  2.697398305E-06  0.00000E+00  9.000E+00
#rwgt            1           1   2.8263780269952670E-002           8      338637           0
</event>
<event>
      5   9999  3.19816E-02  4.93916E+01 -1.00000E+00  1.39380E-01
      21    -1     0     0   502   501  0.000000000E+00  0.000000000E+00  1.542930321E+02  1.542930321E+02  0.000000000E+00  0.00000E+00  9.000E+00
      21    -1     0     0   501   512  0.000000000E+00  0.000000000E+00 -7.240000873E+02  7.240000873E+02  0.000000000E+00  0.00000E+00  9.000E+00
      25     1     1     2     0     0  2.079007661E+02 -3.248333402E+01 -3.121436416E+02  3.966567137E+02  1.250000000E+02  0.00000E+00  9.000E+00
      25     1     1     2     0     0 -2.571909652E+02  3.564627049E+01 -8.251391106E+01  2.997522222E+02  1.250000000E+02  0.00000E+00  9.000E+00
      21     1     1     2   502   512  4.929019909E+01 -3.162936470E+00 -1.750495024E+02  1.818841835E+02  1.907348633E-06  0.00000E+00  9.000E+00
#rwgt            1           1   2.8327904758666748E-002           8      338705           0
</event>
<event>
      5   9999  3.19816E-02  1.08276E+02 -1.00000E+00  1.22294E-01
      21    -1     0     0   511   501  0.000000000E+00  0.000000000E+00  1.534557095E+02  1.534557095E+02  0.000000000E+00  0.00000E+00  9.000E+00
      21    -1     0     0   501   502  0.000000000E+00  0.000000000E+00 -5.700380921E+02  5.700380921E+02  0.000000000E+00  0.00000E+00  9.000E+00
      25     1     1     2     0     0 -1.034819619E+02 -1.103471725E+02 -1.795573517E+02  2.659903334E+02  1.250000000E+02  0.00000E+00  9.000E+00
      25     1     1     2     0     0  2.049709998E+02  1.480795277E+02 -1.854124932E+02  3.375551065E+02  1.250000000E+02  0.00000E+00  9.000E+00
      21     1     1     2   511   502 -1.014890379E+02 -3.773235516E+01 -5.161253770E+01  1.199483617E+02  6.743495762E-07  0.00000E+00  9.000E+00
#rwgt            2          11   2.8817583425511562E-003           8      338826           0
</event>
<event>
      5   9999  3.19816E-02  8.46948E+01 -1.00000E+00  1.27162E-01
      21    -1     0     0   502   512  0.000000000E+00  0.000000000E+00  2.017538512E+02  2.017538512E+02  0.000000000E+00  0.00000E+00  9.000E+00
      21    -1     0     0   501   502  0.000000000E+00  0.000000000E+00 -3.150594794E+02  3.150594794E+02  0.000000000E+00  0.00000E+00  9.000E+00
      25     1     1     2     0     0 -3.405450166E+01 -1.580113868E+02  4.090578721E+01  2.083880776E+02  1.250000000E+02  0.00000E+00  9.000E+00
      25     1     1     2     0     0  1.600079502E+01  7.526309425E+01 -1.674775367E+02  2.226977416E+02  1.250000000E+02  0.00000E+00  9.000E+00
      21     1     1     2   501   512  1.805370664E+01  8.274829257E+01  1.326612133E+01  8.572751146E+01  1.869724648E-06  0.00000E+00  9.000E+00
#rwgt            2          11   2.4365633120997533E-003           8      338906           0
</event>
<event>
      5   9999  3.19816E-02  7.17501E+01 -1.00000E+00  1.30680E-01
      21    -1     0     0   511   501  0.000000000E+00  0.000000000E+00  4.488760272E+02  4.488760272E+02  0.000000000E+00  0.00000E+00  9.000E+00
      21    -1     0     0   501   502  0.000000000E+00  0.000000000E+00 -4.896478392E+02  4.896478392E+02  0.000000000E+00  0.00000E+00  9.000E+00
      25     1     1     2     0     0  9.479489554E+01  1.312655873E+02 -2.495607141E+01  2.060692411E+02  1.250000000E+02  0.00000E+00  9.000E+00
      25     1     1     2     0     0 -1.128977467E+02 -2.006944552E+02 -3.236258633E+02  4.163926812E+02  1.250000000E+02  0.00000E+00  9.000E+00
      21     1     1     2   511   502  1.810285112E+01  6.942886789E+01  3.078101227E+02  3.160619441E+02  3.814697266E-06  0.00000E+00  9.000E+00
#rwgt            1           1   2.8310059691775830E-002           8      338926           0
</event>
<event>
      5   9999  3.19816E-02  7.95850E+01 -1.00000E+00  1.28459E-01
      21    -1     0     0   502   501  0.000000000E+00  0.000000000E+00  3.542719491E+02  3.542719491E+02  0.000000000E+00  0.00000E+00  9.000E+00
      21    -1     0     0   501   512  0.000000000E+00  0.000000000E+00 -8.159533171E+02  8.159533171E+02  0.000000000E+00  0.00000E+00  9.000E+00
      25     1     1     2     0     0  8.976729377E+01 -4.249213104E+02 -3.013771979E+02  5.432030030E+02  1.250000000E+02  0.00000E+00  9.000E+00
      25     1     1     2     0     0 -1.297196084E+01  4.458080669E+02 -1.746908319E+01  4.635118910E+02  1.250000000E+02  0.00000E+00  9.000E+00
      21     1     1     2   502   512 -7.679533294E+01 -2.088675651E+01 -1.428350870E+02  1.635103722E+02  1.907348633E-06  0.00000E+00  9.000E+00
#rwgt            2          11   3.2424879444659170E-003           8      339074           0
</event>
<event>
      5   9999  3.19816E-02  2.37293E+01 -1.00000E+00  1.60467E-01
       2    -1     0     0   502     0  0.000000000E+00  0.000000000E+00  2.116390834E+03  2.116390834E+03  0.000000000E+00  0.00000E+00  9.000E+00
      21    -1     0     0   501   502  0.000000000E+00  0.000000000E+00 -2.940984881E+02  2.940984881E+02  0.000000000E+00  0.00000E+00  9.000E+00
      25     1     1     2     0     0  2.922692367E+02 -7.757902068E+01 -1.365534275E+02  3.545583869E+02  1.250000000E+02  0.00000E+00  9.000E+00
      25     1     1     2     0     0 -2.725629171E+02  9.079804397E+01  4.580645383E+02  5.549621156E+02  1.250000000E+02  0.00000E+00  9.000E+00
       2     1     1     2   501     0 -1.970631959E+01 -1.321902329E+01  1.500781235E+03  1.500968820E+03  0.000000000E+00  0.00000E+00  9.000E+00
#rwgt            1           1   3.0926576840587069E-002           8      339094           0
</event>
<event>
      5   9999  3.19816E-02  2.58675E+01 -1.00000E+00  1.57649E-01
      21    -1     0     0   502   511  0.000000000E+00  0.000000000E+00  1.496279725E+03  1.496279725E+03  0.000000000E+00  0.00000E+00  9.000E+00
      21    -1     0     0   501   502  0.000000000E+00  0.000000000E+00 -1.151489483E+02  1.151489483E+02  0.000000000E+00  0.00000E+00  9.000E+00
      25     1     1     2     0     0 -2.983965255E+02 -9.205976036E+01  7.317369964E+02  8.053443473E+02  1.250000000E+02  0.00000E+00  9.000E+00
      25     1     1     2     0     0  2.796275447E+02  1.098601237E+02  2.618375541E+02  4.176657938E+02  1.250000000E+02  0.00000E+00  9.000E+00
      21     1     1     2   501   511  1.876898079E+01 -1.780036333E+01  3.875562265E+02  3.884185323E+02  5.394796609E-06  0.00000E+00  9.000E+00
#rwgt            1           1   2.7622840125997725E-002           8      339271           0
</event>
<event>
      5   9999  3.19816E-02  2.51408E+02 -1.00000E+00  1.08147E-01
      21    -1     0     0   502   501  0.000000000E+00  0.000000000E+00  2.262009241E+02  2.262009241E+02  0.000000000E+00  0.00000E+00  9.000E+00
      21    -1     0     0   501   512  0.000000000E+00  0.000000000E+00 -2.553480510E+03  2.553480510E+03  0.000000000E+00  0.00000E+00  9.000E+00
      25     1     1     2     0     0  3.697190468E+02  3.323821549E+02 -5.443016429E+02  7.477027143E+02  1.250000000E+02  0.00000E+00  9.000E+00
      25     1     1     2     0     0 -1.530076424E+02 -4.598263677E+02 -4.422361310E+02  6.678693156E+02  1.250000000E+02  0.00000E+00  9.000E+00
      21     1     1     2   502   512 -2.167114044E+02  1.274442128E+02 -1.340741812E+03  1.364109404E+03  2.157918644E-05  0.00000E+00  9.000E+00
#rwgt            2          11   8.7534455333538501E-004           8      339619           0
</event>
<event>
      5   9999  3.19816E-02  6.74434E+01 -1.00000E+00  1.32044E-01
       1    -1     0     0   502     0  0.000000000E+00  0.000000000E+00  2.255310203E+03  2.255310203E+03  0.000000000E+00  0.00000E+00  9.000E+00
      21    -1     0     0   501   502  0.000000000E+00  0.000000000E+00 -1.077303060E+02  1.077303060E+02  0.000000000E+00  0.00000E+00  9.000E+00
      25     1     1     2     0     0 -1.670479016E+02 -1.982768806E+01  7.658221241E+02  7.939815265E+02  1.250000000E+02  0.00000E+00  9.000E+00
      25     1     1     2     0     0  2.340492470E+02  2.753661550E+01  9.901702913E+01  2.845464589E+02  1.250000000E+02  0.00000E+00  9.000E+00
       1     1     1     2   501     0 -6.700134543E+01 -7.708927440E+00  1.282740744E+03  1.284512524E+03  0.000000000E+00  0.00000E+00  9.000E+00
#rwgt            1           1   3.3147273886504673E-002           8      339639           0
</event>
<event>
      5   9999  3.19816E-02  4.28611E+01 -1.00000E+00  1.43004E-01
      -3    -1     0     0     0   501  0.000000000E+00  0.000000000E+00  1.243839065E+03  1.243839065E+03  0.000000000E+00  0.00000E+00  9.000E+00
      21    -1     0     0   501   502  0.000000000E+00  0.000000000E+00 -6.234267449E+02  6.234267449E+02  0.000000000E+00  0.00000E+00  9.000E+00
      25     1     1     2     0     0 -3.301800314E+02  1.156654966E+02 -4.947518249E+02  6.187097287E+02  1.250000000E+02  0.00000E+00  9.000E+00
      25     1     1     2     0     0  3.691805775E+02 -9.788819013E+01  5.468899911E+02  6.786678561E+02  1.250000000E+02  0.00000E+00  9.000E+00
      -3     1     1     2     0   502 -3.900054611E+01 -1.777730650E+01  5.682741542E+02  5.698882255E+02  1.078959322E-05  0.00000E+00  9.000E+00
#rwgt            1           1   3.3981081448834542E-002           8      339701           0
</event>
<event>
      5   9999  3.19816E-02  2.44274E+02 -1.00000E+00  1.08575E-01
      21    -1     0     0   502   501  0.000000000E+00  0.000000000E+00  1.386363952E+03  1.386363952E+03  0.000000000E+00  0.00000E+00  9.000E+00
      21    -1     0     0   511   502  0.000000000E+00  0.000000000E+00 -1.706941686E+03  1.706941686E+03  0.000000000E+00  0.00000E+00  9.000E+00
      25     1     1     2     0     0  4.415731381E+02 -1.027697089E+02 -1.903812756E+02  5.073642473E+02  1.250000000E+02  0.00000E+00  9.000E+00
      25     1     1     2     0     0 -6.840907132E+02  1.320144858E+02  1.112977016E+03  1.318996121E+03  1.250000000E+02  0.00000E+00  9.000E+00
      21     1     1     2   511   501  2.425175751E+02 -2.924477694E+01 -1.243173474E+03  1.266945270E+03  1.525878906E-05  0.00000E+00  9.000E+00
#rwgt            1           1   3.0076262276727200E-002           8      339849           0
</event>
<event>
      5   9999  3.19816E-02  1.32992E+02 -1.00000E+00  1.18503E-01
      21    -1     0     0   502   512  0.000000000E+00  0.000000000E+00  5.224355761E+02  5.224355761E+02  0.000000000E+00  0.00000E+00  9.000E+00
      21    -1     0     0   501   502  0.000000000E+00  0.000000000E+00 -2.543805903E+02  2.543805903E+02  0.000000000E+00  0.00000E+00  9.000E+00
      25     1     1     2     0     0 -1.175753245E+02  3.090021322E+02  8.584149017E+01  3.637307192E+02  1.250000000E+02  0.00000E+00  9.000E+00
      25     1     1     2     0     0  4.751803482E+01 -1.959588746E+02  1.064599207E+02  2.600318420E+02  1.250000000E+02  0.00000E+00  9.000E+00
      21     1     1     2   501   512  7.005728966E+01 -1.130432577E+02  7.575357496E+01  1.530536052E+02  3.015782986E-06  0.00000E+00  9.000E+00
#rwgt            1           1   3.3520448229210499E-002           8      339892           0
</event>
<event>
      5   9999  3.19816E-02  6.58984E+01 -1.00000E+00  1.32563E-01
      21    -1     0     0   511   501  0.000000000E+00  0.000000000E+00  4.557243910E+02  4.557243910E+02  0.000000000E+00  0.00000E+00  9.000E+00
      21    -1     0     0   501   502  0.000000000E+00  0.000000000E+00 -1.748431803E+02  1.748431803E+02  0.000000000E+00  0.00000E+00  9.000E+00
      25     1     1     2     0     0  1.112275977E+02 -4.394229881E+01  1.477059699E+02  2.274743011E+02  1.250000000E+02  0.00000E+00  9.000E+00
      25     1     1     2     0     0 -1.018931437E+02  1.091762360E+02 -5.610615632E+01  2.026686064E+02  1.250000000E+02  0.00000E+00  9.000E+00
      21     1     1     2   511   502 -9.334454028E+00 -6.523393719E+01  1.892813971E+02  2.004246639E+02  0.000000000E+00  0.00000E+00  9.000E+00
#rwgt            1           1   2.6016954666243260E-002           8      339952           0
</event>
<event>
      5   9999  3.19816E-02  2.22796E+02 -1.00000E+00  1.09968E-01
      21    -1     0     0   502   501  0.000000000E+00  0.000000000E+00  4.876550330E+02  4.876550330E+02  0.000000000E+00  0.00000E+00  9.000E+00
      -2    -1     0     0     0   502  0.000000000E+00  0.000000000E+00 -2.519386324E+02  2.519386324E+02  0.000000000E+00  0.00000E+00  9.000E+00
      25     1     1     2     0     0  7.538495615E+01 -1.871565906E+01  1.821512068E+02  2.341735033E+02  1.250000000E+02  0.00000E+00  9.000E+00
      25     1     1     2     0     0  6.394379474E+01  1.925704503E+02 -7.291507321E+01  2.492263933E+02  1.250000000E+02  0.00000E+00  9.000E+00
      -2     1     1     2     0   501 -1.393287509E+02 -1.738547912E+02  1.264802670E+02  2.561937688E+02  3.568322551E-06  0.00000E+00  9.000E+00
#rwgt            2           9   3.3695401575601800E-005           8      340285           0
</event>
<event>
      5   9999  3.19816E-02  5.96595E+01 -1.00000E+00  1.34836E-01
      21    -1     0     0   502   501  0.000000000E+00  0.000000000E+00  4.746287968E+02  4.746287968E+02  0.000000000E+00  0.00000E+00  9.000E+00
      21    -1     0     0   501   511  0.000000000E+00  0.000000000E+00 -3.028091052E+02  3.028091052E+02  0.000000000E+00  0.00000E+00  9.000E+00
      25     1     1     2     0     0  1.189487695E+02 -6.818654090E+00  4.019684928E+02  4.374916833E+02  1.250000000E+02  0.00000E+00  9.000E+00
      25     1     1     2     0     0 -1.028943309E+02  6.427744234E+01 -2.180244429E+02  2.790671794E+02  1.250000000E+02  0.00000E+00  9.000E+00
      21     1     1     2   502   511 -1.605443857E+01 -5.745878825E+01 -1.212435826E+01  6.087903915E+01  6.078504936E-07  0.00000E+00  9.000E+00
#rwgt            1           1   2.8714070596139264E-002           8      340349           0
</event>
<event>
      5   9999  3.19816E-02  2.10656E+02 -1.00000E+00  1.10833E-01
      21    -1     0     0   502   501  0.000000000E+00  0.000000000E+00  3.583653977E+02  3.583653977E+02  0.000000000E+00  0.00000E+00  9.000E+00
      21    -1     0     0   512   502  0.000000000E+00  0.000000000E+00 -9.826150363E+02  9.826150363E+02  0.000000000E+00  0.00000E+00  9.000E+00
      25     1     1     2     0     0  2.789538333E+02  3.430912590E+02 -5.117279201E+02  6.877625442E+02  1.250000000E+02  0.00000E+00  9.000E+00
      25     1     1     2     0     0 -7.248796370E+01 -3.848969922E+02  6.667522718E+00  4.111808061E+02  1.250000000E+02  0.00000E+00  9.000E+00
      21     1     1     2   512   501 -2.064658696E+02  4.180573320E+01 -1.191892413E+02  2.420370837E+02  4.264961200E-06  0.00000E+00  9.000E+00
#rwgt            2          11   4.4515681490630774E-003           8      340495           0
</event>
<event>
      5   9999  3.19816E-02  3.01919E+01 -1.00000E+00  1.52848E-01
       5    -1     0     0   502     0  0.000000000E+00  0.000000000E+00  2.217648434E+02  2.217648434E+02  0.000000000E+00  0.00000E+00  9.000E+00
      21    -1     0     0   501   502  0.000000000E+00  0.000000000E+00 -3.258197964E+02  3.258197964E+02  0.000000000E+00  0.00000E+00  9.000E+00
      25     1     1     2     0     0 -1.005153946E+02  9.255163587E+01 -7.316405441E+01  1.991158676E+02  1.250000000E+02  0.00000E+00  9.000E+00
      25     1     1     2     0     0  8.829267475E+01 -1.201588090E+02 -1.371184090E+02  2.380340184E+02  1.250000000E+02  0.00000E+00  9.000E+00
       5     1     1     2   501     0  1.222271988E+01  2.760717316E+01  1.062275104E+02  1.104347538E+02  1.348699152E-06  0.00000E+00  9.000E+00
#rwgt            1           1   2.6268759486222201E-002           8      340515           0
</event>
<event>
      5   9999  3.19816E-02  9.22627E+01 -1.00000E+00  1.25422E-01
      21    -1     0     0   502   501  0.000000000E+00  0.000000000E+00  1.283479385E+03  1.283479385E+03  0.000000000E+00  0.00000E+00  9.000E+00
      21    -1     0     0   511   502  0.000000000E+00  0.000000000E+00 -1.546793337E+03  1.546793337E+03  0.000000000E+00  0.00000E+00  9.000E+00
      25     1     1     2     0     0 -3.256598974E+02 -1.136104273E+03 -1.505322452E+02  1.197945009E+03  1.250000000E+02  0.00000E+00  9.000E+00
      25     1     1     2     0     0  2.611306853E+02  1.202046529E+03  2.470479481E+02  1.260857955E+03  1.250000000E+02  0.00000E+00  9.000E+00
      21     1     1     2   511   501  6.452921208E+01 -6.594225685E+01 -3.598296555E+02  3.714697584E+02  6.607249480E-06  0.00000E+00  9.000E+00
#rwgt            1           1   6.8011823005237393E-002           8      340616           0
</event>
<event>
      5   9999  3.19816E-02  8.26652E+01 -1.00000E+00  1.27664E-01
       1    -1     0     0   502     0  0.000000000E+00  0.000000000E+00  5.123017215E+02  5.123017215E+02  0.000000000E+00  0.00000E+00  9.000E+00
      21    -1     0     0   501   502  0.000000000E+00  0.000000000E+00 -9.362145652E+02  9.362145652E+02  0.000000000E+00  0.00000E+00  9.000E+00
      25     1     1     2     0     0 -1.073280488E+02  4.588880153E+01 -8.518577198E+02  8.688565284E+02  1.250000000E+02  0.00000E+00  9.000E+00
      25     1     1     2     0     0  5.027822752E+01  1.393478281E+01 -8.248515082E+00  1.357023078E+02  1.250000000E+02  0.00000E+00  9.000E+00
       1     1     1     2   501     0  5.704982131E+01 -5.982358435E+01  4.361933912E+02  4.439574506E+02  1.078959322E-05  0.00000E+00  9.000E+00
#rwgt            1           1   2.6879993436058906E-002           8      340763           0
</event>
<event>
      5   9999  3.19816E-02  3.20935E+01 -1.00000E+00  1.51033E-01
      21    -1     0     0   502   501  0.000000000E+00  0.000000000E+00  3.132276690E+02  3.132276690E+02  0.000000000E+00  0.00000E+00  9.000E+00
      21    -1     0     0   511   502  0.000000000E+00  0.000000000E+00 -3.001939620E+02  3.001939620E+02  0.000000000E+00  0.00000E+00  9.000E+00
      25     1     1     2     0     0  1.034045853E+02 -6.597411639E+01  4.582616327E+01  1.810252180E+02  1.250000000E+02  0.00000E+00  9.000E+00
      25     1     1     2     0     0 -9.268377247E+01  3.572418273E+01  1.664153371E+02  2.306199543E+02  1.250000000E+02  0.00000E+00  9.000E+00
      21     1     1     2   511   501 -1.072081285E+01  3.024993366E+01 -1.992077934E+02  2.017764587E+02  0.000000000E+00  0.00000E+00  9.000E+00
#rwgt            1           1   2.7754884076933609E-002           8      340827           0
</event>
<event>
      5   9999  3.19816E-02  4.79292E+01 -1.00000E+00  1.40132E-01
       2    -1     0     0   502     0  0.000000000E+00  0.000000000E+00  1.606432584E+03  1.606432584E+03  0.000000000E+00  0.00000E+00  9.000E+00
      21    -1     0     0   501   502  0.000000000E+00  0.000000000E+00 -8.229595421E+01  8.229595421E+01  0.000000000E+00  0.00000E+00  9.000E+00
      25     1     1     2     0     0  8.694180245E+01 -2.338956661E+02  1.038241951E+03  1.075098790E+03  1.250000000E+02  0.00000E+00  9.000E+00
      25     1     1     2     0     0 -7.363677174E+01  2.799411079E+02  4.638682196E+02  5.608815590E+02  1.250000000E+02  0.00000E+00  9.000E+00
       2     1     1     2   501     0 -1.330503071E+01 -4.604544183E+01  2.202645917E+01  5.274818915E+01  7.907449699E-07  0.00000E+00  9.000E+00
#rwgt            1           1   2.4038947741157196E-002           8      340913           0
</event>
<event>
      5   9999  3.19816E-02  1.85014E+02 -1.00000E+00  1.12893E-01
      21    -1     0     0   502   511  0.000000000E+00  0.000000000E+00  1.535798135E+02  1.535798135E+02  0.000000000E+00  0.00000E+00  9.000E+00
      21    -1     0     0   501   502  0.000000000E+00  0.000000000E+00 -1.844630040E+03  1.844630040E+03  0.000000000E+00  0.00000E+00  9.000E+00
      25     1     1     2     0     0 -2.823491790E+02  6.018532260E+01 -2.173751232E+02  3.823875993E+02  1.250000000E+02  0.00000E+00  9.000E+00
      25     1     1     2     0     0  2.216111035E+02  1.145747387E+02 -1.380973605E+03  1.408883228E+03  1.250000000E+02  0.00000E+00  9.000E+00
      21     1     1     2   501   511  6.073807557E+01 -1.747600613E+02 -9.270149832E+01  2.069390264E+02  2.336015456E-06  0.00000E+00  9.000E+00
#rwgt            2          11   5.2333481141433012E-003           8      341045           0
</event>
<event>
      5   9999  3.19816E-02  1.41352E+02 -1.00000E+00  1.17425E-01
       1    -1     0     0   502     0  0.000000000E+00  0.000000000E+00  1.310398704E+03  1.310398704E+03  0.000000000E+00  0.00000E+00  9.000E+00
      21    -1     0     0   501   502  0.000000000E+00  0.000000000E+00 -1.082016201E+03  1.082016201E+03  0.000000000E+00  0.00000E+00  9.000E+00
      25     1     1     2     0     0  3.579609867E+02  3.708409388E+02 -4.814000047E+02  7.162611496E+02  1.250000000E+02  0.00000E+00  9.000E+00
      25     1     1     2     0     0 -4.955124146E+02 -4.033993389E+02 -2.563636870E+02  6.997220303E+02  1.250000000E+02  0.00000E+00  9.000E+00
       1     1     1     2   501     0  1.375514279E+02  3.255840009E+01  9.661461941E+02  9.764317248E+02  1.078959322E-05  0.00000E+00  9.000E+00
#rwgt            1           1   2.3255592360965832E-002           8      341065           0
</event>
<event>
      5   9999  3.19816E-02  3.54492E+01 -1.00000E+00  1.48170E-01
      21    -1     0     0   502   501  0.000000000E+00  0.000000000E+00  2.945887973E+02  2.945887973E+02  0.000000000E+00  0.00000E+00  9.000E+00
      21    -1     0     0   511   502  0.000000000E+00  0.000000000E+00 -1.444212747E+03  1.444212747E+03  0.000000000E+00  0.00000E+00  9.000E+00
      25     1     1     2     0     0 -1.701992037E+02 -3.434799507E+02 -3.134607041E+02  5.107140673E+02  1.250000000E+02  0.00000E+00  9.000E+00
      25     1     1     2     0     0  1.534136132E+02  3.747031725E+02 -3.396679961E+01  4.251081600E+02  1.250000000E+02  0.00000E+00  9.000E+00
      21     1     1     2   511   501  1.678559059E+01 -3.122322181E+01 -8.021964462E+02  8.029793172E+02  1.078959322E-05  0.00000E+00  9.000E+00
#rwgt            1           1   2.7403702161233095E-002           8      341152           0
</event>
<event>
      5   9999  3.19816E-02  1.17782E+02 -1.00000E+00  1.20713E-01
      -2    -1     0     0     0   501  0.000000000E+00  0.000000000E+00  7.060862586E+02  7.060862586E+02  0.000000000E+00  0.00000E+00  9.000E+00
      21    -1     0     0   501   502  0.000000000E+00  0.000000000E+00 -1.594205972E+03  1.594205972E+03  0.000000000E+00  0.00000E+00  9.000E+00
      25     1     1     2     0     0  8.725370570E+01  4.899883494E+02 -1.050266703E+03  1.168925549E+03  1.250000000E+02  0.00000E+00  9.000E+00
      25     1     1     2     0     0 -5.728672205E+01 -3.760819368E+02 -3.946660307E+02  5.622327521E+02  1.250000000E+02  0.00000E+00  9.000E+00
      -2     1     1     2     0   502 -2.996698364E+01 -1.139064126E+02  5.568130199E+02  5.691339299E+02  0.000000000E+00  0.00000E+00  9.000E+00
#rwgt            2           4   6.3361467332740816E-004           8      341428           0
</event>
<event>
      5   9999  3.19816E-02  2.95969E+01 -1.00000E+00  1.53449E-01
      21    -1     0     0   502   501  0.000000000E+00  0.000000000E+00  1.464450272E+02  1.464450272E+02  0.000000000E+00  0.00000E+00  9.000E+00
      21    -1     0     0   511   502  0.000000000E+00  0.000000000E+00 -1.095758978E+03  1.095758978E+03  0.000000000E+00  0.00000E+00  9.000E+00
      25     1     1     2     0     0  1.417589783E+02 -1.594678049E+02 -9.949432602E+01  2.665515141E+02  1.250000000E+02  0.00000E+00  9.000E+00
      25     1     1     2     0     0 -1.132753135E+02  1.675087051E+02 -1.631114277E+02  2.883067824E+02  1.250000000E+02  0.00000E+00  9.000E+00
      21     1     1     2   511   501 -2.848366482E+01 -8.040900242E+00 -6.867081968E+02  6.873457084E+02  7.629394531E-06  0.00000E+00  9.000E+00
#rwgt            1           1   2.5757441446691166E-002           8      341447           0
</event>
<event>
      5   9999  3.19816E-02  2.19492E+01 -1.00000E+00  1.63104E-01
      21    -1     0     0   502   512  0.000000000E+00  0.000000000E+00  1.449074396E+03  1.449074396E+03  0.000000000E+00  0.00000E+00  9.000E+00
      21    -1     0     0   501   502  0.000000000E+00  0.000000000E+00 -2.189771398E+03  2.189771398E+03  0.000000000E+00  0.00000E+00  9.000E+00
      25     1     1     2     0     0  3.357707032E+01 -1.831063573E+02 -2.166306463E+03  2.177880632E+03  1.250000000E+02  0.00000E+00  9.000E+00
      25     1     1     2     0     0 -1.177789021E+01  1.805443207E+02  6.726316750E+02  7.076675354E+02  1.250000000E+02  0.00000E+00  9.000E+00
      21     1     1     2   501   512 -2.179918011E+01  2.562036579E+00  7.529777858E+02  7.532976265E+02  0.000000000E+00  0.00000E+00  9.000E+00
#rwgt            1           1   6.2351810214738311E-002           8      341527           0
</event>
<event>
      5   9999  3.19816E-02  2.49495E+02 -1.00000E+00  1.08260E-01
      21    -1     0     0   502   501  0.000000000E+00  0.000000000E+00  7.628406553E+02  7.628406553E+02  0.000000000E+00  0.00000E+00  9.000E+00
       2    -1     0     0   501     0  0.000000000E+00  0.000000000E+00 -1.291645787E+03  1.291645787E+03  0.000000000E+00  0.00000E+00  9.000E+00
      25     1     1     2     0     0  1.863041362E+02 -5.717893966E+02  3.798185893E+02  7.221769215E+02  1.250000000E+02  0.00000E+00  9.000E+00
      25     1     1     2     0     0 -4.356880851E+02  5.643317905E+02 -7.026085765E+02  1.008750856E+03  1.250000000E+02  0.00000E+00  9.000E+00
       2     1     1     2   502     0  2.493839490E+02  7.457606094E+00 -2.060151445E+02  3.235586649E+02  6.607249480E-06  0.00000E+00  9.000E+00
#rwgt            1           1   1.9176810410766049E-002           8      341811           0
</event>
<event>
      5   9999  3.19816E-02  1.11191E+02 -1.00000E+00  1.21791E-01
      21    -1     0     0   502   501  0.000000000E+00  0.000000000E+00  5.388215924E+01  5.388215924E+01  0.000000000E+00  0.00000E+00  9.000E+00
      21    -1     0     0   511   502  0.000000000E+00  0.000000000E+00 -1.354178945E+03  1.354178945E+03  0.000000000E+00  0.00000E+00  9.000E+00
      25     1     1     2     0     0  1.132994809E+02 -1.734542781E+02 -5.451410834E+02  5.964285035E+02  1.250000000E+02  0.00000E+00  9.000E+00
      25     1     1     2     0     0 -8.009151546E+00  1.377134553E+02 -4.614974265E+02  4.976283924E+02  1.250000000E+02  0.00000E+00  9.000E+00
      21     1     1     2   511   501 -1.052903293E+02  3.574082282E+01 -2.936582759E+02  3.140042084E+02  3.814697266E-06  0.00000E+00  9.000E+00
#rwgt            2          11   2.6959104230358062E-003           8      342109           0
</event>
<event>
      5   9999  3.19816E-02  1.50360E+02 -1.00000E+00  1.16352E-01
      21    -1     0     0   512   501  0.000000000E+00  0.000000000E+00  3.318948440E+02  3.318948440E+02  0.000000000E+00  0.00000E+00  9.000E+00
      21    -1     0     0   501   502  0.000000000E+00  0.000000000E+00 -1.916226151E+03  1.916226151E+03  0.000000000E+00  0.00000E+00  9.000E+00
      25     1     1     2     0     0 -2.298608058E+02  5.217474318E+02 -2.501936722E+02  6.350419248E+02  1.250000000E+02  0.00000E+00  9.000E+00
      25     1     1     2     0     0  2.827305582E+02 -6.625059150E+02 -1.227593416E+03  1.428797134E+03  1.250000000E+02  0.00000E+00  9.000E+00
      21     1     1     2   512   502 -5.286975238E+01  1.407584832E+02 -1.065442187E+02  1.842819357E+02  1.907348633E-06  0.00000E+00  9.000E+00
#rwgt            1           1   3.0449975241768373E-002           8      342144           0
</event>
<event>
      5   9999  3.19816E-02  6.20860E+01 -1.00000E+00  1.33915E-01
      21    -1     0     0   502   501  0.000000000E+00  0.000000000E+00  3.769012674E+02  3.769012674E+02  0.000000000E+00  0.00000E+00  9.000E+00
      21    -1     0     0   511   502  0.000000000E+00  0.000000000E+00 -1.958521136E+02  1.958521136E+02  0.000000000E+00  0.00000E+00  9.000E+00
      25     1     1     2     0     0  4.981126466E+01 -2.944000049E+01 -1.122919742E+02  1.777142740E+02  1.250000000E+02  0.00000E+00  9.000E+00
      25     1     1     2     0     0 -1.029389399E+01 -1.844577342E+01  3.064037570E+02  3.315938376E+02  1.250000000E+02  0.00000E+00  9.000E+00
      21     1     1     2   511   501 -3.951737067E+01  4.788577391E+01 -1.306262898E+01  6.344526936E+01  5.331201500E-07  0.00000E+00  9.000E+00
#rwgt            1           1   3.0239606217902882E-002           8      342225           0
</event>
<event>
      5   9999  3.19816E-02  5.44409E+01 -1.00000E+00  1.36999E-01
       2    -1     0     0   502     0  0.000000000E+00  0.000000000E+00  6.178097777E+02  6.178097777E+02  0.000000000E+00  0.00000E+00  9.000E+00
      21    -1     0     0   501   502  0.000000000E+00  0.000000000E+00 -1.464691403E+02  1.464691403E+02  0.000000000E+00  0.00000E+00  9.000E+00
      25     1     1     2     0     0 -1.729591816E+01 -2.249258651E+02  2.551376116E+02  3.627822962E+02  1.250000000E+02  0.00000E+00  9.000E+00
      25     1     1     2     0     0  6.497552638E+01  1.986490528E+02  8.248770701E+01  2.571234859E+02  1.250000000E+02  0.00000E+00  9.000E+00
       2     1     1     2   501     0 -4.767960822E+01  2.627681232E+01  1.337153188E+02  1.443731359E+02  0.000000000E+00  0.00000E+00  9.000E+00
#rwgt            1           1   2.6725657587069924E-002           8      342341           0
</event>
<event>
      5   9999  3.19816E-02  5.84475E+01 -1.00000E+00  1.35315E-01
      21    -1     0     0   502   511  0.000000000E+00  0.000000000E+00  8.087343238E+02  8.087343238E+02  0.000000000E+00  0.00000E+00  9.000E+00
      21    -1     0     0   501   502  0.000000000E+00  0.000000000E+00 -3.378522261E+02  3.378522261E+02  0.000000000E+00  0.00000E+00  9.000E+00
      25     1     1     2     0     0 -1.938680392E+01 -2.540613490E+01 -2.848802026E+02  3.127347913E+02  1.250000000E+02  0.00000E+00  9.000E+00
      25     1     1     2     0     0  4.181832131E+00  8.184125899E+01  1.103269411E+02  1.857754379E+02  1.250000000E+02  0.00000E+00  9.000E+00
      21     1     1     2   501   511  1.520497178E+01 -5.643512409E+01  6.454353592E+02  6.480763206E+02  0.000000000E+00  0.00000E+00  9.000E+00
#rwgt            1           1   2.5553794729846965E-002           8      342451           0
</event>
<event>
      5   9999  3.19816E-02  3.71847E+01 -1.00000E+00  1.46834E-01
      21    -1     0     0   502   501  0.000000000E+00  0.000000000E+00  3.355588176E+02  3.355588176E+02  0.000000000E+00  0.00000E+00  9.000E+00
       2    -1     0     0   501     0  0.000000000E+00  0.000000000E+00 -1.448797781E+03  1.448797781E+03  0.000000000E+00  0.00000E+00  9.000E+00
      25     1     1     2     0     0  6.873873786E+01  7.806096768E+01  1.040865616E+02  1.930739264E+02  1.250000000E+02  0.00000E+00  9.000E+00
      25     1     1     2     0     0 -8.346379499E+01 -1.122059264E+02  1.396203986E+02  2.338273523E+02  1.250000000E+02  0.00000E+00  9.000E+00
       2     1     1     2   502     0  1.472505713E+01  3.414495877E+01 -1.356945924E+03  1.357455320E+03  1.525878906E-05  0.00000E+00  9.000E+00
#rwgt            1           1   3.0060341643005143E-002           8      342525           0
</event>
<event>
      5   9999  3.19816E-02  9.20828E+01 -1.00000E+00  1.25461E-01
      21    -1     0     0   502   511  0.000000000E+00  0.000000000E+00  6.686456583E+02  6.686456583E+02  0.000000000E+00  0.00000E+00  9.000E+00
      21    -1     0     0   501   502  0.000000000E+00  0.000000000E+00 -1.559520480E+02  1.559520480E+02  0.000000000E+00  0.00000E+00  9.000E+00
      25     1     1     2     0     0 -9.056827662E+01 -2.397748494E+02  3.438778673E+02  4.467343492E+02  1.250000000E+02  0.00000E+00  9.000E+00
      25     1     1     2     0     0  1.020764765E+02  1.484139910E+02  4.543715265E+01  2.239103719E+02  1.250000000E+02  0.00000E+00  9.000E+00
      21     1     1     2   501   511 -1.150819991E+01  9.136085838E+01  1.233785903E+02  1.539529852E+02  1.907348633E-06  0.00000E+00  9.000E+00
#rwgt            1           1   2.6395582475416787E-002           8      342639           0
</event>
<event>
      5   9999  3.19816E-02  4.15911E+01 -1.00000E+00  1.43797E-01
      21    -1     0     0   502   501  0.000000000E+00  0.000000000E+00  5.842767215E+02  5.842767215E+02  0.000000000E+00  0.00000E+00  9.000E+00
      21    -1     0     0   501   512  0.000000000E+00  0.000000000E+00 -4.763389385E+02  4.763389385E+02  0.000000000E+00  0.00000E+00  9.000E+00
      25     1     1     2     0     0  4.418513082E+02  4.934651857E+01 -1.853336202E+01  4.622079001E+02  1.250000000E+02  0.00000E+00  9.000E+00
      25     1     1     2     0     0 -4.800558498E+02 -3.290773930E+01  1.816587827E+02  5.293027976E+02  1.250000000E+02  0.00000E+00  9.000E+00
      21     1     1     2   502   512  3.820454156E+01 -1.643877928E+01 -5.518763767E+01  6.910496227E+01  9.536743164E-07  0.00000E+00  9.000E+00
#rwgt            1           1   2.8458179416535032E-002           8      342671           0
</event>
<event>
      5   9999  3.19816E-02  4.38516E+01 -1.00000E+00  1.42407E-01
       2    -1     0     0   502     0  0.000000000E+00  0.000000000E+00  1.187347731E+03  1.187347731E+03  0.000000000E+00  0.00000E+00  9.000E+00
      21    -1     0     0   501   502  0.000000000E+00  0.000000000E+00 -3.238093702E+02  3.238093702E+02  0.000000000E+00  0.00000E+00  9.000E+00
      25     1     1     2     0     0 -3.377582237E+01 -4.887733802E+02  3.854616278E+02  6.358033421E+02  1.250000000E+02  0.00000E+00  9.000E+00
      25     1     1     2     0     0  6.165726568E+00  4.547051608E+02  8.423417840E+01  4.790774429E+02  1.250000000E+02  0.00000E+00  9.000E+00
       2     1     1     2   501     0  2.761009581E+01  3.406821938E+01  3.938425549E+02  3.962763165E+02  5.394796609E-06  0.00000E+00  9.000E+00
#rwgt            1           1   2.9153522655647215E-002           8      342825           0
</event>
<event>
      5   9999  3.19816E-02  5.78020E+01 -1.00000E+00  1.35575E-01
      21    -1     0     0   502   511  0.000000000E+00  0.000000000E+00  5.223741212E+02  5.223741212E+02  0.000000000E+00  0.00000E+00  9.000E+00
      21    -1     0     0   501   502  0.000000000E+00  0.000000000E+00 -6.864330641E+02  6.864330641E+02  0.000000000E+00  0.00000E+00  9.000E+00
      25     1     1     2     0     0  2.936436900E+02  2.638989108E+02 -1.698231590E+02  4.475870386E+02  1.250000000E+02  0.00000E+00  9.000E+00
      25     1     1     2     0     0 -2.378939363E+02 -2.791643017E+02 -2.746203639E+02  4.749395504E+02  1.250000000E+02  0.00000E+00  9.000E+00
      21     1     1     2   501   511 -5.574975367E+01  1.526539088E+01  2.803845798E+02  2.862805963E+02  5.394796609E-06  0.00000E+00  9.000E+00
#rwgt            1           1   2.4593981536679986E-002           8      342915           0
</event>
</LesHouchesEvents>
 #Random number generator exit values:            8        343020             0
