<LesHouchesEvents version="3.0">
<!--
file generated with POWHEG-BOX-V2
Input file powheg.input contained:
! ggHH production parameters:
mtdep 0              ! 0: Higgs effective field theory (HEFT)

hmass 125            ! Higgs boson mass
topmass 173          ! top quark mass (THIS VALUE IS HARD CODED IN THE VIRTUAL
hdecaymode -1        ! PDG code for Higgs boson decay products (it affects only the SMC)
!                      allowed values are:
!                      0 all decay channels open
!                      1-6 d dbar, u ubar,..., t tbar (as in HERWIG)
!                      7-9 e+ e-, mu+ mu-, tau+ tau-
!                      10  W+W-
!                      11  ZZ
!                      12  gamma gamma
!                      -1  all decay channels closed

! general parameters:
numevts  3000        ! number of events to be generated
ih1         1        ! hadron 1 (1 for protons, -1 for antiprotons)
ih2         1        ! hadron 2 (1 for protons, -1 for antiprotons)
ebeam1 7000d0        ! energy of beam 1
ebeam2 7000d0        ! energy of beam 2
! To be set only if using LHA pdfs
lhans1 90200         ! pdf set for hadron 1 (LHA numbering)
lhans2 90200 	     ! pdf set for hadron 2 (LHA numbering)
! To be set only if using internal mlm pdf
# ndns1 131          ! pdf set for hadron 1 (mlm numbering)
# ndns2 131          ! pdf set for hadron 2 (mlm numbering)
! To be set only if using different pdf sets for the two incoming hadrons
! QCDLambda5 0.25    ! for not equal pdf sets

! Parameters to allow or not the use of stored data
use-old-grid    1    ! if 1 use old grid if file pwggrids.dat is present (<> 1 regenerate)
use-old-ubound  1    ! if 1 use norm of upper bounding function stored in pwgubound.dat, if present;
!
ncall1  10000        ! number of calls for initializing the integration grid
itmx1       3        ! number of iterations for initializing the integration grid
ncall2  10000        ! number of calls for computing the integral and finding upper bound
itmx2       3        ! number of iterations for computing the integral and finding upper bound
foldcsi     1        ! number of folds on csi integration
foldy       1        ! number of folds on  y  integration
foldphi     1        ! number of folds on phi integration
nubound 10000        ! number of bbarra calls to setup norm of upper bounding function
# icsimax   1        ! <= 100, number of csi subdivision when computing the upper bounds
# iymax     1        ! <= 100, number of y subdivision when computing the upper bounds
# xupbound 2d0       ! increase upper bound for radiation generation

! OPTIONAL PARAMETERS

! scale settings:
#fixedscale   1      ! (dafault 0) Use muren = mufac = 2*m_H
facscfact   1d0      ! (default 1d0) fac scale factor: mufact = muref * facscfact
renscfact   1d0      ! (default 1d0) ren scale factor: muren  = muref * renscfact

! Born, plots and powheg strategy:
#bornonly         1  ! (default 0) if 1 do Born only
# testplots 1
fastbtlbound      1  ! fast evaluation of Btilde upper bounds
storemintupb      1  ! store function calls in binary file for more precise generation
ubexcess_correct  1  ! corrects for error in upper bound estimate
storeinfo_rwgt    1  ! store info to allow for reweighting
softtest          0  ! no check of the soft limit in the real
colltest          0  ! no check of the collinear limit in the real

! PARAMETERS needed for ggHH
hdamp           250

! PARAMETERS for parallel runnning
! -- non parallel (for testing purposes only)
#iseed    547        !  Start the random number generator with seed iseed
#rand1     0         !  skipping  rand2*100000000+rand1 numbers.
#rand2     0         !  (see RM48 short writeup in CERNLIB)

! -- parallel
manyseeds 1          ! Used to perform multiple runs with different random
                     ! seeds in the same directory.
                     ! If set to 1, the program asks for an integer j;
                     ! The file pwgseeds.dat at line j is read, and the
                     ! integer at line j is used to initialize the random
                     ! sequence for the generation of the event.
                     ! The event file is called pwgevents-'j'.lhe
parallelstage 4
xgriditeration 1
maxseeds    1000

! PARAMETERS for reweighting
#rwl_file 'reweight_setup.xml'


! PARAMETERS for Pythia8
#py8tune  xxx
#py8hepmc 1
#py8nohad 1
#py8nompi 1
End of powheg.input content
PDF package: lha
 Random number generator initialized with:            9             0             0
-->
<init>
     2212     2212  7.00000E+03  7.00000E+03     -1     -1     -1     -1     -4      1
  3.19670E-02  5.76697E-06  1.00000E+00   9999
</init>
<event>
      5   9999  3.19816E-02  3.99914E+01 -1.00000E+00  1.44846E-01
      21    -1     0     0   502   501  0.000000000E+00  0.000000000E+00  6.143564371E+02  6.143564371E+02  0.000000000E+00  0.00000E+00  9.000E+00
      21    -1     0     0   511   502  0.000000000E+00  0.000000000E+00 -4.633016552E+02  4.633016552E+02  0.000000000E+00  0.00000E+00  9.000E+00
      25     1     1     2     0     0 -3.421593514E+02  3.241917350E+02  1.691059470E+02  5.161347926E+02  1.250000000E+02  0.00000E+00  9.000E+00
      25     1     1     2     0     0  3.522602496E+02 -3.628864929E+02 -1.216961065E+01  5.211017075E+02  1.250000000E+02  0.00000E+00  9.000E+00
      21     1     1     2   511   501 -1.010089814E+01  3.869475789E+01 -5.881554474E+00  4.042159218E+01  2.384185791E-07  0.00000E+00  9.000E+00
#rwgt            1           1   2.9636478808376002E-002           9          16           0
</event>
<event>
      5   9999  3.19816E-02  1.19731E+02 -1.00000E+00  1.20410E-01
      21    -1     0     0   502   501  0.000000000E+00  0.000000000E+00  5.298195188E+02  5.298195188E+02  0.000000000E+00  0.00000E+00  9.000E+00
      21    -1     0     0   501   512  0.000000000E+00  0.000000000E+00 -3.967041812E+02  3.967041812E+02  0.000000000E+00  0.00000E+00  9.000E+00
      25     1     1     2     0     0 -2.284028819E+02  1.644844097E+02  2.060579174E+02  3.705507560E+02  1.250000000E+02  0.00000E+00  9.000E+00
      25     1     1     2     0     0  1.762997292E+02 -2.722845689E+02  8.491108542E+01  3.578482547E+02  1.250000000E+02  0.00000E+00  9.000E+00
      21     1     1     2   502   512  5.210315265E+01  1.078001592E+02 -1.578536652E+02  1.981246892E+02  1.907348633E-06  0.00000E+00  9.000E+00
#rwgt            1           1   2.9347970606446474E-002           9         139           0
</event>
<event>
      5   9999  3.19816E-02  2.89322E+02 -1.00000E+00  1.06106E-01
       2    -1     0     0   502     0  0.000000000E+00  0.000000000E+00  3.172889282E+03  3.172889282E+03  0.000000000E+00  0.00000E+00  9.000E+00
      21    -1     0     0   501   502  0.000000000E+00  0.000000000E+00 -1.026331579E+03  1.026331579E+03  0.000000000E+00  0.00000E+00  9.000E+00
      25     1     1     2     0     0 -2.617420262E+02 -1.933123149E+01 -7.188752002E+02  7.754283579E+02  1.250000000E+02  0.00000E+00  9.000E+00
      25     1     1     2     0     0  5.503924571E+02 -3.716843378E-01  2.112097378E+01  5.648035858E+02  1.250000000E+02  0.00000E+00  9.000E+00
       2     1     1     2   501     0 -2.886504309E+02  1.970291583E+01  2.844311930E+03  2.858988918E+03  0.000000000E+00  0.00000E+00  9.000E+00
#rwgt            1           1   3.1079496473029412E-002           9         251           0
</event>
<event>
      5   9999  3.19816E-02  4.50728E+01 -1.00000E+00  1.41696E-01
      21    -1     0     0   502   501  0.000000000E+00  0.000000000E+00  1.686289200E+03  1.686289200E+03  0.000000000E+00  0.00000E+00  9.000E+00
      21    -1     0     0   511   502  0.000000000E+00  0.000000000E+00 -6.649832991E+01  6.649832991E+01  0.000000000E+00  0.00000E+00  9.000E+00
      25     1     1     2     0     0 -7.516934698E+01 -1.733048907E+02  1.332930313E+03  1.352040397E+03  1.250000000E+02  0.00000E+00  9.000E+00
      25     1     1     2     0     0  1.137466936E+02  1.499951274E+02  2.712634539E+02  3.530519933E+02  1.250000000E+02  0.00000E+00  9.000E+00
      21     1     1     2   511   501 -3.857734663E+01  2.330976332E+01  1.559710360E+01  4.769514000E+01  8.760057960E-07  0.00000E+00  9.000E+00
#rwgt            1           1   3.3817570263554295E-002           9         336           0
</event>
<event>
      5   9999  3.19816E-02  2.46172E+01 -1.00000E+00  1.59254E-01
      21    -1     0     0   502   501  0.000000000E+00  0.000000000E+00  1.389585156E+02  1.389585156E+02  0.000000000E+00  0.00000E+00  9.000E+00
       2    -1     0     0   501     0  0.000000000E+00  0.000000000E+00 -1.451157637E+03  1.451157637E+03  0.000000000E+00  0.00000E+00  9.000E+00
      25     1     1     2     0     0  1.312969306E+02 -5.571385143E+01 -1.336252904E+01  1.901222618E+02  1.250000000E+02  0.00000E+00  9.000E+00
      25     1     1     2     0     0 -1.075127067E+02  4.936432144E+01 -9.632258598E+01  1.972279364E+02  1.250000000E+02  0.00000E+00  9.000E+00
       2     1     1     2   502     0 -2.378422397E+01  6.349529990E+00 -1.202514006E+03  1.202765954E+03  1.525878906E-05  0.00000E+00  9.000E+00
#rwgt            1           1   2.5673152548282823E-002           9         409           0
</event>
<event>
      5   9999  3.19816E-02  3.54631E+02 -1.00000E+00  1.03284E-01
      21    -1     0     0   502   501  0.000000000E+00  0.000000000E+00  4.687132626E+02  4.687132626E+02  0.000000000E+00  0.00000E+00  9.000E+00
       2    -1     0     0   501     0  0.000000000E+00  0.000000000E+00 -5.637776647E+02  5.637776647E+02  0.000000000E+00  0.00000E+00  9.000E+00
      25     1     1     2     0     0 -4.735226904E+01 -2.517905899E+02 -3.377363867E+02  4.419633531E+02  1.250000000E+02  0.00000E+00  9.000E+00
      25     1     1     2     0     0 -9.440826145E+01 -7.327409433E+01  1.365844340E+02  2.203686011E+02  1.250000000E+02  0.00000E+00  9.000E+00
       2     1     1     2   502     0  1.417605305E+02  3.250646843E+02  1.060875506E+02  3.701589731E+02  1.348699152E-06  0.00000E+00  9.000E+00
#rwgt            1           1   3.0305164226130173E-002           9         531           0
</event>
<event>
      5   9999  3.19816E-02  7.38706E+01 -1.00000E+00  1.30048E-01
      21    -1     0     0   502   511  0.000000000E+00  0.000000000E+00  1.093934454E+02  1.093934454E+02  0.000000000E+00  0.00000E+00  9.000E+00
      21    -1     0     0   501   502  0.000000000E+00  0.000000000E+00 -8.915302036E+02  8.915302036E+02  0.000000000E+00  0.00000E+00  9.000E+00
      25     1     1     2     0     0 -5.515254319E+01 -4.151806470E+01 -1.586767584E+02  2.134686543E+02  1.250000000E+02  0.00000E+00  9.000E+00
      25     1     1     2     0     0  7.815031363E+01  1.117175808E+02 -6.733644584E+02  6.983072269E+02  1.250000000E+02  0.00000E+00  9.000E+00
      21     1     1     2   501   511 -2.299777044E+01 -7.019951615E+01  4.990445857E+01  8.914776777E+01  2.611744678E-06  0.00000E+00  9.000E+00
#rwgt            1           1   2.4748455398797269E-002           9         596           0
</event>
<event>
      5   9999  3.19816E-02  3.79180E+01 -1.00000E+00  1.46295E-01
       2    -1     0     0   502     0  0.000000000E+00  0.000000000E+00  5.634635933E+02  5.634635933E+02  0.000000000E+00  0.00000E+00  9.000E+00
      21    -1     0     0   501   502  0.000000000E+00  0.000000000E+00 -2.542453437E+02  2.542453437E+02  0.000000000E+00  0.00000E+00  9.000E+00
      25     1     1     2     0     0  1.228782291E+01 -8.252392425E+01  3.564130276E+02  3.868028372E+02  1.250000000E+02  0.00000E+00  9.000E+00
      25     1     1     2     0     0  2.272651802E+01  9.707621457E+01 -2.098879552E+02  2.638526858E+02  1.250000000E+02  0.00000E+00  9.000E+00
       2     1     1     2   501     0 -3.501434093E+01 -1.455229032E+01  1.626931772E+02  1.670534140E+02  1.907348633E-06  0.00000E+00  9.000E+00
#rwgt            1           1   2.6247450878253420E-002           9         656           0
</event>
<event>
      5   9999  3.19816E-02  2.14501E+01 -1.00000E+00  1.63899E-01
       2    -1     0     0   502     0  0.000000000E+00  0.000000000E+00  9.891559574E+02  9.891559574E+02  0.000000000E+00  0.00000E+00  9.000E+00
      21    -1     0     0   501   502  0.000000000E+00  0.000000000E+00 -5.561047669E+02  5.561047669E+02  0.000000000E+00  0.00000E+00  9.000E+00
      25     1     1     2     0     0  1.119666536E+02 -6.641370646E+01  9.347053566E+02  9.519697556E+02  1.250000000E+02  0.00000E+00  9.000E+00
      25     1     1     2     0     0 -1.044892224E+02  8.651825501E+01 -5.280122038E+02  5.593078699E+02  1.250000000E+02  0.00000E+00  9.000E+00
       2     1     1     2   501     0 -7.477431238E+00 -2.010454855E+01  2.635803766E+01  3.398309874E+01  3.371747881E-07  0.00000E+00  9.000E+00
#rwgt            1           1   3.2385484818005315E-002           9         741           0
</event>
<event>
      5   9999  3.19816E-02  2.13042E+02 -1.00000E+00  1.10658E-01
      21    -1     0     0   502   501  0.000000000E+00  0.000000000E+00  1.983234275E+03  1.983234275E+03  0.000000000E+00  0.00000E+00  9.000E+00
      -2    -1     0     0     0   502  0.000000000E+00  0.000000000E+00 -1.835765169E+02  1.835765169E+02  0.000000000E+00  0.00000E+00  9.000E+00
      25     1     1     2     0     0  9.940338298E+01 -1.723172770E+02  1.082323606E+03  1.107530435E+03  1.250000000E+02  0.00000E+00  9.000E+00
      25     1     1     2     0     0 -3.440766988E+00  3.625228673E+02  7.513345019E+02  8.435420570E+02  1.250000000E+02  0.00000E+00  9.000E+00
      -2     1     1     2     0   501 -9.596261599E+01 -1.902055903E+02 -3.400034970E+01  2.157382998E+02  4.744469820E-06  0.00000E+00  9.000E+00
#rwgt            1           1   2.3584651241993597E-002           9         924           0
</event>
<event>
      5   9999  3.19816E-02  3.24054E+01 -1.00000E+00  1.50749E-01
      21    -1     0     0   502   511  0.000000000E+00  0.000000000E+00  3.141413308E+02  3.141413308E+02  0.000000000E+00  0.00000E+00  9.000E+00
      21    -1     0     0   501   502  0.000000000E+00  0.000000000E+00 -1.202208025E+03  1.202208025E+03  0.000000000E+00  0.00000E+00  9.000E+00
      25     1     1     2     0     0  5.257753268E+02 -1.064372801E+02 -5.236007585E+02  7.599679883E+02  1.250000000E+02  0.00000E+00  9.000E+00
      25     1     1     2     0     0 -4.941294013E+02  1.134119656E+02 -4.344474623E+02  6.792611697E+02  1.250000000E+02  0.00000E+00  9.000E+00
      21     1     1     2   501   511 -3.164592546E+01 -6.974685510E+00  6.998152662E+01  7.712019778E+01  1.907348633E-06  0.00000E+00  9.000E+00
#rwgt            1           1   3.0163904544738107E-002           9         963           0
</event>
<event>
      5   9999  3.19816E-02  1.71016E+01 -1.00000E+00  1.72182E-01
      21    -1     0     0   502   501  0.000000000E+00  0.000000000E+00  3.061324805E+02  3.061324805E+02  0.000000000E+00  0.00000E+00  9.000E+00
       2    -1     0     0   501     0  0.000000000E+00  0.000000000E+00 -3.451210307E+02  3.451210307E+02  0.000000000E+00  0.00000E+00  9.000E+00
      25     1     1     2     0     0 -5.346396127E+01 -2.097157154E+02  8.771962807E+01  2.648750830E+02  1.250000000E+02  0.00000E+00  9.000E+00
      25     1     1     2     0     0  4.574004081E+01  1.944576872E+02  2.201413807E+01  2.366760776E+02  1.250000000E+02  0.00000E+00  9.000E+00
       2     1     1     2   502     0  7.723920451E+00  1.525802824E+01 -1.487223163E+02  1.497023505E+02  2.697398305E-06  0.00000E+00  9.000E+00
#rwgt            1           1   2.6931334954867690E-002           9        1120           0
</event>
<event>
      5   9999  3.19816E-02  8.57557E+01 -1.00000E+00  1.26906E-01
      21    -1     0     0   502   501  0.000000000E+00  0.000000000E+00  5.301456453E+02  5.301456453E+02  0.000000000E+00  0.00000E+00  9.000E+00
      21    -1     0     0   501   511  0.000000000E+00  0.000000000E+00 -1.825040545E+02  1.825040545E+02  0.000000000E+00  0.00000E+00  9.000E+00
      25     1     1     2     0     0 -1.972670178E+02  3.556662566E+01  4.205505872E+01  2.399435124E+02  1.250000000E+02  0.00000E+00  9.000E+00
      25     1     1     2     0     0  1.899361033E+02 -1.210084136E+02  2.857163299E+02  3.846785420E+02  1.250000000E+02  0.00000E+00  9.000E+00
      21     1     1     2   502   511  7.330914509E+00  8.544178796E+01  1.987020218E+01  8.802764550E+01  1.305872339E-06  0.00000E+00  9.000E+00
#rwgt            1           1   2.9219844690295722E-002           9        1301           0
</event>
<event>
      5   9999  3.19816E-02  2.75263E+01 -1.00000E+00  1.55682E-01
      21    -1     0     0   502   512  0.000000000E+00  0.000000000E+00  5.045090364E+02  5.045090364E+02  0.000000000E+00  0.00000E+00  9.000E+00
      21    -1     0     0   501   502  0.000000000E+00  0.000000000E+00 -3.119497250E+02  3.119497250E+02  0.000000000E+00  0.00000E+00  9.000E+00
      25     1     1     2     0     0 -1.299869158E+01  2.790417814E+02  1.302661774E+02  3.326072139E+02  1.250000000E+02  0.00000E+00  9.000E+00
      25     1     1     2     0     0  3.869051031E+01 -2.691610842E+02 -1.028261665E+02  3.164535753E+02  1.250000000E+02  0.00000E+00  9.000E+00
      21     1     1     2   501   512 -2.569181873E+01 -9.880697230E+00  1.651193004E+02  1.673979722E+02  1.907348633E-06  0.00000E+00  9.000E+00
#rwgt            1           1   2.8864421817449436E-002           9        1358           0
</event>
<event>
      5   9999  3.19816E-02  4.54260E+01 -1.00000E+00  1.41495E-01
      21    -1     0     0   502   501  0.000000000E+00  0.000000000E+00  1.583700133E+03  1.583700133E+03  0.000000000E+00  0.00000E+00  9.000E+00
      21    -1     0     0   501   511  0.000000000E+00  0.000000000E+00 -4.753647299E+01  4.753647299E+01  0.000000000E+00  0.00000E+00  9.000E+00
      25     1     1     2     0     0 -1.024879223E+02 -4.623147010E+01  3.196956152E+02  3.612082632E+02  1.250000000E+02  0.00000E+00  9.000E+00
      25     1     1     2     0     0  7.686528367E+01  8.374154653E+01  1.212736649E+03  1.224449304E+03  1.250000000E+02  0.00000E+00  9.000E+00
      21     1     1     2   502   511  2.562263858E+01 -3.751007643E+01  3.731395662E+00  4.557903855E+01  1.361806352E-06  0.00000E+00  9.000E+00
#rwgt            1           1   2.8808890476274381E-002           9        1516           0
</event>
<event>
      5   9999  3.19816E-02  1.67200E+02 -1.00000E+00  1.14555E-01
      21    -1     0     0   512   501  0.000000000E+00  0.000000000E+00  3.361856924E+02  3.361856924E+02  0.000000000E+00  0.00000E+00  9.000E+00
      21    -1     0     0   501   502  0.000000000E+00  0.000000000E+00 -3.539112411E+02  3.539112411E+02  0.000000000E+00  0.00000E+00  9.000E+00
      25     1     1     2     0     0  1.771512772E+02  1.318714294E+02 -4.099111139E+01  2.570562587E+02  1.250000000E+02  0.00000E+00  9.000E+00
      25     1     1     2     0     0 -2.320545563E+02  2.605697241E+01  5.762866001E+00  2.649273363E+02  1.250000000E+02  0.00000E+00  9.000E+00
      21     1     1     2   512   502  5.490327908E+01 -1.579284018E+02  1.750269668E+01  1.681133384E+02  1.862108630E-06  0.00000E+00  9.000E+00
#rwgt            1           1   2.5340071731021017E-002           9        1584           0
</event>
<event>
      5   9999  3.19816E-02  6.45690E+01 -1.00000E+00  1.33022E-01
      21    -1     0     0   502   501  0.000000000E+00  0.000000000E+00  1.755972261E+01  1.755972261E+01  0.000000000E+00  0.00000E+00  9.000E+00
       2    -1     0     0   501     0  0.000000000E+00  0.000000000E+00 -3.604572372E+03  3.604572372E+03  0.000000000E+00  0.00000E+00  9.000E+00
      25     1     1     2     0     0  7.938890233E+01 -3.891959145E+01 -5.021011556E+02  5.249265690E+02  1.250000000E+02  0.00000E+00  9.000E+00
      25     1     1     2     0     0 -8.118964807E+01  1.034635008E+02 -1.492964626E+03  1.503949743E+03  1.250000000E+02  0.00000E+00  9.000E+00
       2     1     1     2   502     0  1.800745749E+00 -6.454390932E+01 -1.591946868E+03  1.593255783E+03  2.157918644E-05  0.00000E+00  9.000E+00
#rwgt            1           1   6.8378372546986713E-002           9        1643           0
</event>
<event>
      5   9999  3.19816E-02  2.81383E+02 -1.00000E+00  1.06504E-01
       1    -1     0     0   502     0  0.000000000E+00  0.000000000E+00  2.529802850E+03  2.529802850E+03  0.000000000E+00  0.00000E+00  9.000E+00
      21    -1     0     0   501   502  0.000000000E+00  0.000000000E+00 -1.097042394E+02  1.097042394E+02  0.000000000E+00  0.00000E+00  9.000E+00
      25     1     1     2     0     0  8.998361076E+01 -1.863161885E+02  9.461013349E+02  9.764955239E+02  1.250000000E+02  0.00000E+00  9.000E+00
      25     1     1     2     0     0 -3.631614635E+02  1.188590208E+02  4.611236772E+02  6.117791768E+02  1.250000000E+02  0.00000E+00  9.000E+00
       1     1     1     2   501     0  2.731778528E+02  6.745716764E+01  1.012873598E+03  1.051232389E+03  2.412626389E-05  0.00000E+00  9.000E+00
#rwgt            1           1   2.8076973050175414E-002           9        1710           0
</event>
<event>
      5   9999  3.19816E-02  2.25407E+01 -1.00000E+00  1.62195E-01
      21    -1     0     0   502   501  0.000000000E+00  0.000000000E+00  1.166775355E+02  1.166775355E+02  0.000000000E+00  0.00000E+00  9.000E+00
      21    -1     0     0   501   511  0.000000000E+00  0.000000000E+00 -1.771905361E+03  1.771905361E+03  0.000000000E+00  0.00000E+00  9.000E+00
      25     1     1     2     0     0  3.418411829E+01 -6.964394524E+01  6.202510357E+01  1.596588442E+02  1.250000000E+02  0.00000E+00  9.000E+00
      25     1     1     2     0     0 -3.940327719E+01  9.157212921E+01 -1.655197343E+03  1.662901476E+03  1.250000000E+02  0.00000E+00  9.000E+00
      21     1     1     2   502   511  5.219158904E+00 -2.192818396E+01 -6.205558614E+01  6.602257677E+01  1.168007728E-06  0.00000E+00  9.000E+00
#rwgt            1           1   3.2327924310089171E-002           9        1754           0
</event>
<event>
      5   9999  3.19816E-02  4.03427E+01 -1.00000E+00  1.44611E-01
      21    -1     0     0   512   501  0.000000000E+00  0.000000000E+00  3.456622930E+02  3.456622930E+02  0.000000000E+00  0.00000E+00  9.000E+00
      21    -1     0     0   501   502  0.000000000E+00  0.000000000E+00 -2.941075750E+02  2.941075750E+02  0.000000000E+00  0.00000E+00  9.000E+00
      25     1     1     2     0     0  4.885251958E+01  1.559078255E+02 -1.937001237E+02  2.825571741E+02  1.250000000E+02  0.00000E+00  9.000E+00
      25     1     1     2     0     0 -1.554775057E+01 -1.786745984E+02  2.164720014E+02  3.076547936E+02  1.250000000E+02  0.00000E+00  9.000E+00
      21     1     1     2   512   502 -3.330476901E+01  2.276677292E+01  2.878284024E+01  4.955790028E+01  1.011524364E-06  0.00000E+00  9.000E+00
#rwgt            1           1   2.8409336281640503E-002           9        1889           0
</event>
<event>
      5   9999  3.19816E-02  3.12193E+01 -1.00000E+00  1.51848E-01
      21    -1     0     0   502   511  0.000000000E+00  0.000000000E+00  6.119763935E+02  6.119763935E+02  0.000000000E+00  0.00000E+00  9.000E+00
      21    -1     0     0   501   502  0.000000000E+00  0.000000000E+00 -8.128303773E+01  8.128303773E+01  0.000000000E+00  0.00000E+00  9.000E+00
      25     1     1     2     0     0  1.237167626E+02 -5.575894618E+01  2.255275464E+02  2.913804585E+02  1.250000000E+02  0.00000E+00  9.000E+00
      25     1     1     2     0     0 -1.128638682E+02  2.648681306E+01  1.070248512E+02  2.012936233E+02  1.250000000E+02  0.00000E+00  9.000E+00
      21     1     1     2   501   511 -1.085289437E+01  2.927213312E+01  1.981409581E+02  2.005853493E+02  0.000000000E+00  0.00000E+00  9.000E+00
#rwgt            1           1   2.5596779926276212E-002           9        1967           0
</event>
<event>
      5   9999  3.19816E-02  1.19637E+02 -1.00000E+00  1.20424E-01
      21    -1     0     0   502   501  0.000000000E+00  0.000000000E+00  1.337359424E+03  1.337359424E+03  0.000000000E+00  0.00000E+00  9.000E+00
      21    -1     0     0   501   512  0.000000000E+00  0.000000000E+00 -2.743160950E+02  2.743160950E+02  0.000000000E+00  0.00000E+00  9.000E+00
      25     1     1     2     0     0 -6.885078339E+01 -5.161614961E+02  7.349744913E+02  9.093820008E+02  1.250000000E+02  0.00000E+00  9.000E+00
      25     1     1     2     0     0 -4.494011740E+01  4.792209180E+02  2.948535539E+02  5.781314043E+02  1.250000000E+02  0.00000E+00  9.000E+00
      21     1     1     2   502   512  1.137909008E+02  3.694057804E+01  3.321528363E+01  1.241621137E+02  1.907348633E-06  0.00000E+00  9.000E+00
#rwgt            1           1   2.2612966959956099E-002           9        2092           0
</event>
<event>
      5   9999  3.19816E-02  2.90746E+01 -1.00000E+00  1.53991E-01
      21    -1     0     0   511   501  0.000000000E+00  0.000000000E+00  3.678325158E+02  3.678325158E+02  0.000000000E+00  0.00000E+00  9.000E+00
      21    -1     0     0   501   502  0.000000000E+00  0.000000000E+00 -1.824256199E+02  1.824256199E+02  0.000000000E+00  0.00000E+00  9.000E+00
      25     1     1     2     0     0 -4.746760509E+00 -1.479771159E+02  2.137783908E+02  2.885237581E+02  1.250000000E+02  0.00000E+00  9.000E+00
      25     1     1     2     0     0 -2.006951327E+01  1.631259186E+02 -6.359568544E+01  2.160607829E+02  1.250000000E+02  0.00000E+00  9.000E+00
      21     1     1     2   511   502  2.481627377E+01 -1.514880268E+01  3.522419049E+01  4.567359480E+01  6.743495762E-07  0.00000E+00  9.000E+00
#rwgt            1           1   2.9995051858046066E-002           9        2191           0
</event>
<event>
      5   9999  3.19816E-02  3.77446E+01 -1.00000E+00  1.46421E-01
      21    -1     0     0   502   512  0.000000000E+00  0.000000000E+00  1.135416317E+02  1.135416317E+02  0.000000000E+00  0.00000E+00  9.000E+00
      21    -1     0     0   501   502  0.000000000E+00  0.000000000E+00 -5.948268557E+02  5.948268557E+02  0.000000000E+00  0.00000E+00  9.000E+00
      25     1     1     2     0     0 -6.064791961E+01 -1.451961205E+01 -4.391652811E+02  4.608471909E+02  1.250000000E+02  0.00000E+00  9.000E+00
      25     1     1     2     0     0  9.165618220E+01 -7.001137545E+00 -9.546234346E+01  1.821755491E+02  1.250000000E+02  0.00000E+00  9.000E+00
      21     1     1     2   501   512 -3.100826259E+01  2.152074960E+01  5.334240052E+01  6.534574742E+01  1.907348633E-06  0.00000E+00  9.000E+00
#rwgt            1           1   1.5897187306777350E-002           9        2291           0
</event>
<event>
      5   9999  3.19816E-02  5.92079E+01 -1.00000E+00  1.35013E-01
      21    -1     0     0   502   501  0.000000000E+00  0.000000000E+00  6.222046204E+02  6.222046204E+02  0.000000000E+00  0.00000E+00  9.000E+00
      21    -1     0     0   511   502  0.000000000E+00  0.000000000E+00 -2.700748928E+02  2.700748928E+02  0.000000000E+00  0.00000E+00  9.000E+00
      25     1     1     2     0     0 -1.604046051E+02  2.063678747E+02  1.891971502E+02  3.460316441E+02  1.250000000E+02  0.00000E+00  9.000E+00
      25     1     1     2     0     0  1.116089901E+02 -2.399023386E+02  2.863096816E+02  4.093994779E+02  1.250000000E+02  0.00000E+00  9.000E+00
      21     1     1     2   511   501  4.879561495E+01  3.353446392E+01 -1.233771043E+02  1.368483912E+02  1.348699152E-06  0.00000E+00  9.000E+00
#rwgt            1           1   3.2637258289140297E-002           9        2432           0
</event>
<event>
      5   9999  3.19816E-02  1.23302E+01 -1.00000E+00  1.85797E-01
      21    -1     0     0   502   512  0.000000000E+00  0.000000000E+00  5.593838040E+02  5.593838040E+02  0.000000000E+00  0.00000E+00  9.000E+00
      21    -1     0     0   501   502  0.000000000E+00  0.000000000E+00 -3.177341779E+02  3.177341779E+02  0.000000000E+00  0.00000E+00  9.000E+00
      25     1     1     2     0     0  2.129491249E+02  1.863514694E+02  3.410794756E+02  4.604719412E+02  1.250000000E+02  0.00000E+00  9.000E+00
      25     1     1     2     0     0 -2.020480587E+02 -1.921134241E+02 -1.668343233E+02  3.481230777E+02  1.250000000E+02  0.00000E+00  9.000E+00
      21     1     1     2   501   512 -1.090106616E+01  5.761954696E+00  6.740447388E+01  6.852296304E+01  9.536743164E-07  0.00000E+00  9.000E+00
#rwgt            1           1   2.5016565918994409E-002           9        2518           0
</event>
<event>
      5   9999  3.19816E-02  6.40989E+01 -1.00000E+00  1.33187E-01
      21    -1     0     0   511   501  0.000000000E+00  0.000000000E+00  2.742289562E+03  2.742289562E+03  0.000000000E+00  0.00000E+00  9.000E+00
      21    -1     0     0   501   502  0.000000000E+00  0.000000000E+00 -1.162549767E+03  1.162549767E+03  0.000000000E+00  0.00000E+00  9.000E+00
      25     1     1     2     0     0 -1.660348312E+03  4.474189844E+02  5.283677511E+02  1.803257537E+03  1.250000000E+02  0.00000E+00  9.000E+00
      25     1     1     2     0     0  1.653242151E+03 -3.837151946E+02  8.742400554E+02  1.913208728E+03  1.250000000E+02  0.00000E+00  9.000E+00
      21     1     1     2   511   502  7.106160894E+00 -6.370378985E+01  1.771319884E+02  1.883730652E+02  3.303624740E-06  0.00000E+00  9.000E+00
#rwgt            1           1   2.5361229655324467E-002           9        2718           0
</event>
<event>
      5   9999  3.19816E-02  6.14941E+01 -1.00000E+00  1.34135E-01
      21    -1     0     0   512   501  0.000000000E+00  0.000000000E+00  1.126169271E+02  1.126169271E+02  0.000000000E+00  0.00000E+00  9.000E+00
      21    -1     0     0   501   502  0.000000000E+00  0.000000000E+00 -3.125405238E+03  3.125405238E+03  0.000000000E+00  0.00000E+00  9.000E+00
      25     1     1     2     0     0  1.980325969E+01  4.898766201E+02 -1.484884894E+03  1.568719038E+03  1.250000000E+02  0.00000E+00  9.000E+00
      25     1     1     2     0     0 -7.196599653E+01 -5.224430858E+02 -1.511389225E+03  1.605630179E+03  1.250000000E+02  0.00000E+00  9.000E+00
      21     1     1     2   512   502  5.216273684E+01  3.256646568E+01 -1.651419234E+01  6.367294834E+01  1.617033478E-06  0.00000E+00  9.000E+00
#rwgt            1           1   4.6936152096570281E-002           9        2888           0
</event>
<event>
      5   9999  3.19816E-02  7.94499E+01 -1.00000E+00  1.28495E-01
      21    -1     0     0   502   501  0.000000000E+00  0.000000000E+00  7.713246560E+02  7.713246560E+02  0.000000000E+00  0.00000E+00  9.000E+00
       2    -1     0     0   501     0  0.000000000E+00  0.000000000E+00 -1.321469488E+03  1.321469488E+03  0.000000000E+00  0.00000E+00  9.000E+00
      25     1     1     2     0     0  3.724070540E+02  2.293883068E+02  6.001431706E+02  7.530623044E+02  1.250000000E+02  0.00000E+00  9.000E+00
      25     1     1     2     0     0 -4.309546024E+02 -1.756810600E+02 -5.377812179E+02  7.220937214E+02  1.250000000E+02  0.00000E+00  9.000E+00
       2     1     1     2   502     0  5.854754843E+01 -5.370724682E+01 -6.125067843E+02  6.176381179E+02  1.078959322E-05  0.00000E+00  9.000E+00
#rwgt            1           1   3.1320416558428432E-002           9        3099           0
</event>
<event>
      5   9999  3.19816E-02  2.83926E+02 -1.00000E+00  1.06375E-01
       2    -1     0     0   502     0  0.000000000E+00  0.000000000E+00  2.299370175E+03  2.299370175E+03  0.000000000E+00  0.00000E+00  9.000E+00
      21    -1     0     0   501   502  0.000000000E+00  0.000000000E+00 -4.592799766E+02  4.592799766E+02  0.000000000E+00  0.00000E+00  9.000E+00
      25     1     1     2     0     0 -4.623671568E+02  3.181408321E+01  6.353486120E+02  7.962966673E+02  1.250000000E+02  0.00000E+00  9.000E+00
      25     1     1     2     0     0  5.755923531E+02 -2.921871595E+02 -6.551244742E+01  6.607547003E+02  1.250000000E+02  0.00000E+00  9.000E+00
       2     1     1     2   501     0 -1.132251963E+02  2.603730763E+02  1.270254034E+03  1.301598784E+03  0.000000000E+00  0.00000E+00  9.000E+00
#rwgt            1           1   3.0030635968203455E-002           9        3196           0
</event>
<event>
      5   9999  3.19816E-02  7.24272E+02 -1.00000E+00  9.44854E-02
       2    -1     0     0   502     0  0.000000000E+00  0.000000000E+00  1.310152933E+03  1.310152933E+03  0.000000000E+00  0.00000E+00  9.000E+00
      21    -1     0     0   501   502  0.000000000E+00  0.000000000E+00 -8.328923309E+02  8.328923309E+02  0.000000000E+00  0.00000E+00  9.000E+00
      25     1     1     2     0     0  5.928833243E+02 -1.604920710E+02  2.673897415E+02  6.814621156E+02  1.250000000E+02  0.00000E+00  9.000E+00
      25     1     1     2     0     0  1.274008674E+02  2.363927894E+02 -4.116854612E+02  5.071710272E+02  1.250000000E+02  0.00000E+00  9.000E+00
       2     1     1     2   501     0 -7.202841917E+02 -7.590071843E+01  6.215563223E+02  9.544121215E+02  1.525878906E-05  0.00000E+00  9.000E+00
#rwgt            2          18   8.5962564871749306E-004           9        3368           0
</event>
<event>
      5   9999  3.19816E-02  3.07615E+01 -1.00000E+00  1.52288E-01
      21    -1     0     0   502   501  0.000000000E+00  0.000000000E+00  1.080120408E+02  1.080120408E+02  0.000000000E+00  0.00000E+00  9.000E+00
      21    -1     0     0   501   511  0.000000000E+00  0.000000000E+00 -1.349288196E+03  1.349288196E+03  0.000000000E+00  0.00000E+00  9.000E+00
      25     1     1     2     0     0  1.224064960E+02  2.928985214E+02 -3.219549860E+02  4.690979718E+02  1.250000000E+02  0.00000E+00  9.000E+00
      25     1     1     2     0     0 -1.212223405E+02 -2.621598695E+02 -7.099064362E+02  7.765402766E+02  1.250000000E+02  0.00000E+00  9.000E+00
      21     1     1     2   502   511 -1.184155420E+00 -3.073865196E+01 -2.094147330E+02  2.116619884E+02  0.000000000E+00  0.00000E+00  9.000E+00
#rwgt            1           1   2.7768546671864177E-002           9        3387           0
</event>
<event>
      5   9999  3.40812E-02  9.86748E+01 -1.00000E+00  1.24089E-01
      21    -1     0     0   502   512  0.000000000E+00  0.000000000E+00  1.952213051E+03  1.952213051E+03  0.000000000E+00  0.00000E+00  9.000E+00
      21    -1     0     0   501   502  0.000000000E+00  0.000000000E+00 -7.894492987E+02  7.894492987E+02  0.000000000E+00  0.00000E+00  9.000E+00
      25     1     1     2     0     0  2.001587019E+01 -8.070330327E+00 -7.071830375E+02  7.184696332E+02  1.250000000E+02  0.00000E+00  9.000E+00
      25     1     1     2     0     0 -1.170151349E+02  2.617702419E+01  2.429913442E+01  1.749091945E+02  1.250000000E+02  0.00000E+00  9.000E+00
      21     1     1     2   501   512  9.699926468E+01 -1.810669386E+01  1.845647655E+03  1.848283522E+03  3.051757812E-05  0.00000E+00  9.000E+00
#rwgt            2          11   5.0632437413534938E-002           9        3516           0
</event>
<event>
      5   9999  3.19816E-02  1.30408E+02 -1.00000E+00  1.18855E-01
      21    -1     0     0   502   501  0.000000000E+00  0.000000000E+00  6.019488345E+02  6.019488345E+02  0.000000000E+00  0.00000E+00  9.000E+00
      21    -1     0     0   511   502  0.000000000E+00  0.000000000E+00 -2.020324871E+03  2.020324871E+03  0.000000000E+00  0.00000E+00  9.000E+00
      25     1     1     2     0     0  6.074453544E+02 -5.413179367E+01 -1.647753092E+03  1.761429919E+03  1.250000000E+02  0.00000E+00  9.000E+00
      25     1     1     2     0     0 -5.309542198E+02 -5.148756805E+01  3.760873664E+02  6.645525264E+02  1.250000000E+02  0.00000E+00  9.000E+00
      21     1     1     2   511   501 -7.649113457E+01  1.056193617E+02 -1.467103116E+02  1.962912600E+02  4.264961200E-06  0.00000E+00  9.000E+00
#rwgt            2          11   9.4507178325207858E-003           9        3536           0
</event>
<event>
      5   9999  3.19816E-02  3.01235E+01 -1.00000E+00  1.52916E-01
      21    -1     0     0   502   501  0.000000000E+00  0.000000000E+00  6.426015011E+02  6.426015011E+02  0.000000000E+00  0.00000E+00  9.000E+00
      21    -1     0     0   512   502  0.000000000E+00  0.000000000E+00 -1.350078780E+02  1.350078780E+02  0.000000000E+00  0.00000E+00  9.000E+00
      25     1     1     2     0     0 -2.262254436E+02 -1.672330446E+01  2.025046347E+02  3.287715731E+02  1.250000000E+02  0.00000E+00  9.000E+00
      25     1     1     2     0     0  2.319260657E+02 -1.285583504E+01  3.204270328E+02  4.150342827E+02  1.250000000E+02  0.00000E+00  9.000E+00
      21     1     1     2   512   501 -5.700622057E+00  2.957913950E+01 -1.533804441E+01  3.380352336E+01  8.760057960E-07  0.00000E+00  9.000E+00
#rwgt            1           1   2.9627888531436962E-002           9        3571           0
</event>
<event>
      5   9999  3.19816E-02  1.01883E+02 -1.00000E+00  1.23465E-01
      21    -1     0     0   502   511  0.000000000E+00  0.000000000E+00  2.104914715E+03  2.104914715E+03  0.000000000E+00  0.00000E+00  9.000E+00
      21    -1     0     0   501   502  0.000000000E+00  0.000000000E+00 -1.092834106E+02  1.092834106E+02  0.000000000E+00  0.00000E+00  9.000E+00
      25     1     1     2     0     0 -2.279882369E+02  2.649101491E+02  6.599453264E+02  7.571716167E+02  1.250000000E+02  0.00000E+00  9.000E+00
      25     1     1     2     0     0  3.014234628E+02 -3.355311330E+02  9.637665651E+02  1.071404796E+03  1.250000000E+02  0.00000E+00  9.000E+00
      21     1     1     2   501   511 -7.343522589E+01  7.062098388E+01  3.719194125E+02  3.856217125E+02  0.000000000E+00  0.00000E+00  9.000E+00
#rwgt            1           1   2.8948676723701171E-002           9        3697           0
</event>
<event>
      5   9999  3.19816E-02  4.61801E+01 -1.00000E+00  1.41074E-01
       2    -1     0     0   502     0  0.000000000E+00  0.000000000E+00  2.655049560E+03  2.655049560E+03  0.000000000E+00  0.00000E+00  9.000E+00
      21    -1     0     0   501   502  0.000000000E+00  0.000000000E+00 -2.941460473E+02  2.941460473E+02  0.000000000E+00  0.00000E+00  9.000E+00
      25     1     1     2     0     0 -9.606700646E+00  5.018686855E+02  6.529650813E+02  8.330383326E+02  1.250000000E+02  0.00000E+00  9.000E+00
      25     1     1     2     0     0  5.546814129E+01 -5.072843703E+02  1.348935905E+02  5.424347222E+02  1.250000000E+02  0.00000E+00  9.000E+00
       2     1     1     2   501     0 -4.586144064E+01  5.415684819E+00  1.573044841E+03  1.573722553E+03  0.000000000E+00  0.00000E+00  9.000E+00
#rwgt            1           1   2.8224065810677972E-002           9        3776           0
</event>
<event>
      5   9999  3.19816E-02  5.78714E+01 -1.00000E+00  1.35547E-01
      21    -1     0     0   502   501  0.000000000E+00  0.000000000E+00  1.798192205E+03  1.798192205E+03  0.000000000E+00  0.00000E+00  9.000E+00
      21    -1     0     0   501   511  0.000000000E+00  0.000000000E+00 -7.632800034E+02  7.632800034E+02  0.000000000E+00  0.00000E+00  9.000E+00
      25     1     1     2     0     0  5.514699499E+02 -7.237509442E+02  1.257988539E+03  1.557592597E+03  1.250000000E+02  0.00000E+00  9.000E+00
      25     1     1     2     0     0 -5.977836456E+02  6.890501484E+02 -2.142659542E+02  9.453413632E+02  1.250000000E+02  0.00000E+00  9.000E+00
      21     1     1     2   502   511  4.631369570E+01  3.470079582E+01 -8.810383023E+00  5.853824809E+01  1.685873940E-07  0.00000E+00  9.000E+00
#rwgt            1           1   3.1841031595359268E-002           9        3933           0
</event>
<event>
      5   9999  3.19816E-02  1.34551E+01 -1.00000E+00  1.81949E-01
      21    -1     0     0   502   501  0.000000000E+00  0.000000000E+00  3.822043645E+02  3.822043645E+02  0.000000000E+00  0.00000E+00  9.000E+00
      21    -1     0     0   501   512  0.000000000E+00  0.000000000E+00 -6.301554259E+02  6.301554259E+02  0.000000000E+00  0.00000E+00  9.000E+00
      25     1     1     2     0     0  7.498601508E+01  3.069712946E+01  3.317438678E+02  3.636539702E+02  1.250000000E+02  0.00000E+00  9.000E+00
      25     1     1     2     0     0 -8.357052581E+01 -2.033631319E+01 -1.328909396E+02  2.016992818E+02  1.250000000E+02  0.00000E+00  9.000E+00
      21     1     1     2   502   512  8.584510729E+00 -1.036081626E+01 -4.468039896E+02  4.470065385E+02  9.344061824E-06  0.00000E+00  9.000E+00
#rwgt            1           1   3.1324414141632465E-002           9        4180           0
</event>
<event>
      5   9999  3.19816E-02  2.72911E+01 -1.00000E+00  1.55950E-01
      21    -1     0     0   502   511  0.000000000E+00  0.000000000E+00  1.385561498E+03  1.385561498E+03  0.000000000E+00  0.00000E+00  9.000E+00
      21    -1     0     0   501   502  0.000000000E+00  0.000000000E+00 -4.404945256E+01  4.404945256E+01  0.000000000E+00  0.00000E+00  9.000E+00
      25     1     1     2     0     0  1.653284233E+02  1.866101922E+01  5.920197305E+02  6.275301447E+02  1.250000000E+02  0.00000E+00  9.000E+00
      25     1     1     2     0     0 -1.834775187E+02  1.720673671E+00  4.544945743E+02  5.058233671E+02  1.250000000E+02  0.00000E+00  9.000E+00
      21     1     1     2   501   511  1.814909546E+01 -2.038169289E+01  2.949977409E+02  2.962574391E+02  0.000000000E+00  0.00000E+00  9.000E+00
#rwgt            1           1   2.7961214483441622E-002           9        4387           0
</event>
<event>
      5   9999  3.19816E-02  1.93464E+02 -1.00000E+00  1.12176E-01
       2    -1     0     0   502     0  0.000000000E+00  0.000000000E+00  1.029689428E+03  1.029689428E+03  0.000000000E+00  0.00000E+00  9.000E+00
      21    -1     0     0   501   502  0.000000000E+00  0.000000000E+00 -2.404704140E+03  2.404704140E+03  0.000000000E+00  0.00000E+00  9.000E+00
      25     1     1     2     0     0  1.747467009E+02 -2.180023470E+02 -1.920990764E+03  1.945222853E+03  1.250000000E+02  0.00000E+00  9.000E+00
      25     1     1     2     0     0 -2.039339998E+02  2.675296639E+01 -4.307698090E+02  4.934495170E+02  1.250000000E+02  0.00000E+00  9.000E+00
       2     1     1     2   501     0  2.918729893E+01  1.912493806E+02  9.767458616E+02  9.957211970E+02  1.868812365E-05  0.00000E+00  9.000E+00
#rwgt            1           1   7.4720453193199421E-002           9        4537           0
</event>
<event>
      5   9999  3.19816E-02  2.17154E+01 -1.00000E+00  1.63473E-01
      21    -1     0     0   502   501  0.000000000E+00  0.000000000E+00  3.723878211E+02  3.723878211E+02  0.000000000E+00  0.00000E+00  9.000E+00
      21    -1     0     0   511   502  0.000000000E+00  0.000000000E+00 -5.526284424E+02  5.526284424E+02  0.000000000E+00  0.00000E+00  9.000E+00
      25     1     1     2     0     0 -2.618955035E+02  2.469124288E+02  1.257190299E+02  4.012297057E+02  1.250000000E+02  0.00000E+00  9.000E+00
      25     1     1     2     0     0  2.783795709E+02 -2.610486682E+02 -3.000096857E+02  5.012707893E+02  1.250000000E+02  0.00000E+00  9.000E+00
      21     1     1     2   511   501 -1.648406736E+01  1.413623941E+01 -5.949965509E+00  2.251576850E+01  8.429369702E-08  0.00000E+00  9.000E+00
#rwgt            1           1   2.9387800507041911E-002           9        4571           0
</event>
<event>
      5   9999  3.19816E-02  7.77210E+00 -1.00000E+00  2.09325E-01
      21    -1     0     0   502   501  0.000000000E+00  0.000000000E+00  1.421938803E+03  1.421938803E+03  0.000000000E+00  0.00000E+00  9.000E+00
      21    -1     0     0   501   512  0.000000000E+00  0.000000000E+00 -1.154927600E+02  1.154927600E+02  0.000000000E+00  0.00000E+00  9.000E+00
      25     1     1     2     0     0  1.900281128E+02  2.406113735E+02  1.065912965E+03  1.116154095E+03  1.250000000E+02  0.00000E+00  9.000E+00
      25     1     1     2     0     0 -1.906463249E+02 -2.483588435E+02  2.392674182E+02  4.134029919E+02  1.250000000E+02  0.00000E+00  9.000E+00
      21     1     1     2   502   512  6.182121208E-01  7.747469924E+00  1.265660567E+00  7.874476054E+00  2.210199382E-07  0.00000E+00  9.000E+00
#rwgt            1           1   3.1503713639237145E-002           9        4841           0
</event>
<event>
      5   9999  3.19816E-02  1.37467E+02 -1.00000E+00  1.17915E-01
      21    -1     0     0   502   511  0.000000000E+00  0.000000000E+00  1.463868125E+03  1.463868125E+03  0.000000000E+00  0.00000E+00  9.000E+00
      21    -1     0     0   501   502  0.000000000E+00  0.000000000E+00 -1.320585252E+03  1.320585252E+03  0.000000000E+00  0.00000E+00  9.000E+00
      25     1     1     2     0     0 -5.925140425E+02  3.984878082E+02 -9.181475418E+02  1.169822778E+03  1.250000000E+02  0.00000E+00  9.000E+00
      25     1     1     2     0     0  4.698248219E+02 -3.364833195E+02  4.940840767E+01  5.933149066E+02  1.250000000E+02  0.00000E+00  9.000E+00
      21     1     1     2   501   511  1.226892205E+02 -6.200448873E+01  1.012022007E+03  1.021315693E+03  1.078959322E-05  0.00000E+00  9.000E+00
#rwgt            1           1   2.9385090550950243E-002           9        5176           0
</event>
<event>
      5   9999  3.19816E-02  3.60481E+01 -1.00000E+00  1.47699E-01
      21    -1     0     0   502   501  0.000000000E+00  0.000000000E+00  5.322875813E+02  5.322875813E+02  0.000000000E+00  0.00000E+00  9.000E+00
      21    -1     0     0   512   502  0.000000000E+00  0.000000000E+00 -1.069716727E+03  1.069716727E+03  0.000000000E+00  0.00000E+00  9.000E+00
      25     1     1     2     0     0 -2.898241263E+02  1.553499300E+02  6.396262126E+01  3.575581657E+02  1.250000000E+02  0.00000E+00  9.000E+00
      25     1     1     2     0     0  3.253259068E+02 -1.616018889E+02  2.062344811E+02  4.360157994E+02  1.250000000E+02  0.00000E+00  9.000E+00
      21     1     1     2   512   501 -3.550178050E+01  6.251958844E+00 -8.076262482E+02  8.084303434E+02  1.078959322E-05  0.00000E+00  9.000E+00
#rwgt            1           1   2.7491845888393360E-002           9        5256           0
</event>
<event>
      5   9999  3.19816E-02  1.87372E+01 -1.00000E+00  1.68740E-01
      21    -1     0     0   502   511  0.000000000E+00  0.000000000E+00  8.992915862E+01  8.992915862E+01  0.000000000E+00  0.00000E+00  9.000E+00
      21    -1     0     0   501   502  0.000000000E+00  0.000000000E+00 -6.996035299E+02  6.996035299E+02  0.000000000E+00  0.00000E+00  9.000E+00
      25     1     1     2     0     0  1.118824951E+02 -1.716935664E+02 -3.386941258E+02  4.151326105E+02  1.250000000E+02  0.00000E+00  9.000E+00
      25     1     1     2     0     0 -9.542685135E+01  1.806543680E+02 -2.485416768E+02  3.451669882E+02  1.250000000E+02  0.00000E+00  9.000E+00
      21     1     1     2   501   511 -1.645564375E+01 -8.960801588E+00 -2.243856873E+01  2.923308987E+01  2.384185791E-07  0.00000E+00  9.000E+00
#rwgt            1           1   2.7284882084525793E-002           9        5389           0
</event>
<event>
      5   9999  3.19816E-02  6.78640E+01 -1.00000E+00  1.31906E-01
      21    -1     0     0   502   501  0.000000000E+00  0.000000000E+00  2.999780956E+02  2.999780956E+02  0.000000000E+00  0.00000E+00  9.000E+00
      21    -1     0     0   512   502  0.000000000E+00  0.000000000E+00 -6.237375310E+02  6.237375310E+02  0.000000000E+00  0.00000E+00  9.000E+00
      25     1     1     2     0     0 -2.465750558E+02  2.851302158E+01  8.268724931E+01  2.899559135E+02  1.250000000E+02  0.00000E+00  9.000E+00
      25     1     1     2     0     0  1.995864680E+02  2.045221476E+01 -1.542009711E+01  2.368878019E+02  1.250000000E+02  0.00000E+00  9.000E+00
      21     1     1     2   512   501  4.698858777E+01 -4.896523634E+01 -3.910265876E+02  3.968719113E+02  0.000000000E+00  0.00000E+00  9.000E+00
#rwgt            1           1   2.6642280546095756E-002           9        5521           0
</event>
<event>
      5   9999  3.19816E-02  5.93412E+01 -1.00000E+00  1.34960E-01
      21    -1     0     0   511   501  0.000000000E+00  0.000000000E+00  6.190631844E+02  6.190631844E+02  0.000000000E+00  0.00000E+00  9.000E+00
      21    -1     0     0   501   502  0.000000000E+00  0.000000000E+00 -3.654453903E+02  3.654453903E+02  0.000000000E+00  0.00000E+00  9.000E+00
      25     1     1     2     0     0 -1.318336414E+02  7.435171691E+01 -1.898906150E+02  2.731148705E+02  1.250000000E+02  0.00000E+00  9.000E+00
      25     1     1     2     0     0  1.678557404E+02 -1.215086954E+02 -2.118435793E+01  2.429273341E+02  1.250000000E+02  0.00000E+00  9.000E+00
      21     1     1     2   511   502 -3.602209893E+01  4.715697852E+01  4.646927670E+02  4.684663701E+02  0.000000000E+00  0.00000E+00  9.000E+00
#rwgt            2          11   2.7183355788591092E-003           9        5966           0
</event>
<event>
      5   9999  3.19816E-02  6.54364E+01 -1.00000E+00  1.32721E-01
      21    -1     0     0   502   501  0.000000000E+00  0.000000000E+00  3.408933184E+02  3.408933184E+02  0.000000000E+00  0.00000E+00  9.000E+00
      21    -1     0     0   501   512  0.000000000E+00  0.000000000E+00 -3.304728965E+02  3.304728965E+02  0.000000000E+00  0.00000E+00  9.000E+00
      25     1     1     2     0     0  4.236725413E+01  9.759848448E+01  2.667826754E+02  3.132386379E+02  1.250000000E+02  0.00000E+00  9.000E+00
      25     1     1     2     0     0  2.303032689E+01 -9.534449318E+01 -2.445486156E+02  2.916333207E+02  1.250000000E+02  0.00000E+00  9.000E+00
      21     1     1     2   502   512 -6.539758102E+01 -2.253991300E+00 -1.181363799E+01  6.649425632E+01  8.760057960E-07  0.00000E+00  9.000E+00
#rwgt            1           1   2.8340896818216346E-002           9        6001           0
</event>
<event>
      5   9999  3.19816E-02  2.04834E+02 -1.00000E+00  1.11272E-01
      21    -1     0     0   502   501  0.000000000E+00  0.000000000E+00  1.375147079E+03  1.375147079E+03  0.000000000E+00  0.00000E+00  9.000E+00
      21    -1     0     0   501   511  0.000000000E+00  0.000000000E+00 -1.709661899E+02  1.709661899E+02  0.000000000E+00  0.00000E+00  9.000E+00
      25     1     1     2     0     0  1.580350497E+02 -2.512580616E+02  2.489368815E+02  4.070629698E+02  1.250000000E+02  0.00000E+00  9.000E+00
      25     1     1     2     0     0 -2.435153943E+02  6.511236498E+01  8.748887109E+02  9.190182935E+02  1.250000000E+02  0.00000E+00  9.000E+00
      21     1     1     2   502   511  8.548034456E+01  1.861456966E+02  8.035529641E+01  2.200320052E+02  6.325959759E-06  0.00000E+00  9.000E+00
#rwgt            2          11   4.0144842254443563E-003           9        6246           0
</event>
<event>
      5   9999  3.19816E-02  8.29716E+01 -1.00000E+00  1.27587E-01
      21    -1     0     0   502   512  0.000000000E+00  0.000000000E+00  2.999543375E+02  2.999543375E+02  0.000000000E+00  0.00000E+00  9.000E+00
      21    -1     0     0   501   502  0.000000000E+00  0.000000000E+00 -1.254373810E+03  1.254373810E+03  0.000000000E+00  0.00000E+00  9.000E+00
      25     1     1     2     0     0 -2.613205138E+02 -1.259806210E+02 -2.587570821E+02  4.083377956E+02  1.250000000E+02  0.00000E+00  9.000E+00
      25     1     1     2     0     0  2.111500325E+02  1.920654629E+02 -8.855459558E+02  9.387705354E+02  1.250000000E+02  0.00000E+00  9.000E+00
      21     1     1     2   501   512  5.017048126E+01 -6.608484183E+01  1.898835659E+02  2.072198160E+02  4.672030912E-06  0.00000E+00  9.000E+00
#rwgt            1           1   2.7050029963674622E-002           9        6266           0
</event>
<event>
      5   9999  3.19816E-02  7.51015E+01 -1.00000E+00  1.29692E-01
      21    -1     0     0   502   501  0.000000000E+00  0.000000000E+00  1.537500064E+03  1.537500064E+03  0.000000000E+00  0.00000E+00  9.000E+00
       2    -1     0     0   501     0  0.000000000E+00  0.000000000E+00 -3.588737236E+02  3.588737236E+02  0.000000000E+00  0.00000E+00  9.000E+00
      25     1     1     2     0     0  9.512809962E+01 -1.615697945E+02  1.408160949E+03  1.426077281E+03  1.250000000E+02  0.00000E+00  9.000E+00
      25     1     1     2     0     0 -3.044214849E+01  1.997268414E+02 -9.464742405E+00  2.377648353E+02  1.250000000E+02  0.00000E+00  9.000E+00
       2     1     1     2   502     0 -6.468595113E+01 -3.815704684E+01 -2.200698656E+02  2.325316715E+02  7.136645101E-06  0.00000E+00  9.000E+00
#rwgt            2          13   1.0774343421644608E-003           9        6416           0
</event>
<event>
      5   9999  3.19816E-02  9.99230E+00 -1.00000E+00  1.95796E-01
      21    -1     0     0   502   511  0.000000000E+00  0.000000000E+00  1.231897078E+02  1.231897078E+02  0.000000000E+00  0.00000E+00  9.000E+00
      21    -1     0     0   501   502  0.000000000E+00  0.000000000E+00 -3.531232562E+02  3.531232562E+02  0.000000000E+00  0.00000E+00  9.000E+00
      25     1     1     2     0     0  2.918279240E+01  7.606496746E+01 -2.726548604E+02  3.108105332E+02  1.250000000E+02  0.00000E+00  9.000E+00
      25     1     1     2     0     0 -3.718555650E+01 -7.008151208E+01  4.592251938E+01  1.550098762E+02  1.250000000E+02  0.00000E+00  9.000E+00
      21     1     1     2   501   511  8.002764095E+00 -5.983455382E+00 -3.201207388E+00  1.049255451E+01  1.576990671E-07  0.00000E+00  9.000E+00
#rwgt            1           1   2.7437945440470242E-002           9        6435           0
</event>
<event>
      5   9999  3.19816E-02  2.99481E+02 -1.00000E+00  1.05616E-01
      21    -1     0     0   502   501  0.000000000E+00  0.000000000E+00  1.301359480E+03  1.301359480E+03  0.000000000E+00  0.00000E+00  9.000E+00
      21    -1     0     0   501   512  0.000000000E+00  0.000000000E+00 -1.010909841E+03  1.010909841E+03  0.000000000E+00  0.00000E+00  9.000E+00
      25     1     1     2     0     0  2.954628086E+02  6.093948538E+02 -1.944208156E+02  7.156010150E+02  1.250000000E+02  0.00000E+00  9.000E+00
      25     1     1     2     0     0 -5.202339424E+02 -8.073014101E+02  7.274436737E+02  1.211271324E+03  1.250000000E+02  0.00000E+00  9.000E+00
      21     1     1     2   502   512  2.247711339E+02  1.979065563E+02 -2.425732185E+02  3.853969824E+02  2.697398305E-06  0.00000E+00  9.000E+00
#rwgt            2          11   4.3971811503360769E-003           9        6650           0
</event>
<event>
      5   9999  3.19816E-02  5.92895E+01 -1.00000E+00  1.34980E-01
      21    -1     0     0   502   501  0.000000000E+00  0.000000000E+00  1.577181840E+03  1.577181840E+03  0.000000000E+00  0.00000E+00  9.000E+00
       1    -1     0     0   501     0  0.000000000E+00  0.000000000E+00 -1.330037337E+02  1.330037337E+02  0.000000000E+00  0.00000E+00  9.000E+00
      25     1     1     2     0     0 -2.165405084E+02  1.962169133E+02  9.181234554E+02  9.715794091E+02  1.250000000E+02  0.00000E+00  9.000E+00
      25     1     1     2     0     0  2.469386676E+02 -1.453131325E+02  5.797232349E+02  6.586339204E+02  1.250000000E+02  0.00000E+00  9.000E+00
       1     1     1     2   502     0 -3.039815923E+01 -5.090378082E+01 -5.366858384E+01  7.997224442E+01  9.536743164E-07  0.00000E+00  9.000E+00
#rwgt            1           1   3.0784304458739697E-002           9        6715           0
</event>
<event>
      5   9999  3.19816E-02  1.57697E+02 -1.00000E+00  1.15539E-01
      21    -1     0     0   502   501  0.000000000E+00  0.000000000E+00  6.006266725E+02  6.006266725E+02  0.000000000E+00  0.00000E+00  9.000E+00
      21    -1     0     0   501   511  0.000000000E+00  0.000000000E+00 -1.053398964E+03  1.053398964E+03  0.000000000E+00  0.00000E+00  9.000E+00
      25     1     1     2     0     0  2.725278041E+02 -2.201656295E+02  3.759186271E+02  5.288517019E+02  1.250000000E+02  0.00000E+00  9.000E+00
      25     1     1     2     0     0 -1.598917763E+02  1.097956940E+02  4.692334269E+01  2.354724498E+02  1.250000000E+02  0.00000E+00  9.000E+00
      21     1     1     2   502   511 -1.126360278E+02  1.103699355E+02 -8.756142613E+02  8.897014847E+02  1.078959322E-05  0.00000E+00  9.000E+00
#rwgt            2          11   5.6450213152872478E-003           9        6824           0
</event>
<event>
      5   9999  3.19816E-02  7.24956E+01 -1.00000E+00  1.30455E-01
       1    -1     0     0   502     0  0.000000000E+00  0.000000000E+00  9.284293768E+02  9.284293768E+02  0.000000000E+00  0.00000E+00  9.000E+00
      21    -1     0     0   501   502  0.000000000E+00  0.000000000E+00 -6.155950234E+02  6.155950234E+02  0.000000000E+00  0.00000E+00  9.000E+00
      25     1     1     2     0     0  4.915515166E+02 -2.086246529E+02  6.637158390E+02  8.609824935E+02  1.250000000E+02  0.00000E+00  9.000E+00
      25     1     1     2     0     0 -4.254102824E+02  1.789437807E+02 -3.739029441E+02  6.069787448E+02  1.250000000E+02  0.00000E+00  9.000E+00
       1     1     1     2   501     0 -6.614123419E+01  2.968087213E+01  2.302145856E+01  7.606316181E+01  8.920806376E-07  0.00000E+00  9.000E+00
#rwgt            1           1   3.2657588018469484E-002           9        6859           0
</event>
<event>
      5   9999  3.19816E-02  1.35910E+03 -1.00000E+00  8.79028E-02
       1    -1     0     0   502     0  0.000000000E+00  0.000000000E+00  2.370419594E+03  2.370419594E+03  0.000000000E+00  0.00000E+00  9.000E+00
      21    -1     0     0   501   502  0.000000000E+00  0.000000000E+00 -1.354177191E+03  1.354177191E+03  0.000000000E+00  0.00000E+00  9.000E+00
      25     1     1     2     0     0  5.096190367E+01  4.343745565E+02 -2.268313390E+02  5.082871505E+02  1.250000000E+02  0.00000E+00  9.000E+00
      25     1     1     2     0     0  1.305383559E+03 -5.207823481E+02  1.206893684E+03  1.856733113E+03  1.250000000E+02  0.00000E+00  9.000E+00
       1     1     1     2   501     0 -1.356345462E+03  8.640779156E+01  3.618005735E+01  1.359576521E+03  1.742903412E-05  0.00000E+00  9.000E+00
#rwgt            2          17   1.0082460404240944E-004           9        7008           0
</event>
<event>
      5   9999  3.19816E-02  1.35062E+02 -1.00000E+00  1.18228E-01
      21    -1     0     0   502   501  0.000000000E+00  0.000000000E+00  9.815522505E+01  9.815522505E+01  0.000000000E+00  0.00000E+00  9.000E+00
      21    -1     0     0   501   511  0.000000000E+00  0.000000000E+00 -1.040308038E+03  1.040308038E+03  0.000000000E+00  0.00000E+00  9.000E+00
      25     1     1     2     0     0  3.959626038E+01  6.593494543E+01 -2.549767465E+02  2.941996297E+02  1.250000000E+02  0.00000E+00  9.000E+00
      25     1     1     2     0     0  5.030156518E+01  3.486285929E+01  4.769011726E+00  1.392602236E+02  1.250000000E+02  0.00000E+00  9.000E+00
      21     1     1     2   502   511 -8.989782556E+01 -1.007978047E+02 -6.919450784E+02  7.050034099E+02  1.321449896E-05  0.00000E+00  9.000E+00
#rwgt            1           1   2.5631846848408156E-002           9        7027           0
</event>
<event>
      5   9999  3.19816E-02  5.38055E+02 -1.00000E+00  9.79553E-02
      -1    -1     0     0     0   501  0.000000000E+00  0.000000000E+00  4.053026495E+02  4.053026495E+02  0.000000000E+00  0.00000E+00  9.000E+00
      21    -1     0     0   501   502  0.000000000E+00  0.000000000E+00 -2.006887965E+03  2.006887965E+03  0.000000000E+00  0.00000E+00  9.000E+00
      25     1     1     2     0     0  5.489179095E+02  1.458210348E+02 -1.594094455E+03  1.696860860E+03  1.250000000E+02  0.00000E+00  9.000E+00
      25     1     1     2     0     0 -5.206846781E+01  6.068278282E+01 -8.610915354E+01  1.715613937E+02  1.250000000E+02  0.00000E+00  9.000E+00
      -1     1     1     2     0   502 -4.968494416E+02 -2.065038176E+02  7.861829329E+01  5.437683609E+02  6.538061715E-06  0.00000E+00  9.000E+00
#rwgt            1           1   2.9112584321261410E-002           9        7089           0
</event>
<event>
      5   9999  3.19816E-02  1.02323E+02 -1.00000E+00  1.23381E-01
      21    -1     0     0   511   501  0.000000000E+00  0.000000000E+00  2.920206293E+03  2.920206293E+03  0.000000000E+00  0.00000E+00  9.000E+00
      21    -1     0     0   501   502  0.000000000E+00  0.000000000E+00 -1.036443141E+02  1.036443141E+02  0.000000000E+00  0.00000E+00  9.000E+00
      25     1     1     2     0     0  1.702619644E+02 -3.629522779E+02  1.661069203E+03  1.713329913E+03  1.250000000E+02  0.00000E+00  9.000E+00
      25     1     1     2     0     0 -1.782084129E+02  2.609382207E+02  3.135074220E+02  4.623406722E+02  1.250000000E+02  0.00000E+00  9.000E+00
      21     1     1     2   511   502  7.946448576E+00  1.020140572E+02  8.419853537E+02  8.481800220E+02  1.525878906E-05  0.00000E+00  9.000E+00
#rwgt            1           1   3.1470725881179058E-002           9        7120           0
</event>
<event>
      5   9999  3.19816E-02  1.12648E+02 -1.00000E+00  1.21545E-01
      21    -1     0     0   502   512  0.000000000E+00  0.000000000E+00  4.958679454E+02  4.958679454E+02  0.000000000E+00  0.00000E+00  9.000E+00
      21    -1     0     0   501   502  0.000000000E+00  0.000000000E+00 -3.983748596E+02  3.983748596E+02  0.000000000E+00  0.00000E+00  9.000E+00
      25     1     1     2     0     0  9.595180541E+01  2.518508054E+02 -2.372523639E+02  3.801963457E+02  1.250000000E+02  0.00000E+00  9.000E+00
      25     1     1     2     0     0 -1.581551604E+02 -1.579346438E+02  1.475043385E+02  2.955316165E+02  1.250000000E+02  0.00000E+00  9.000E+00
      21     1     1     2   501   512  6.220335498E+01 -9.391616160E+01  1.872411112E+02  2.185148428E+02  2.697398305E-06  0.00000E+00  9.000E+00
#rwgt            1           1   3.1773171928337077E-002           9        7212           0
</event>
<event>
      5   9999  3.19816E-02  3.79501E+01 -1.00000E+00  1.46271E-01
      21    -1     0     0   502   511  0.000000000E+00  0.000000000E+00  2.442018723E+01  2.442018723E+01  0.000000000E+00  0.00000E+00  9.000E+00
      21    -1     0     0   501   502  0.000000000E+00  0.000000000E+00 -2.118994063E+03  2.118994063E+03  0.000000000E+00  0.00000E+00  9.000E+00
      25     1     1     2     0     0  9.426688120E+01 -3.857912482E+01 -9.263110039E+02  9.402402192E+02  1.250000000E+02  0.00000E+00  9.000E+00
      25     1     1     2     0     0 -7.167856516E+01  6.907468337E+01 -1.150017012E+03  1.161065570E+03  1.250000000E+02  0.00000E+00  9.000E+00
      21     1     1     2   501   511 -2.258831604E+01 -3.049555855E+01 -1.824585928E+01  4.210846107E+01  1.922192037E-06  0.00000E+00  9.000E+00
#rwgt            2          11   7.8707394914102474E-003           9        7704           0
</event>
<event>
      5   9999  3.19816E-02  6.44217E+00 -1.00000E+00  2.20780E-01
      21    -1     0     0   502   512  0.000000000E+00  0.000000000E+00  3.260787656E+02  3.260787656E+02  0.000000000E+00  0.00000E+00  9.000E+00
      21    -1     0     0   501   502  0.000000000E+00  0.000000000E+00 -4.993703667E+02  4.993703667E+02  0.000000000E+00  0.00000E+00  9.000E+00
      25     1     1     2     0     0 -1.341365342E+02 -3.098348469E+02  6.495777160E+01  3.658343263E+02  1.250000000E+02  0.00000E+00  9.000E+00
      25     1     1     2     0     0  1.295059967E+02  3.143136463E+02 -2.541406809E+02  4.424673515E+02  1.250000000E+02  0.00000E+00  9.000E+00
      21     1     1     2   501   512  4.630537578E+00 -4.478799409E+00  1.589130816E+01  1.714745454E+01  2.920019320E-07  0.00000E+00  9.000E+00
#rwgt            1           1   2.8305845777413987E-002           9        7724           0
</event>
<event>
      5   9999  3.19816E-02  1.61051E+01 -1.00000E+00  1.74524E-01
      21    -1     0     0   502   501  0.000000000E+00  0.000000000E+00  4.672770256E+02  4.672770256E+02  0.000000000E+00  0.00000E+00  9.000E+00
      21    -1     0     0   511   502  0.000000000E+00  0.000000000E+00 -2.170237925E+02  2.170237925E+02  0.000000000E+00  0.00000E+00  9.000E+00
      25     1     1     2     0     0  1.128426170E+02  1.925431908E+02 -5.172233602E+01  2.609722909E+02  1.250000000E+02  0.00000E+00  9.000E+00
      25     1     1     2     0     0 -1.129544588E+02 -1.764384501E+02  3.178747239E+02  4.006976123E+02  1.250000000E+02  0.00000E+00  9.000E+00
      21     1     1     2   511   501  1.118418000E-01 -1.610474076E+01 -1.589915482E+01  2.263091486E+01  2.384185791E-07  0.00000E+00  9.000E+00
#rwgt            1           1   3.0683082252321605E-002           9        8034           0
</event>
<event>
      5   9999  3.19816E-02  1.94528E+02 -1.00000E+00  1.12088E-01
      21    -1     0     0   502   501  0.000000000E+00  0.000000000E+00  4.150218880E+02  4.150218880E+02  0.000000000E+00  0.00000E+00  9.000E+00
      21    -1     0     0   512   502  0.000000000E+00  0.000000000E+00 -2.958791744E+02  2.958791744E+02  0.000000000E+00  0.00000E+00  9.000E+00
      25     1     1     2     0     0  2.383599871E+01  2.556107857E+00 -7.520897792E+01  1.478380157E+02  1.250000000E+02  0.00000E+00  9.000E+00
      25     1     1     2     0     0  4.180748453E+01  1.805619938E+02  2.733352230E+02  3.531113755E+02  1.250000000E+02  0.00000E+00  9.000E+00
      21     1     1     2   512   501 -6.564348324E+01 -1.831181016E+02 -7.898353140E+01  2.099516713E+02  2.523185073E-06  0.00000E+00  9.000E+00
#rwgt            1           1   2.9118708869063443E-002           9        8188           0
</event>
<event>
      5   9999  3.19816E-02  3.83841E+01 -1.00000E+00  1.45960E-01
      21    -1     0     0   502   501  0.000000000E+00  0.000000000E+00  4.280271745E+02  4.280271745E+02  0.000000000E+00  0.00000E+00  9.000E+00
      21    -1     0     0   511   502  0.000000000E+00  0.000000000E+00 -6.736935323E+02  6.736935323E+02  0.000000000E+00  0.00000E+00  9.000E+00
      25     1     1     2     0     0 -2.200720667E+02 -4.028975587E+02  1.178934785E+02  4.901857093E+02  1.250000000E+02  0.00000E+00  9.000E+00
      25     1     1     2     0     0  1.828640362E+02  3.934686161E+02 -3.481762998E+02  5.701829034E+02  1.250000000E+02  0.00000E+00  9.000E+00
      21     1     1     2   511   501  3.720803052E+01  9.428942601E+00 -1.538353646E+01  4.135209412E+01  1.685873940E-07  0.00000E+00  9.000E+00
#rwgt            1           1   2.5721049681683410E-002           9        8234           0
</event>
<event>
      5   9999  3.19816E-02  9.75190E+01 -1.00000E+00  1.24321E-01
      21    -1     0     0   502   501  0.000000000E+00  0.000000000E+00  5.710747439E+02  5.710747439E+02  0.000000000E+00  0.00000E+00  9.000E+00
      21    -1     0     0   512   502  0.000000000E+00  0.000000000E+00 -4.032907484E+02  4.032907484E+02  0.000000000E+00  0.00000E+00  9.000E+00
      25     1     1     2     0     0 -2.834309853E+01  1.437671971E+02 -2.535355471E+02  3.183985111E+02  1.250000000E+02  0.00000E+00  9.000E+00
      25     1     1     2     0     0 -6.796673025E+01 -1.590766562E+02  4.914882731E+02  5.358270071E+02  1.250000000E+02  0.00000E+00  9.000E+00
      21     1     1     2   512   501  9.630982879E+01  1.530945908E+01 -7.016873044E+01  1.201399742E+02  2.336015456E-06  0.00000E+00  9.000E+00
#rwgt            1           1   3.1331102188789879E-002           9        8372           0
</event>
<event>
      5   9999  3.19816E-02  8.44399E+01 -1.00000E+00  1.27224E-01
      21    -1     0     0   502   511  0.000000000E+00  0.000000000E+00  2.151396850E+03  2.151396850E+03  0.000000000E+00  0.00000E+00  9.000E+00
      21    -1     0     0   501   502  0.000000000E+00  0.000000000E+00 -3.346006227E+02  3.346006227E+02  0.000000000E+00  0.00000E+00  9.000E+00
      25     1     1     2     0     0  3.481531909E+02 -6.022048640E+02  2.423937277E+02  7.471553130E+02  1.250000000E+02  0.00000E+00  9.000E+00
      25     1     1     2     0     0 -2.684590743E+02  5.742953680E+02  1.460530698E+03  1.597078697E+03  1.250000000E+02  0.00000E+00  9.000E+00
      21     1     1     2   501   511 -7.969411656E+01  2.790949598E+01  1.138718016E+02  1.417634628E+02  2.336015456E-06  0.00000E+00  9.000E+00
#rwgt            1           1   2.7233827862587091E-002           9        8454           0
</event>
<event>
      5   9999  3.19816E-02  1.35360E+02 -1.00000E+00  1.18189E-01
      21    -1     0     0   502   501  0.000000000E+00  0.000000000E+00  4.434791636E+02  4.434791636E+02  0.000000000E+00  0.00000E+00  9.000E+00
       2    -1     0     0   501     0  0.000000000E+00  0.000000000E+00 -1.058283677E+03  1.058283677E+03  0.000000000E+00  0.00000E+00  9.000E+00
      25     1     1     2     0     0 -4.406597496E+02  3.995152868E+01  2.069922186E+02  5.042300249E+02  1.250000000E+02  0.00000E+00  9.000E+00
      25     1     1     2     0     0  3.100197241E+02 -4.519934250E+00 -2.709991249E+02  4.303465869E+02  1.250000000E+02  0.00000E+00  9.000E+00
       2     1     1     2   502     0  1.306400255E+02 -3.543159443E+01 -5.507976066E+02  5.671862283E+02  7.629394531E-06  0.00000E+00  9.000E+00
#rwgt            1           1   2.9404694890442031E-002           9        8570           0
</event>
<event>
      5   9999  3.19816E-02  3.93674E+01 -1.00000E+00  1.45271E-01
      21    -1     0     0   502   501  0.000000000E+00  0.000000000E+00  6.084567026E+02  6.084567026E+02  0.000000000E+00  0.00000E+00  9.000E+00
      21    -1     0     0   511   502  0.000000000E+00  0.000000000E+00 -1.107232441E+03  1.107232441E+03  0.000000000E+00  0.00000E+00  9.000E+00
      25     1     1     2     0     0 -3.620200217E+02 -1.671212408E+02  3.182954884E+02  5.252856587E+02  1.250000000E+02  0.00000E+00  9.000E+00
      25     1     1     2     0     0  3.475546732E+02  1.305077730E+02 -1.987177903E+01  3.922326061E+02  1.250000000E+02  0.00000E+00  9.000E+00
      21     1     1     2   511   501  1.446534851E+01  3.661346781E+01 -7.971994481E+02  7.981708792E+02  1.078959322E-05  0.00000E+00  9.000E+00
#rwgt            1           1   2.8799913248550982E-002           9        8634           0
</event>
<event>
      5   9999  3.19816E-02  1.67909E+02 -1.00000E+00  1.14485E-01
      21    -1     0     0   502   501  0.000000000E+00  0.000000000E+00  1.753532780E+02  1.753532780E+02  0.000000000E+00  0.00000E+00  9.000E+00
      21    -1     0     0   512   502  0.000000000E+00  0.000000000E+00 -2.130059409E+03  2.130059409E+03  0.000000000E+00  0.00000E+00  9.000E+00
      25     1     1     2     0     0 -1.467669348E+01 -2.520148479E+02  2.361356602E+01  2.826826655E+02  1.250000000E+02  0.00000E+00  9.000E+00
      25     1     1     2     0     0 -9.119481060E+01  1.216898609E+02 -5.422067722E+02  5.768345512E+02  1.250000000E+02  0.00000E+00  9.000E+00
      21     1     1     2   512   501  1.058715041E+02  1.303249870E+02 -1.436112925E+03  1.445895470E+03  2.642899792E-05  0.00000E+00  9.000E+00
#rwgt            1           1   3.1594315678255144E-002           9        8741           0
</event>
<event>
      5   9999  3.19816E-02  1.50015E+01 -1.00000E+00  1.77379E-01
      21    -1     0     0   502   501  0.000000000E+00  0.000000000E+00  4.795198276E+02  4.795198276E+02  0.000000000E+00  0.00000E+00  9.000E+00
       1    -1     0     0   501     0  0.000000000E+00  0.000000000E+00 -1.103187516E+03  1.103187516E+03  0.000000000E+00  0.00000E+00  9.000E+00
      25     1     1     2     0     0  2.107906895E+02 -1.339656135E+02 -8.579863292E+01  2.921744441E+02  1.250000000E+02  0.00000E+00  9.000E+00
      25     1     1     2     0     0 -2.245362844E+02  1.279568791E+02  3.215083855E+02  4.310245328E+02  1.250000000E+02  0.00000E+00  9.000E+00
       1     1     1     2   502     0  1.374559491E+01  6.008734351E+00 -8.593774406E+02  8.595083663E+02  0.000000000E+00  0.00000E+00  9.000E+00
#rwgt            1           1   2.6581356435048217E-002           9        8771           0
</event>
<event>
      5   9999  3.19816E-02  5.74794E+02 -1.00000E+00  9.71620E-02
      21    -1     0     0   502   511  0.000000000E+00  0.000000000E+00  2.494368724E+02  2.494368724E+02  0.000000000E+00  0.00000E+00  9.000E+00
      21    -1     0     0   501   502  0.000000000E+00  0.000000000E+00 -2.289742379E+03  2.289742379E+03  0.000000000E+00  0.00000E+00  9.000E+00
      25     1     1     2     0     0  4.790290307E+02  1.488095822E+02 -1.127945380E+03  1.240765443E+03  1.250000000E+02  0.00000E+00  9.000E+00
      25     1     1     2     0     0 -8.699569586E+01  2.715446457E+02 -5.073630966E+02  5.952705750E+02  1.250000000E+02  0.00000E+00  9.000E+00
      21     1     1     2   501   511 -3.920333348E+02 -4.203542279E+02 -4.049970300E+02  7.031432335E+02  1.078959322E-05  0.00000E+00  9.000E+00
#rwgt            2          11   2.1933638078708395E-003           9        9124           0
</event>
<event>
      5   9999  3.19816E-02  1.02194E+01 -1.00000E+00  1.94674E-01
      21    -1     0     0   512   501  0.000000000E+00  0.000000000E+00  3.219036760E+02  3.219036760E+02  0.000000000E+00  0.00000E+00  9.000E+00
      21    -1     0     0   501   502  0.000000000E+00  0.000000000E+00 -2.227026969E+02  2.227026969E+02  0.000000000E+00  0.00000E+00  9.000E+00
      25     1     1     2     0     0  7.723845768E+01 -1.226443376E+02  4.428381902E+01  1.964522067E+02  1.250000000E+02  0.00000E+00  9.000E+00
      25     1     1     2     0     0 -7.349213506E+01  1.321522434E+02 -8.071007685E+01  2.121424660E+02  1.250000000E+02  0.00000E+00  9.000E+00
      21     1     1     2   512   502 -3.746322623E+00 -9.507905872E+00  1.356272370E+02  1.360117003E+02  0.000000000E+00  0.00000E+00  9.000E+00
#rwgt            1           1   2.6413841973475263E-002           9        9144           0
</event>
<event>
      5   9999  3.19816E-02  2.46608E+01 -1.00000E+00  1.59197E-01
      21    -1     0     0   502   501  0.000000000E+00  0.000000000E+00  6.118998530E+02  6.118998530E+02  0.000000000E+00  0.00000E+00  9.000E+00
      21    -1     0     0   511   502  0.000000000E+00  0.000000000E+00 -7.844086944E+01  7.844086944E+01  0.000000000E+00  0.00000E+00  9.000E+00
      25     1     1     2     0     0  4.999994092E+01 -5.401115993E+01  6.616458931E+01  1.594363584E+02  1.250000000E+02  0.00000E+00  9.000E+00
      25     1     1     2     0     0 -3.820955047E+01  7.567079065E+01  4.799731988E+02  5.031752278E+02  1.250000000E+02  0.00000E+00  9.000E+00
      21     1     1     2   511   501 -1.179039045E+01 -2.165963072E+01 -1.267880460E+01  2.772913622E+01  5.331201500E-07  0.00000E+00  9.000E+00
#rwgt            1           1   3.2712551189831907E-002           9        9348           0
</event>
<event>
      5   9999  3.19816E-02  2.76004E+02 -1.00000E+00  1.06782E-01
      21    -1     0     0   502   501  0.000000000E+00  0.000000000E+00  1.769560849E+02  1.769560849E+02  0.000000000E+00  0.00000E+00  9.000E+00
       1    -1     0     0   501     0  0.000000000E+00  0.000000000E+00 -2.171723748E+03  2.171723748E+03  0.000000000E+00  0.00000E+00  9.000E+00
      25     1     1     2     0     0  4.852031625E+02 -3.351703977E+01 -6.055131177E+02  7.866489920E+02  1.250000000E+02  0.00000E+00  9.000E+00
      25     1     1     2     0     0 -2.528171722E+02 -1.153957765E+02 -2.632371585E+02  4.026804060E+02  1.250000000E+02  0.00000E+00  9.000E+00
       1     1     1     2   502     0 -2.323859903E+02  1.489128163E+02 -1.126017387E+03  1.159350435E+03  2.157918644E-05  0.00000E+00  9.000E+00
#rwgt            1           1   2.9356593844741964E-002           9        9430           0
</event>
<event>
      5   9999  3.19816E-02  6.07528E+01 -1.00000E+00  1.34415E-01
      21    -1     0     0   511   501  0.000000000E+00  0.000000000E+00  4.349072526E+02  4.349072526E+02  0.000000000E+00  0.00000E+00  9.000E+00
      21    -1     0     0   501   502  0.000000000E+00  0.000000000E+00 -4.683253981E+02  4.683253981E+02  0.000000000E+00  0.00000E+00  9.000E+00
      25     1     1     2     0     0  2.601289568E+02  3.401509552E+02  2.010207994E+01  4.465409725E+02  1.250000000E+02  0.00000E+00  9.000E+00
      25     1     1     2     0     0 -2.361644802E+02 -2.843243674E+02 -6.291086693E+01  3.952173893E+02  1.250000000E+02  0.00000E+00  9.000E+00
      21     1     1     2   511   502 -2.396447663E+01 -5.582658781E+01  9.390641505E+00  6.147428889E+01  1.576990671E-06  0.00000E+00  9.000E+00
#rwgt            1           1   2.9764297795722924E-002           9        9477           0
</event>
<event>
      5   9999  3.19816E-02  6.35393E+02 -1.00000E+00  9.59827E-02
       2    -1     0     0   502     0  0.000000000E+00  0.000000000E+00  2.394152398E+03  2.394152398E+03  0.000000000E+00  0.00000E+00  9.000E+00
      21    -1     0     0   501   502  0.000000000E+00  0.000000000E+00 -2.889199605E+02  2.889199605E+02  0.000000000E+00  0.00000E+00  9.000E+00
      25     1     1     2     0     0 -1.074911579E+02  5.958051925E+02  2.849279491E+02  6.806960501E+02  1.250000000E+02  0.00000E+00  9.000E+00
      25     1     1     2     0     0 -1.530938237E+02 -1.630560585E+01  4.648839952E+02  5.054163834E+02  1.250000000E+02  0.00000E+00  9.000E+00
       2     1     1     2   501     0  2.605849815E+02 -5.794995866E+02  1.355420494E+03  1.496959925E+03  1.525878906E-05  0.00000E+00  9.000E+00
#rwgt            2          18   1.5666529779009115E-003           9        9632           0
</event>
<event>
      5   9999  3.19816E-02  5.91308E+01 -1.00000E+00  1.35043E-01
      21    -1     0     0   502   501  0.000000000E+00  0.000000000E+00  8.533051145E+01  8.533051145E+01  0.000000000E+00  0.00000E+00  9.000E+00
       2    -1     0     0   501     0  0.000000000E+00  0.000000000E+00 -3.098292333E+03  3.098292333E+03  0.000000000E+00  0.00000E+00  9.000E+00
      25     1     1     2     0     0  1.035993007E+02 -1.432016400E+02 -1.776369806E+02  2.800346794E+02  1.250000000E+02  0.00000E+00  9.000E+00
      25     1     1     2     0     0 -1.439460844E+02  9.997443675E+01 -3.091136298E+02  3.766850134E+02  1.250000000E+02  0.00000E+00  9.000E+00
       2     1     1     2   502     0  4.034678374E+01  4.322720327E+01 -2.526211211E+03  2.526903152E+03  4.315837288E-05  0.00000E+00  9.000E+00
#rwgt            1           1   2.7306046426020969E-002           9        9651           0
</event>
<event>
      5   9999  3.19816E-02  1.75493E+01 -1.00000E+00  1.71194E-01
       2    -1     0     0   502     0  0.000000000E+00  0.000000000E+00  4.482797856E+02  4.482797856E+02  0.000000000E+00  0.00000E+00  9.000E+00
      21    -1     0     0   501   502  0.000000000E+00  0.000000000E+00 -4.008026910E+02  4.008026910E+02  0.000000000E+00  0.00000E+00  9.000E+00
      25     1     1     2     0     0  7.332573718E+01  7.049948727E+01 -3.102050898E+02  3.495697915E+02  1.250000000E+02  0.00000E+00  9.000E+00
      25     1     1     2     0     0 -8.809467355E+01 -7.997868240E+01  3.466921014E+01  1.760233373E+02  1.250000000E+02  0.00000E+00  9.000E+00
       2     1     1     2   501     0  1.476893637E+01  9.479195133E+00  3.230129742E+02  3.234893478E+02  6.607249480E-06  0.00000E+00  9.000E+00
#rwgt            1           1   2.6246970329026911E-002           9        9710           0
</event>
<event>
      5   9999  3.19816E-02  3.74196E+01 -1.00000E+00  1.46659E-01
      21    -1     0     0   502   501  0.000000000E+00  0.000000000E+00  7.797646800E+02  7.797646800E+02  0.000000000E+00  0.00000E+00  9.000E+00
      21    -1     0     0   501   511  0.000000000E+00  0.000000000E+00 -2.042384318E+02  2.042384318E+02  0.000000000E+00  0.00000E+00  9.000E+00
      25     1     1     2     0     0 -9.215819072E+01  2.113269906E+02  5.999886779E+02  6.548004602E+02  1.250000000E+02  0.00000E+00  9.000E+00
      25     1     1     2     0     0  8.015140255E+01 -2.467679729E+02 -7.446069522E+00  2.880956850E+02  1.250000000E+02  0.00000E+00  9.000E+00
      21     1     1     2   502   511  1.200678817E+01  3.544098225E+01 -1.701636024E+01  4.110696657E+01  5.840038640E-07  0.00000E+00  9.000E+00
#rwgt            1           1   2.8817600104259510E-002           9        9863           0
</event>
<event>
      5   9999  3.19816E-02  1.34839E+01 -1.00000E+00  1.81857E-01
      21    -1     0     0   502   501  0.000000000E+00  0.000000000E+00  1.564060291E+03  1.564060291E+03  0.000000000E+00  0.00000E+00  9.000E+00
      21    -1     0     0   512   502  0.000000000E+00  0.000000000E+00 -2.874353730E+02  2.874353730E+02  0.000000000E+00  0.00000E+00  9.000E+00
      25     1     1     2     0     0 -4.638449917E+02 -3.469134239E+02  2.669465540E+02  6.499127347E+02  1.250000000E+02  0.00000E+00  9.000E+00
      25     1     1     2     0     0  4.772103080E+02  3.451290267E+02  1.020118547E+03  1.184529684E+03  1.250000000E+02  0.00000E+00  9.000E+00
      21     1     1     2   512   501 -1.336531630E+01  1.784397202E+00 -1.044018288E+01  1.705324520E+01  2.064765462E-07  0.00000E+00  9.000E+00
#rwgt            1           1   2.9637001478948256E-002           9        9987           0
</event>
<event>
      5   9999  3.19816E-02  1.46102E+02 -1.00000E+00  1.16849E-01
      21    -1     0     0   502   501  0.000000000E+00  0.000000000E+00  8.240606557E+02  8.240606557E+02  0.000000000E+00  0.00000E+00  9.000E+00
      21    -1     0     0   501   511  0.000000000E+00  0.000000000E+00 -4.143972763E+02  4.143972763E+02  0.000000000E+00  0.00000E+00  9.000E+00
      25     1     1     2     0     0 -2.148270730E+02 -1.612301391E+01  6.228295608E+01  2.567387573E+02  1.250000000E+02  0.00000E+00  9.000E+00
      25     1     1     2     0     0  7.747801955E+01 -3.368741628E+01  6.384526770E+02  6.560369702E+02  1.250000000E+02  0.00000E+00  9.000E+00
      21     1     1     2   502   511  1.373490535E+02  4.981043018E+01 -2.910722537E+02  3.256822045E+02  6.607249480E-06  0.00000E+00  9.000E+00
#rwgt            1           1   3.0123455262410306E-002           9       10169           0
</event>
<event>
      5   9999  3.19816E-02  9.99904E+02 -1.00000E+00  9.09922E-02
      21    -1     0     0   502   501  0.000000000E+00  0.000000000E+00  1.280314920E+03  1.280314920E+03  0.000000000E+00  0.00000E+00  9.000E+00
       2    -1     0     0   501     0  0.000000000E+00  0.000000000E+00 -3.712238561E+03  3.712238561E+03  0.000000000E+00  0.00000E+00  9.000E+00
      25     1     1     2     0     0 -7.481295635E+02  3.911758913E+02  8.169208397E+02  1.181397935E+03  1.250000000E+02  0.00000E+00  9.000E+00
      25     1     1     2     0     0 -2.514779772E+02 -4.155287362E+02 -1.053624846E+02  5.124759085E+02  1.250000000E+02  0.00000E+00  9.000E+00
       2     1     1     2   502     0  9.996075407E+02  2.435284497E+01 -3.143481996E+03  3.298679638E+03  4.315837288E-05  0.00000E+00  9.000E+00
#rwgt            2          13   4.8116822679455471E-003           9       10345           0
</event>
<event>
      5   9999  3.19816E-02  2.66405E+01 -1.00000E+00  1.56711E-01
      21    -1     0     0   511   501  0.000000000E+00  0.000000000E+00  2.665775572E+02  2.665775572E+02  0.000000000E+00  0.00000E+00  9.000E+00
      21    -1     0     0   501   502  0.000000000E+00  0.000000000E+00 -1.911696529E+02  1.911696529E+02  0.000000000E+00  0.00000E+00  9.000E+00
      25     1     1     2     0     0 -1.252518265E+02  1.100856512E+02  6.487718309E+01  2.182679994E+02  1.250000000E+02  0.00000E+00  9.000E+00
      25     1     1     2     0     0  1.037656748E+02 -1.258356106E+02 -1.016708017E+01  2.057432519E+02  1.250000000E+02  0.00000E+00  9.000E+00
      21     1     1     2   511   502  2.148615172E+01  1.574995937E+01  2.069780140E+01  3.373595884E+01  4.768371582E-07  0.00000E+00  9.000E+00
#rwgt            1           1   2.7185526590695664E-002           9       10364           0
</event>
<event>
      5   9999  3.19816E-02  2.00703E+02 -1.00000E+00  1.11593E-01
      21    -1     0     0   502   501  0.000000000E+00  0.000000000E+00  1.581062160E+03  1.581062160E+03  0.000000000E+00  0.00000E+00  9.000E+00
      21    -1     0     0   501   512  0.000000000E+00  0.000000000E+00 -4.126548656E+02  4.126548656E+02  0.000000000E+00  0.00000E+00  9.000E+00
      25     1     1     2     0     0 -6.433270647E+00 -1.211909357E+01  1.087955383E+02  1.662820753E+02  1.250000000E+02  0.00000E+00  9.000E+00
      25     1     1     2     0     0 -1.940806915E+02  3.402395993E+00  1.407226500E+03  1.426040082E+03  1.250000000E+02  0.00000E+00  9.000E+00
      21     1     1     2   502   512  2.005139621E+02  8.716697580E+00 -3.476147445E+02  4.013948685E+02  0.000000000E+00  0.00000E+00  9.000E+00
#rwgt            1           1   3.4574149406118394E-002           9       10467           0
</event>
<event>
      5   9999  3.19816E-02  8.83303E+01 -1.00000E+00  1.26301E-01
      21    -1     0     0   502   501  0.000000000E+00  0.000000000E+00  1.429204741E+03  1.429204741E+03  0.000000000E+00  0.00000E+00  9.000E+00
      21    -1     0     0   511   502  0.000000000E+00  0.000000000E+00 -2.241390919E+02  2.241390919E+02  0.000000000E+00  0.00000E+00  9.000E+00
      25     1     1     2     0     0  5.111839570E+01  4.681697522E+02  8.476758439E+02  9.777399161E+02  1.250000000E+02  0.00000E+00  9.000E+00
      25     1     1     2     0     0 -1.202030383E+02 -4.131284106E+02  3.764931049E+02  5.852315029E+02  1.250000000E+02  0.00000E+00  9.000E+00
      21     1     1     2   511   501  6.908464260E+01 -5.504134159E+01 -1.910329964E+01  9.037241385E+01  9.536743164E-07  0.00000E+00  9.000E+00
#rwgt            1           1   3.3540227186924232E-002           9       10518           0
</event>
<event>
      5   9999  3.19816E-02  2.47316E+02  7.55638E-03  1.08391E-01
       2    -1     0     0   501     0  0.000000000E+00  0.000000000E+00  2.878703403E+03  2.878703403E+03  0.000000000E+00  0.00000E+00  9.000E+00
      -2    -1     0     0     0   502  0.000000000E+00  0.000000000E+00 -2.098198038E+02  2.098198038E+02  0.000000000E+00  0.00000E+00  9.000E+00
      25     1     1     2     0     0  3.568837979E+02 -3.117998549E+02  1.066854826E+03  1.174048302E+03  1.250000000E+02  0.00000E+00  9.000E+00
      25     1     1     2     0     0 -3.440608456E+02  6.481642868E+01  1.624166966E+03  1.666169970E+03  1.250000000E+02  0.00000E+00  9.000E+00
      21     1     1     2   501   502 -1.282295225E+01  2.469834262E+02 -2.213819359E+01  2.483049346E+02  5.493983565E-06  0.00000E+00  9.000E+00
#rwgt            3           7   1.8016221919177748E-004           9       10674           0
</event>
<event>
      5   9999  3.19816E-02  7.81232E+01 -1.00000E+00  1.28850E-01
      21    -1     0     0   502   511  0.000000000E+00  0.000000000E+00  4.862655102E+02  4.862655102E+02  0.000000000E+00  0.00000E+00  9.000E+00
      21    -1     0     0   501   502  0.000000000E+00  0.000000000E+00 -4.769948638E+02  4.769948638E+02  0.000000000E+00  0.00000E+00  9.000E+00
      25     1     1     2     0     0  8.243584951E+01  1.229774293E+02 -3.955580858E+02  4.404660221E+02  1.250000000E+02  0.00000E+00  9.000E+00
      25     1     1     2     0     0 -8.819452221E+01 -2.008881393E+02  3.019612922E+02  3.936241104E+02  1.250000000E+02  0.00000E+00  9.000E+00
      21     1     1     2   501   511  5.758672699E+00  7.791071005E+01  1.028674400E+02  1.291702414E+02  1.348699152E-06  0.00000E+00  9.000E+00
#rwgt            1           1   2.5456333264639450E-002           9       10723           0
</event>
<event>
      5   9999  3.19816E-02  4.53021E+01 -1.00000E+00  1.41565E-01
      21    -1     0     0   502   501  0.000000000E+00  0.000000000E+00  7.142364808E+02  7.142364808E+02  0.000000000E+00  0.00000E+00  9.000E+00
      21    -1     0     0   512   502  0.000000000E+00  0.000000000E+00 -3.612714051E+02  3.612714051E+02  0.000000000E+00  0.00000E+00  9.000E+00
      25     1     1     2     0     0 -7.627844946E+01  6.312842744E+01  5.003013207E+02  5.251000016E+02  1.250000000E+02  0.00000E+00  9.000E+00
      25     1     1     2     0     0  9.857772230E+01 -1.025621556E+02  1.549871398E+02  2.447091673E+02  1.250000000E+02  0.00000E+00  9.000E+00
      21     1     1     2   512   501 -2.229927283E+01  3.943372817E+01 -3.023233848E+02  3.056987169E+02  0.000000000E+00  0.00000E+00  9.000E+00
#rwgt            1           1   2.7571906513896779E-002           9       10791           0
</event>
<event>
      5   9999  3.19816E-02  2.32783E+01 -1.00000E+00  1.61108E-01
      21    -1     0     0   502   501  0.000000000E+00  0.000000000E+00  6.391008172E+02  6.391008172E+02  0.000000000E+00  0.00000E+00  9.000E+00
      21    -1     0     0   511   502  0.000000000E+00  0.000000000E+00 -6.932405704E+02  6.932405704E+02  0.000000000E+00  0.00000E+00  9.000E+00
      25     1     1     2     0     0 -2.854408046E+02 -1.368358910E+01 -5.156329198E+02  6.026325593E+02  1.250000000E+02  0.00000E+00  9.000E+00
      25     1     1     2     0     0  2.632085184E+02  2.058309964E+01  5.583227903E+02  6.301204062E+02  1.250000000E+02  0.00000E+00  9.000E+00
      21     1     1     2   511   501  2.223228624E+01 -6.899510534E+00 -9.682962375E+01  9.958842218E+01  0.000000000E+00  0.00000E+00  9.000E+00
#rwgt            1           1   3.5373429465656719E-002           9       10879           0
</event>
<event>
      5   9999  3.19816E-02  8.04375E+01 -1.00000E+00  1.28235E-01
      21    -1     0     0   512   501  0.000000000E+00  0.000000000E+00  5.858439843E+02  5.858439843E+02  0.000000000E+00  0.00000E+00  9.000E+00
      21    -1     0     0   501   502  0.000000000E+00  0.000000000E+00 -4.347355500E+02  4.347355500E+02  0.000000000E+00  0.00000E+00  9.000E+00
      25     1     1     2     0     0 -2.808614019E+02  3.386492786E+02  6.808683640E+01  4.624146173E+02  1.250000000E+02  0.00000E+00  9.000E+00
      25     1     1     2     0     0  3.335404829E+02 -2.778618632E+02  1.367356639E+01  4.519606567E+02  1.250000000E+02  0.00000E+00  9.000E+00
      21     1     1     2   512   502 -5.267908099E+01 -6.078741541E+01  6.934803148E+01  1.062042603E+02  1.907348633E-06  0.00000E+00  9.000E+00
#rwgt            1           1   2.7282156480080831E-002           9       11043           0
</event>
<event>
      5   9999  3.19816E-02  2.58620E+02 -1.00000E+00  1.07730E-01
      21    -1     0     0   511   501  0.000000000E+00  0.000000000E+00  4.099426483E+02  4.099426483E+02  0.000000000E+00  0.00000E+00  9.000E+00
      21    -1     0     0   501   502  0.000000000E+00  0.000000000E+00 -5.028438597E+02  5.028438597E+02  0.000000000E+00  0.00000E+00  9.000E+00
      25     1     1     2     0     0 -1.124104859E+02  2.249277023E+02 -2.912054013E+02  4.045419315E+02  1.250000000E+02  0.00000E+00  9.000E+00
      25     1     1     2     0     0 -1.156890690E+02 -1.030478124E+02  1.393392255E+02  2.429881316E+02  1.250000000E+02  0.00000E+00  9.000E+00
      21     1     1     2   511   502  2.280995550E+02 -1.218798899E+02  5.896496441E+01  2.652564449E+02  1.651812370E-06  0.00000E+00  9.000E+00
#rwgt            2          11   3.1809280847514931E-003           9       11146           0
</event>
<event>
      5   9999  3.19816E-02  8.21380E+01 -1.00000E+00  1.27798E-01
      21    -1     0     0   502   501  0.000000000E+00  0.000000000E+00  2.179559040E+02  2.179559040E+02  0.000000000E+00  0.00000E+00  9.000E+00
       2    -1     0     0   501     0  0.000000000E+00  0.000000000E+00 -2.063309293E+03  2.063309293E+03  0.000000000E+00  0.00000E+00  9.000E+00
      25     1     1     2     0     0 -7.242726116E+01 -2.301136455E+02  7.339404884E+01  2.814421511E+02  1.250000000E+02  0.00000E+00  9.000E+00
      25     1     1     2     0     0  7.110097132E+01  1.479864008E+02 -2.296845218E+02  3.087641535E+02  1.250000000E+02  0.00000E+00  9.000E+00
       2     1     1     2   502     0  1.326289843E+00  8.212724461E+01 -1.689062916E+03  1.691058892E+03  2.157918644E-05  0.00000E+00  9.000E+00
#rwgt            1           1   2.5751351198858765E-002           9       11211           0
</event>
<event>
      5   9999  4.12955E-02  4.55500E+01 -1.00000E+00  1.41425E-01
       3    -1     0     0   502     0  0.000000000E+00  0.000000000E+00  2.786122163E+03  2.786122163E+03  0.000000000E+00  0.00000E+00  9.000E+00
      21    -1     0     0   501   502  0.000000000E+00  0.000000000E+00 -2.141805858E+01  2.141805858E+01  0.000000000E+00  0.00000E+00  9.000E+00
      25     1     1     2     0     0 -3.740643290E+01 -1.196796435E+02  4.708045813E+02  5.029954394E+02  1.250000000E+02  0.00000E+00  9.000E+00
      25     1     1     2     0     0 -4.887509414E+00  1.027673704E+02  1.371661343E+03  1.381182414E+03  1.250000000E+02  0.00000E+00  9.000E+00
       3     1     1     2   501     0  4.229394231E+01  1.691227315E+01  9.222381804E+02  9.233623687E+02  1.078959322E-05  0.00000E+00  9.000E+00
#rwgt            1           1  0.11801579985105645                9       11302           0
</event>
<event>
      5   9999  3.19816E-02  3.30949E+01 -1.00000E+00  1.50136E-01
       1    -1     0     0   502     0  0.000000000E+00  0.000000000E+00  2.066541289E+03  2.066541289E+03  0.000000000E+00  0.00000E+00  9.000E+00
      21    -1     0     0   501   502  0.000000000E+00  0.000000000E+00 -5.424489231E+02  5.424489231E+02  0.000000000E+00  0.00000E+00  9.000E+00
      25     1     1     2     0     0  1.996579079E+02 -4.763973028E+02  4.409318210E+02  6.905530690E+02  1.250000000E+02  0.00000E+00  9.000E+00
      25     1     1     2     0     0 -1.666085266E+02  4.781326091E+02 -2.545369694E+02  5.803303041E+02  1.250000000E+02  0.00000E+00  9.000E+00
       1     1     1     2   501     0 -3.304938127E+01 -1.735306278E+00  1.337697515E+03  1.338106839E+03  1.525878906E-05  0.00000E+00  9.000E+00
#rwgt            1           1   2.9729280061027201E-002           9       11355           0
</event>
<event>
      5   9999  3.19816E-02  5.07125E+01 -1.00000E+00  1.38726E-01
      21    -1     0     0   502   501  0.000000000E+00  0.000000000E+00  9.434252041E+02  9.434252041E+02  0.000000000E+00  0.00000E+00  9.000E+00
      21    -1     0     0   511   502  0.000000000E+00  0.000000000E+00 -4.588380429E+02  4.588380429E+02  0.000000000E+00  0.00000E+00  9.000E+00
      25     1     1     2     0     0 -2.788975042E+02  1.753937742E+02  5.023132076E+02  6.135880967E+02  1.250000000E+02  0.00000E+00  9.000E+00
      25     1     1     2     0     0  2.374181739E+02 -1.462179675E+02  3.227434598E+02  4.444495744E+02  1.250000000E+02  0.00000E+00  9.000E+00
      21     1     1     2   511   501  4.147933032E+01 -2.917580669E+01 -3.404695062E+02  3.442255760E+02  5.394796609E-06  0.00000E+00  9.000E+00
#rwgt            1           1   2.7020024309202990E-002           9       11543           0
</event>
<event>
      5   9999  3.19816E-02  2.58278E+01 -1.00000E+00  1.57698E-01
      21    -1     0     0   502   501  0.000000000E+00  0.000000000E+00  2.123889434E+02  2.123889434E+02  0.000000000E+00  0.00000E+00  9.000E+00
       2    -1     0     0   501     0  0.000000000E+00  0.000000000E+00 -1.188372039E+03  1.188372039E+03  0.000000000E+00  0.00000E+00  9.000E+00
      25     1     1     2     0     0  1.425995675E+02 -2.765426341E+02 -2.555191309E+01  3.362861362E+02  1.250000000E+02  0.00000E+00  9.000E+00
      25     1     1     2     0     0 -1.672840181E+02  2.841421782E+02 -4.920064110E+02  6.053230779E+02  1.250000000E+02  0.00000E+00  9.000E+00
       2     1     1     2   502     0  2.468445061E+01 -7.599544051E+00 -4.584247711E+02  4.591517679E+02  7.629394531E-06  0.00000E+00  9.000E+00
#rwgt            1           1   3.0592267755092925E-002           9       11697           0
</event>
<event>
      5   9999  3.19816E-02  1.02706E+02 -1.00000E+00  1.23309E-01
      21    -1     0     0   502   501  0.000000000E+00  0.000000000E+00  8.823928595E+02  8.823928595E+02  0.000000000E+00  0.00000E+00  9.000E+00
      21    -1     0     0   501   511  0.000000000E+00  0.000000000E+00 -7.974218852E+02  7.974218852E+02  0.000000000E+00  0.00000E+00  9.000E+00
      25     1     1     2     0     0  2.762140531E+02  2.362546859E+02  3.267216694E+01  3.857498545E+02  1.250000000E+02  0.00000E+00  9.000E+00
      25     1     1     2     0     0 -3.637075024E+02 -2.900459411E+02  5.814364081E+02  7.550517147E+02  1.250000000E+02  0.00000E+00  9.000E+00
      21     1     1     2   502   511  8.749344937E+01  5.379125515E+01 -5.291376007E+02  5.390131755E+02  7.629394531E-06  0.00000E+00  9.000E+00
#rwgt            1           1   3.0125426061362669E-002           9       11793           0
</event>
<event>
      5   9999  3.19816E-02  9.83954E+00 -1.00000E+00  1.96573E-01
      21    -1     0     0   512   501  0.000000000E+00  0.000000000E+00  1.113044817E+02  1.113044817E+02  0.000000000E+00  0.00000E+00  9.000E+00
      21    -1     0     0   501   502  0.000000000E+00  0.000000000E+00 -3.928346975E+02  3.928346975E+02  0.000000000E+00  0.00000E+00  9.000E+00
      25     1     1     2     0     0  8.700928491E+01 -1.027038342E+02 -2.408303153E+02  3.028909605E+02  1.250000000E+02  0.00000E+00  9.000E+00
      25     1     1     2     0     0 -8.229447217E+01  1.113402139E+02 -4.233073060E+01  1.912744471E+02  1.250000000E+02  0.00000E+00  9.000E+00
      21     1     1     2   512   502 -4.714812740E+00 -8.636379639E+00  1.630830021E+00  9.973771554E+00  2.502330486E-07  0.00000E+00  9.000E+00
#rwgt            1           1   2.6324134760209613E-002           9       11878           0
</event>
<event>
      5   9999  3.19816E-02  5.09038E+02 -1.00000E+00  9.86315E-02
      21    -1     0     0   502   511  0.000000000E+00  0.000000000E+00  1.523118526E+03  1.523118526E+03  0.000000000E+00  0.00000E+00  9.000E+00
      21    -1     0     0   501   502  0.000000000E+00  0.000000000E+00 -1.215322202E+03  1.215322202E+03  0.000000000E+00  0.00000E+00  9.000E+00
      25     1     1     2     0     0 -1.197489349E+02 -1.989778182E+02  2.660993009E+02  3.746542640E+02  1.250000000E+02  0.00000E+00  9.000E+00
      25     1     1     2     0     0  1.188779070E+02  7.080146440E+02 -9.806227584E+02  1.221745754E+03  1.250000000E+02  0.00000E+00  9.000E+00
      21     1     1     2   501   511  8.710279202E-01 -5.090368258E+02  1.022319782E+03  1.142040711E+03  1.525878906E-05  0.00000E+00  9.000E+00
#rwgt            2          11   1.8238634224305278E-003           9       12049           0
</event>
<event>
      5   9999  3.19816E-02  1.69916E+01 -1.00000E+00  1.72430E-01
      21    -1     0     0   512   501  0.000000000E+00  0.000000000E+00  1.019791788E+03  1.019791788E+03  0.000000000E+00  0.00000E+00  9.000E+00
      21    -1     0     0   501   502  0.000000000E+00  0.000000000E+00 -1.916243984E+02  1.916243984E+02  0.000000000E+00  0.00000E+00  9.000E+00
      25     1     1     2     0     0  1.525277213E+02  6.540231079E+00 -1.205810525E+02  2.312407201E+02  1.250000000E+02  0.00000E+00  9.000E+00
      25     1     1     2     0     0 -1.373964745E+02  1.190112167E+00  5.396514768E+02  5.707257870E+02  1.250000000E+02  0.00000E+00  9.000E+00
      21     1     1     2   512   502 -1.513124681E+01 -7.730343246E+00  4.090969650E+02  4.094496790E+02  5.394796609E-06  0.00000E+00  9.000E+00
#rwgt            1           1   2.8175854169115222E-002           9       12084           0
</event>
<event>
      5   9999  3.19816E-02  8.59763E+01 -1.00000E+00  1.26853E-01
      21    -1     0     0   511   501  0.000000000E+00  0.000000000E+00  1.368968453E+03  1.368968453E+03  0.000000000E+00  0.00000E+00  9.000E+00
      21    -1     0     0   501   502  0.000000000E+00  0.000000000E+00 -5.790996227E+02  5.790996227E+02  0.000000000E+00  0.00000E+00  9.000E+00
      25     1     1     2     0     0 -6.587963443E+02 -1.207196067E+02  1.491075520E+02  6.974553095E+02  1.250000000E+02  0.00000E+00  9.000E+00
      25     1     1     2     0     0  5.854001578E+02  1.654960212E+02  1.734466226E+01  6.212955135E+02  1.250000000E+02  0.00000E+00  9.000E+00
      21     1     1     2   511   502  7.339618649E+01 -4.477641449E+01  6.234166160E+02  6.293172527E+02  1.321449896E-05  0.00000E+00  9.000E+00
#rwgt            1           1   3.3565541900258206E-002           9       12305           0
</event>
<event>
      5   9999  3.19816E-02  1.03263E+02 -1.00000E+00  1.23204E-01
      21    -1     0     0   512   501  0.000000000E+00  0.000000000E+00  1.207058596E+03  1.207058596E+03  0.000000000E+00  0.00000E+00  9.000E+00
      21    -1     0     0   501   502  0.000000000E+00  0.000000000E+00 -1.577533136E+02  1.577533136E+02  0.000000000E+00  0.00000E+00  9.000E+00
      25     1     1     2     0     0 -1.612081253E+02  1.805360110E+02  3.769752445E+02  4.650985336E+02  1.250000000E+02  0.00000E+00  9.000E+00
      25     1     1     2     0     0  1.613046200E+02 -7.727312372E+01 -1.301336761E+00  2.182132204E+02  1.250000000E+02  0.00000E+00  9.000E+00
      21     1     1     2   512   502 -9.649472394E-02 -1.032628873E+02  6.736313743E+02  6.815001553E+02  0.000000000E+00  0.00000E+00  9.000E+00
#rwgt            1           1   2.6894011395680019E-002           9       12365           0
</event>
<event>
      5   9999  3.19816E-02  8.88703E+01 -1.00000E+00  1.26177E-01
      21    -1     0     0   502   511  0.000000000E+00  0.000000000E+00  5.362050898E+02  5.362050898E+02  0.000000000E+00  0.00000E+00  9.000E+00
      21    -1     0     0   501   502  0.000000000E+00  0.000000000E+00 -3.667709990E+02  3.667709990E+02  0.000000000E+00  0.00000E+00  9.000E+00
      25     1     1     2     0     0 -8.756299013E+01 -1.011368221E+02 -1.320227695E+02  2.257231616E+02  1.250000000E+02  0.00000E+00  9.000E+00
      25     1     1     2     0     0  1.762147246E+02  1.073652970E+02 -1.036022809E+02  2.625592671E+02  1.250000000E+02  0.00000E+00  9.000E+00
      21     1     1     2   501   511 -8.865173442E+01 -6.228474883E+00  4.050591411E+02  4.146936601E+02  0.000000000E+00  0.00000E+00  9.000E+00
#rwgt            1           1   2.8968675525612018E-002           9       12430           0
</event>
<event>
      5   9999  3.19816E-02  7.22397E+01 -1.00000E+00  1.30532E-01
      21    -1     0     0   502   501  0.000000000E+00  0.000000000E+00  2.712015945E+02  2.712015945E+02  0.000000000E+00  0.00000E+00  9.000E+00
      21    -1     0     0   501   512  0.000000000E+00  0.000000000E+00 -9.913874708E+02  9.913874708E+02  0.000000000E+00  0.00000E+00  9.000E+00
      25     1     1     2     0     0 -1.465877599E+02  2.450548517E+02  1.174536169E+02  3.331068954E+02  1.250000000E+02  0.00000E+00  9.000E+00
      25     1     1     2     0     0  1.986006902E+02 -1.949226672E+02 -5.125604576E+02  5.964732207E+02  1.250000000E+02  0.00000E+00  9.000E+00
      21     1     1     2   502   512 -5.201293033E+01 -5.013218444E+01 -3.250790356E+02  3.330089491E+02  3.814697266E-06  0.00000E+00  9.000E+00
#rwgt            1           1   2.9576856418561011E-002           9       12510           0
</event>
<event>
      5   9999  3.19816E-02  2.09969E+02 -1.00000E+00  1.10884E-01
      21    -1     0     0   502   501  0.000000000E+00  0.000000000E+00  6.349007079E+02  6.349007079E+02  0.000000000E+00  0.00000E+00  9.000E+00
      21    -1     0     0   511   502  0.000000000E+00  0.000000000E+00 -1.127652356E+03  1.127652356E+03  0.000000000E+00  0.00000E+00  9.000E+00
      25     1     1     2     0     0  4.770246058E+02 -6.523220497E+01  3.139381439E+02  5.882090388E+02  1.250000000E+02  0.00000E+00  9.000E+00
      25     1     1     2     0     0 -2.731188102E+02  1.153244754E+02  1.906987175E+01  3.223077397E+02  1.250000000E+02  0.00000E+00  9.000E+00
      21     1     1     2   511   501 -2.039057957E+02 -5.009227039E+01 -8.257596636E+02  8.520362851E+02  1.078959322E-05  0.00000E+00  9.000E+00
#rwgt            1           1   2.8779114749047013E-002           9       12639           0
</event>
<event>
      5   9999  3.19816E-02  1.20182E+02 -1.00000E+00  1.20340E-01
      21    -1     0     0   502   512  0.000000000E+00  0.000000000E+00  3.488788998E+02  3.488788998E+02  0.000000000E+00  0.00000E+00  9.000E+00
      21    -1     0     0   501   502  0.000000000E+00  0.000000000E+00 -5.479824568E+02  5.479824568E+02  0.000000000E+00  0.00000E+00  9.000E+00
      25     1     1     2     0     0  1.803884476E+02 -9.724697915E+01 -4.838506422E+01  2.448736029E+02  1.250000000E+02  0.00000E+00  9.000E+00
      25     1     1     2     0     0 -1.796935793E+02  2.174271185E+02 -3.199167490E+02  4.444502904E+02  1.250000000E+02  0.00000E+00  9.000E+00
      21     1     1     2   501   512 -6.948682293E-01 -1.201801394E+02  1.691982562E+02  2.075374632E+02  2.697398305E-06  0.00000E+00  9.000E+00
#rwgt            1           1   2.7091814032990557E-002           9       12711           0
</event>
<event>
      5   9999  3.19816E-02  6.14954E+01 -1.00000E+00  1.34135E-01
      21    -1     0     0   502   501  0.000000000E+00  0.000000000E+00  3.926210048E+02  3.926210048E+02  0.000000000E+00  0.00000E+00  9.000E+00
      21    -1     0     0   501   511  0.000000000E+00  0.000000000E+00 -2.934859162E+02  2.934859162E+02  0.000000000E+00  0.00000E+00  9.000E+00
      25     1     1     2     0     0 -1.801274918E+02  1.545583166E+02 -8.257454402E+01  2.806737285E+02  1.250000000E+02  0.00000E+00  9.000E+00
      25     1     1     2     0     0  1.633013605E+02 -2.137069758E+02  1.729174369E+02  3.433124609E+02  1.250000000E+02  0.00000E+00  9.000E+00
      21     1     1     2   502   511  1.682613136E+01  5.914865919E+01  8.792195686E+00  6.212073153E+01  9.536743164E-07  0.00000E+00  9.000E+00
#rwgt            1           1   2.8132770775967240E-002           9       12752           0
</event>
<event>
      5   9999  3.19816E-02  7.60686E+00 -1.00000E+00  2.10574E-01
      21    -1     0     0   502   501  0.000000000E+00  0.000000000E+00  3.465948647E+02  3.465948647E+02  0.000000000E+00  0.00000E+00  9.000E+00
      21    -1     0     0   501   512  0.000000000E+00  0.000000000E+00 -1.910004990E+02  1.910004990E+02  0.000000000E+00  0.00000E+00  9.000E+00
      25     1     1     2     0     0  3.440083389E+01 -2.073649938E+02  1.352556355E+02  2.794686833E+02  1.250000000E+02  0.00000E+00  9.000E+00
      25     1     1     2     0     0 -4.146309805E+01  2.101914267E+02  2.484908385E+01  2.492831750E+02  1.250000000E+02  0.00000E+00  9.000E+00
      21     1     1     2   502   512  7.062264167E+00 -2.826432929E+00 -4.510353698E+00  8.843505456E+00  2.064765462E-07  0.00000E+00  9.000E+00
#rwgt            1           1   2.8433755904372294E-002           9       12812           0
</event>
<event>
      5   9999  3.19816E-02  8.47568E+00 -1.00000E+00  2.04444E-01
      21    -1     0     0   511   501  0.000000000E+00  0.000000000E+00  2.273617429E+02  2.273617429E+02  0.000000000E+00  0.00000E+00  9.000E+00
      21    -1     0     0   501   502  0.000000000E+00  0.000000000E+00 -8.865911584E+02  8.865911584E+02  0.000000000E+00  0.00000E+00  9.000E+00
      25     1     1     2     0     0 -3.904279665E+02  3.987030456E+01 -3.719644729E+02  5.549830694E+02  1.250000000E+02  0.00000E+00  9.000E+00
      25     1     1     2     0     0  3.967358864E+02 -3.420927629E+01 -3.195130465E+02  5.256265072E+02  1.250000000E+02  0.00000E+00  9.000E+00
      21     1     1     2   511   502 -6.307919848E+00 -5.661028263E+00  3.224810399E+01  3.334332474E+01  8.259061849E-07  0.00000E+00  9.000E+00
#rwgt            1           1   2.8560946472364904E-002           9       13005           0
</event>
<event>
      5   9999  3.19816E-02  8.12903E+01 -1.00000E+00  1.28014E-01
      21    -1     0     0   512   501  0.000000000E+00  0.000000000E+00  2.465561598E+02  2.465561598E+02  0.000000000E+00  0.00000E+00  9.000E+00
      21    -1     0     0   501   502  0.000000000E+00  0.000000000E+00 -1.612814323E+03  1.612814323E+03  0.000000000E+00  0.00000E+00  9.000E+00
      25     1     1     2     0     0  2.162856667E+02  2.718531418E+02 -1.980346009E+02  4.189586178E+02  1.250000000E+02  0.00000E+00  9.000E+00
      25     1     1     2     0     0 -1.469445378E+02 -2.294276003E+02 -1.272990033E+03  1.307806692E+03  1.250000000E+02  0.00000E+00  9.000E+00
      21     1     1     2   512   502 -6.934112892E+01 -4.242554144E+01  1.047664699E+02  1.326051731E+02  3.814697266E-06  0.00000E+00  9.000E+00
#rwgt            1           1   2.9494422313266631E-002           9       13269           0
</event>
<event>
      5   9999  3.19816E-02  5.72030E+02 -1.00000E+00  9.72194E-02
       2    -1     0     0   502     0  0.000000000E+00  0.000000000E+00  3.324784842E+02  3.324784842E+02  0.000000000E+00  0.00000E+00  9.000E+00
      21    -1     0     0   501   502  0.000000000E+00  0.000000000E+00 -2.424689620E+03  2.424689620E+03  0.000000000E+00  0.00000E+00  9.000E+00
      25     1     1     2     0     0 -1.914491876E+02  9.808541546E+01 -2.711193641E+02  3.679731645E+02  1.250000000E+02  0.00000E+00  9.000E+00
      25     1     1     2     0     0  7.089507374E+00  4.434218006E+02 -1.753688245E+03  1.813207273E+03  1.250000000E+02  0.00000E+00  9.000E+00
       2     1     1     2   501     0  1.843596802E+02 -5.415072160E+02 -6.740352653E+01  5.759876666E+02  1.027138673E-05  0.00000E+00  9.000E+00
#rwgt            1           1   2.6827094073436024E-002           9       13334           0
</event>
<event>
      5   9999  3.19816E-02  1.10103E+02 -1.00000E+00  1.21977E-01
      21    -1     0     0   502   511  0.000000000E+00  0.000000000E+00  7.539501918E+02  7.539501918E+02  0.000000000E+00  0.00000E+00  9.000E+00
      21    -1     0     0   501   502  0.000000000E+00  0.000000000E+00 -7.200009368E+02  7.200009368E+02  0.000000000E+00  0.00000E+00  9.000E+00
      25     1     1     2     0     0 -2.737166989E+02 -3.885228644E+01 -1.862132682E+02  3.559925739E+02  1.250000000E+02  0.00000E+00  9.000E+00
      25     1     1     2     0     0  1.937111569E+02  1.144949454E+02 -4.068018136E+02  4.813998550E+02  1.250000000E+02  0.00000E+00  9.000E+00
      21     1     1     2   501   511  8.000554197E+01 -7.564265899E+01  6.269643368E+02  6.365586998E+02  7.629394531E-06  0.00000E+00  9.000E+00
#rwgt            1           1   3.2445589951345916E-002           9       13363           0
</event>
<event>
      5   9999  3.19816E-02  8.63073E+00 -1.00000E+00  2.03453E-01
      21    -1     0     0   502   512  0.000000000E+00  0.000000000E+00  1.784189023E+02  1.784189023E+02  0.000000000E+00  0.00000E+00  9.000E+00
      21    -1     0     0   501   502  0.000000000E+00  0.000000000E+00 -3.160190459E+02  3.160190459E+02  0.000000000E+00  0.00000E+00  9.000E+00
      25     1     1     2     0     0  1.713395984E+02  1.732532246E+01 -4.363985149E+01  2.172253701E+02  1.250000000E+02  0.00000E+00  9.000E+00
      25     1     1     2     0     0 -1.783786300E+02 -2.231946424E+01 -1.200670179E+02  2.497162047E+02  1.250000000E+02  0.00000E+00  9.000E+00
      21     1     1     2   501   512  7.039031574E+00  4.994141787E+00  2.610672578E+01  2.749637337E+01  0.000000000E+00  0.00000E+00  9.000E+00
#rwgt            1           1   2.6932063699513259E-002           9       13438           0
</event>
<event>
      5   9999  3.19816E-02  3.99698E+01 -1.00000E+00  1.44860E-01
      21    -1     0     0   502   501  0.000000000E+00  0.000000000E+00  1.667378099E+03  1.667378099E+03  0.000000000E+00  0.00000E+00  9.000E+00
      21    -1     0     0   511   502  0.000000000E+00  0.000000000E+00 -1.190445163E+02  1.190445163E+02  0.000000000E+00  0.00000E+00  9.000E+00
      25     1     1     2     0     0  1.485038194E+02 -3.976175485E+00  2.518797211E+02  3.180213645E+02  1.250000000E+02  0.00000E+00  9.000E+00
      25     1     1     2     0     0 -1.788229352E+02 -2.206876197E+01  1.368527750E+03  1.385986246E+03  1.250000000E+02  0.00000E+00  9.000E+00
      21     1     1     2   511   501  3.031911575E+01  2.604493745E+01 -7.207388855E+01  8.241500444E+01  4.473129043E-06  0.00000E+00  9.000E+00
#rwgt            1           1   3.3340755579591590E-002           9       13764           0
</event>
<event>
      5   9999  3.19816E-02  1.82953E+02 -1.00000E+00  1.13075E-01
      21    -1     0     0   502   501  0.000000000E+00  0.000000000E+00  2.891259276E+02  2.891259276E+02  0.000000000E+00  0.00000E+00  9.000E+00
       2    -1     0     0   501     0  0.000000000E+00  0.000000000E+00 -7.618456763E+02  7.618456763E+02  0.000000000E+00  0.00000E+00  9.000E+00
      25     1     1     2     0     0  6.717443147E+01 -2.081198342E+02 -1.264529028E+02  2.818538740E+02  1.250000000E+02  0.00000E+00  9.000E+00
      25     1     1     2     0     0 -8.723372879E+01  2.627025928E+01  1.649636603E+02  2.261368152E+02  1.250000000E+02  0.00000E+00  9.000E+00
       2     1     1     2   502     0  2.005929732E+01  1.818495750E+02 -5.112305062E+02  5.429809147E+02  9.344061824E-06  0.00000E+00  9.000E+00
#rwgt            1           1   3.2001292663702365E-002           9       13880           0
</event>
<event>
      5   9999  3.19816E-02  5.48317E+01 -1.00000E+00  1.36828E-01
      21    -1     0     0   511   501  0.000000000E+00  0.000000000E+00  3.668241046E+02  3.668241046E+02  0.000000000E+00  0.00000E+00  9.000E+00
      21    -1     0     0   501   502  0.000000000E+00  0.000000000E+00 -2.448423658E+03  2.448423658E+03  0.000000000E+00  0.00000E+00  9.000E+00
      25     1     1     2     0     0  5.707796875E+01  3.365465194E+02 -2.249196634E+03  2.278383627E+03  1.250000000E+02  0.00000E+00  9.000E+00
      25     1     1     2     0     0 -1.096260684E+02 -3.208872249E+02  9.237720820E-01  3.614032918E+02  1.250000000E+02  0.00000E+00  9.000E+00
      21     1     1     2   511   502  5.254809965E+01 -1.565929447E+01  1.666733079E+02  1.754608442E+02  6.877043296E-06  0.00000E+00  9.000E+00
#rwgt            1           1   3.6239656376112948E-002           9       13924           0
</event>
<event>
      5   9999  3.19816E-02  1.59118E+02 -1.00000E+00  1.15387E-01
      21    -1     0     0   512   501  0.000000000E+00  0.000000000E+00  2.629378474E+02  2.629378474E+02  0.000000000E+00  0.00000E+00  9.000E+00
      21    -1     0     0   501   502  0.000000000E+00  0.000000000E+00 -1.244442003E+03  1.244442003E+03  0.000000000E+00  0.00000E+00  9.000E+00
      25     1     1     2     0     0  1.350403698E+02  3.455248776E+02 -7.571966244E+02  8.524054613E+02  1.250000000E+02  0.00000E+00  9.000E+00
      25     1     1     2     0     0 -2.915354295E+02 -3.167522591E+02 -2.105616075E+02  4.952636579E+02  1.250000000E+02  0.00000E+00  9.000E+00
      21     1     1     2   512   502  1.564950596E+02 -2.877261857E+01 -1.374592382E+01  1.597107313E+02  2.001864388E-06  0.00000E+00  9.000E+00
#rwgt            1           1   2.7529466962752266E-002           9       14068           0
</event>
<event>
      5   9999  3.19816E-02  3.23207E+01 -1.00000E+00  1.50826E-01
      21    -1     0     0   502   501  0.000000000E+00  0.000000000E+00  2.967924211E+02  2.967924211E+02  0.000000000E+00  0.00000E+00  9.000E+00
      21    -1     0     0   501   511  0.000000000E+00  0.000000000E+00 -2.177254321E+02  2.177254321E+02  0.000000000E+00  0.00000E+00  9.000E+00
      25     1     1     2     0     0  8.579117965E+01  1.375481019E+02  2.358418005E+01  2.060602349E+02  1.250000000E+02  0.00000E+00  9.000E+00
      25     1     1     2     0     0 -1.109427346E+02 -1.172496477E+02  1.196310824E+02  2.366270612E+02  1.250000000E+02  0.00000E+00  9.000E+00
      21     1     1     2   502   511  2.515155491E+01 -2.029845425E+01 -6.414827339E+01  7.183055713E+01  1.348699152E-06  0.00000E+00  9.000E+00
#rwgt            1           1   2.5076388291064389E-002           9       14112           0
</event>
<event>
      5   9999  3.19816E-02  1.59221E+01 -1.00000E+00  1.74977E-01
      21    -1     0     0   502   501  0.000000000E+00  0.000000000E+00  3.026093168E+02  3.026093168E+02  0.000000000E+00  0.00000E+00  9.000E+00
      21    -1     0     0   512   502  0.000000000E+00  0.000000000E+00 -3.640945181E+02  3.640945181E+02  0.000000000E+00  0.00000E+00  9.000E+00
      25     1     1     2     0     0  2.302352857E+02  1.034737769E+02  9.294431070E+01  2.966121275E+02  1.250000000E+02  0.00000E+00  9.000E+00
      25     1     1     2     0     0 -2.350279444E+02 -1.186574709E+02 -9.194217465E+01  3.056077445E+02  1.250000000E+02  0.00000E+00  9.000E+00
      21     1     1     2   512   501  4.792658703E+00  1.518369394E+01 -6.248733739E+01  6.448396292E+01  0.000000000E+00  0.00000E+00  9.000E+00
#rwgt            1           1   2.8549105609546113E-002           9       14219           0
</event>
<event>
      5   9999  3.19816E-02  9.19102E+01 -1.00000E+00  1.25498E-01
      21    -1     0     0   502   501  0.000000000E+00  0.000000000E+00  7.201645323E+01  7.201645323E+01  0.000000000E+00  0.00000E+00  9.000E+00
      21    -1     0     0   511   502  0.000000000E+00  0.000000000E+00 -1.480513018E+03  1.480513018E+03  0.000000000E+00  0.00000E+00  9.000E+00
      25     1     1     2     0     0  1.350099470E+02  1.255458041E+02 -4.761856858E+02  5.257064219E+02  1.250000000E+02  0.00000E+00  9.000E+00
      25     1     1     2     0     0 -8.010967832E+01 -1.992576514E+02 -3.077965244E+02  3.955816890E+02  1.250000000E+02  0.00000E+00  9.000E+00
      21     1     1     2   511   501 -5.490026864E+01  7.371184735E+01 -6.245143545E+02  6.312413603E+02  0.000000000E+00  0.00000E+00  9.000E+00
#rwgt            1           1   3.4869711528255312E-002           9       14360           0
</event>
<event>
      5   9999  3.19816E-02  1.35933E+02 -1.00000E+00  1.18114E-01
      21    -1     0     0   502   501  0.000000000E+00  0.000000000E+00  8.955170342E+02  8.955170342E+02  0.000000000E+00  0.00000E+00  9.000E+00
      21    -1     0     0   512   502  0.000000000E+00  0.000000000E+00 -3.331868627E+02  3.331868627E+02  0.000000000E+00  0.00000E+00  9.000E+00
      25     1     1     2     0     0 -3.518174321E+02  2.233137132E+02  6.177727825E+02  7.555876725E+02  1.250000000E+02  0.00000E+00  9.000E+00
      25     1     1     2     0     0  2.699150965E+02 -1.148251347E+02 -9.291995208E+01  3.321115601E+02  1.250000000E+02  0.00000E+00  9.000E+00
      21     1     1     2   512   501  8.190233563E+01 -1.084885785E+02  3.747734114E+01  1.410046643E+02  2.023048729E-06  0.00000E+00  9.000E+00
#rwgt            1           1   3.0030640175508438E-002           9       14423           0
</event>
<event>
      5   9999  3.19816E-02  2.16538E+01 -1.00000E+00  1.63572E-01
      21    -1     0     0   502   511  0.000000000E+00  0.000000000E+00  8.839871844E+02  8.839871844E+02  0.000000000E+00  0.00000E+00  9.000E+00
      21    -1     0     0   501   502  0.000000000E+00  0.000000000E+00 -1.657441134E+02  1.657441134E+02  0.000000000E+00  0.00000E+00  9.000E+00
      25     1     1     2     0     0 -8.984617669E+01  2.172949957E+02  6.876432497E+02  7.374060547E+02  1.250000000E+02  0.00000E+00  9.000E+00
      25     1     1     2     0     0  7.782371089E+01 -2.353045923E+02  3.452732047E+00  2.775998964E+02  1.250000000E+02  0.00000E+00  9.000E+00
      21     1     1     2   501   511  1.202246580E+01  1.800959655E+01  2.714708923E+01  3.472534673E+01  3.371747881E-07  0.00000E+00  9.000E+00
#rwgt            1           1   2.3019811650333021E-002           9       14488           0
</event>
<event>
      5   9999  3.19816E-02  1.42271E+02 -1.00000E+00  1.17311E-01
      21    -1     0     0   502   501  0.000000000E+00  0.000000000E+00  8.357688630E+02  8.357688630E+02  0.000000000E+00  0.00000E+00  9.000E+00
      21    -1     0     0   512   502  0.000000000E+00  0.000000000E+00 -3.107977990E+02  3.107977990E+02  0.000000000E+00  0.00000E+00  9.000E+00
      25     1     1     2     0     0  3.597734412E+01 -5.647287434E+01 -7.643084638E+01  1.610907480E+02  1.250000000E+02  0.00000E+00  9.000E+00
      25     1     1     2     0     0  8.206745510E+01 -2.294027501E+01  7.585529147E+02  7.734913366E+02  1.250000000E+02  0.00000E+00  9.000E+00
      21     1     1     2   512   501 -1.180447992E+02  7.941314935E+01 -1.571510043E+02  2.119845774E+02  4.672030912E-06  0.00000E+00  9.000E+00
#rwgt            1           1   3.2972913283046718E-002           9       14684           0
</event>
<event>
      5   9999  3.19816E-02  1.69275E+02 -1.00000E+00  1.14350E-01
      21    -1     0     0   502   501  0.000000000E+00  0.000000000E+00  3.905091632E+02  3.905091632E+02  0.000000000E+00  0.00000E+00  9.000E+00
      21    -1     0     0   501   511  0.000000000E+00  0.000000000E+00 -1.917859682E+03  1.917859682E+03  0.000000000E+00  0.00000E+00  9.000E+00
      25     1     1     2     0     0  9.443533170E+01  6.843484963E+02 -8.220315561E+02  1.081023485E+03  1.250000000E+02  0.00000E+00  9.000E+00
      25     1     1     2     0     0  6.184770558E+01 -7.493848749E+02 -3.604651606E+02  8.431861962E+02  1.250000000E+02  0.00000E+00  9.000E+00
      21     1     1     2   502   511 -1.562830373E+02  6.503637865E+01 -3.448538021E+02  3.841591638E+02  0.000000000E+00  0.00000E+00  9.000E+00
#rwgt            1           1   2.6677512838395558E-002           9       14743           0
</event>
<event>
      5   9999  3.19816E-02  4.38876E+01 -1.00000E+00  1.42385E-01
      21    -1     0     0   502   501  0.000000000E+00  0.000000000E+00  8.678477814E+01  8.678477814E+01  0.000000000E+00  0.00000E+00  9.000E+00
      21    -1     0     0   501   512  0.000000000E+00  0.000000000E+00 -5.925501611E+02  5.925501611E+02  0.000000000E+00  0.00000E+00  9.000E+00
      25     1     1     2     0     0  3.036227929E+00 -1.525574181E+02 -2.910730767E+02  3.516127422E+02  1.250000000E+02  0.00000E+00  9.000E+00
      25     1     1     2     0     0  3.760455663E+01  1.359910249E+02 -1.202768495E+02  2.236049688E+02  1.250000000E+02  0.00000E+00  9.000E+00
      21     1     1     2   502   512 -4.064078456E+01  1.656639318E+01 -9.441545680E+01  1.041172283E+02  1.348699152E-06  0.00000E+00  9.000E+00
#rwgt            1           1   2.5758568818801415E-002           9       14833           0
</event>
<event>
      5   9999  3.19816E-02  2.35178E+01 -1.00000E+00  1.60765E-01
      21    -1     0     0   511   501  0.000000000E+00  0.000000000E+00  2.562272614E+02  2.562272614E+02  0.000000000E+00  0.00000E+00  9.000E+00
      21    -1     0     0   501   502  0.000000000E+00  0.000000000E+00 -1.439742749E+03  1.439742749E+03  0.000000000E+00  0.00000E+00  9.000E+00
      25     1     1     2     0     0  3.521828367E+02 -4.141010641E+02 -9.222148833E+02  1.077783713E+03  1.250000000E+02  0.00000E+00  9.000E+00
      25     1     1     2     0     0 -3.438524471E+02  3.921080900E+02 -2.550571951E+02  5.938538814E+02  1.250000000E+02  0.00000E+00  9.000E+00
      21     1     1     2   511   502 -8.330389580E+00  2.199297406E+01 -6.243409173E+00  2.433241576E+01  4.460403188E-07  0.00000E+00  9.000E+00
#rwgt            1           1   2.5335634611241182E-002           9       14914           0
</event>
<event>
      5   9999  3.19816E-02  6.82654E+00 -1.00000E+00  2.17105E-01
      21    -1     0     0   502   501  0.000000000E+00  0.000000000E+00  3.756824369E+02  3.756824369E+02  0.000000000E+00  0.00000E+00  9.000E+00
      21    -1     0     0   512   502  0.000000000E+00  0.000000000E+00 -2.645907536E+02  2.645907536E+02  0.000000000E+00  0.00000E+00  9.000E+00
      25     1     1     2     0     0 -1.707590877E+02 -1.108738326E+02 -1.512855360E+02  2.827790412E+02  1.250000000E+02  0.00000E+00  9.000E+00
      25     1     1     2     0     0  1.641157795E+02  1.093028243E+02  2.615914066E+02  3.506225328E+02  1.250000000E+02  0.00000E+00  9.000E+00
      21     1     1     2   512   501  6.643308190E+00  1.571008223E+00  7.858126083E-01  6.871616404E+00  1.074538015E-07  0.00000E+00  9.000E+00
#rwgt            1           1   2.7796011035364568E-002           9       15096           0
</event>
<event>
      5   9999  3.19816E-02  1.24205E+02 -1.00000E+00  1.19737E-01
      21    -1     0     0   502   511  0.000000000E+00  0.000000000E+00  5.946409151E+02  5.946409151E+02  0.000000000E+00  0.00000E+00  9.000E+00
      21    -1     0     0   501   502  0.000000000E+00  0.000000000E+00 -3.964404321E+02  3.964404321E+02  0.000000000E+00  0.00000E+00  9.000E+00
      25     1     1     2     0     0 -1.443609300E+01 -2.564618265E+02  2.531294616E+02  3.816812723E+02  1.250000000E+02  0.00000E+00  9.000E+00
      25     1     1     2     0     0  8.001511070E+00  3.805001506E+02 -1.745454310E+02  4.369616645E+02  1.250000000E+02  0.00000E+00  9.000E+00
      21     1     1     2   501   511  6.434581928E+00 -1.240383241E+02  1.196164524E+02  1.724384104E+02  0.000000000E+00  0.00000E+00  9.000E+00
#rwgt            1           1   2.7451842942436473E-002           9       15346           0
</event>
<event>
      5   9999  3.19816E-02  2.61035E+01 -1.00000E+00  1.57358E-01
      21    -1     0     0   502   512  0.000000000E+00  0.000000000E+00  4.260576428E+02  4.260576428E+02  0.000000000E+00  0.00000E+00  9.000E+00
      21    -1     0     0   501   502  0.000000000E+00  0.000000000E+00 -2.372967489E+02  2.372967489E+02  0.000000000E+00  0.00000E+00  9.000E+00
      25     1     1     2     0     0  1.083662886E+02  1.938098961E+02  1.235609393E+02  2.831922210E+02  1.250000000E+02  0.00000E+00  9.000E+00
      25     1     1     2     0     0 -1.242336618E+02 -1.730825962E+02 -5.840893688E+01  2.538270902E+02  1.250000000E+02  0.00000E+00  9.000E+00
      21     1     1     2   501   512  1.586737318E+01 -2.072729986E+01  1.236088915E+02  1.263350805E+02  1.907348633E-06  0.00000E+00  9.000E+00
#rwgt            1           1   2.9109873446678515E-002           9       15424           0
</event>
<event>
      5   9999  3.19816E-02  1.45275E+02 -1.00000E+00  1.16947E-01
      21    -1     0     0   511   501  0.000000000E+00  0.000000000E+00  2.307589637E+03  2.307589637E+03  0.000000000E+00  0.00000E+00  9.000E+00
      21    -1     0     0   501   502  0.000000000E+00  0.000000000E+00 -3.327370529E+02  3.327370529E+02  0.000000000E+00  0.00000E+00  9.000E+00
      25     1     1     2     0     0 -4.129102094E+02 -5.576668585E+02  1.613331565E+03  1.760667744E+03  1.250000000E+02  0.00000E+00  9.000E+00
      25     1     1     2     0     0  3.095996322E+02  4.555303194E+02  9.027192811E+01  5.719561392E+02  1.250000000E+02  0.00000E+00  9.000E+00
      21     1     1     2   511   502  1.033105772E+02  1.021365391E+02  2.712490914E+02  3.077028072E+02  0.000000000E+00  0.00000E+00  9.000E+00
#rwgt            1           1   2.7437519613630480E-002           9       15560           0
</event>
<event>
      5   9999  3.19816E-02  1.34830E+02 -1.00000E+00  1.18259E-01
       2    -1     0     0   502     0  0.000000000E+00  0.000000000E+00  1.419831071E+03  1.419831071E+03  0.000000000E+00  0.00000E+00  9.000E+00
      21    -1     0     0   501   502  0.000000000E+00  0.000000000E+00 -4.715645112E+02  4.715645112E+02  0.000000000E+00  0.00000E+00  9.000E+00
      25     1     1     2     0     0 -2.761332607E+02 -5.397640320E+02  1.134946585E+01  6.191515148E+02  1.250000000E+02  0.00000E+00  9.000E+00
      25     1     1     2     0     0  4.011881649E+02  5.901677321E+02  8.151047138E+02  1.090536836E+03  1.250000000E+02  0.00000E+00  9.000E+00
       2     1     1     2   501     0 -1.250549043E+02 -5.040370011E+01  1.218123801E+02  1.817072316E+02  0.000000000E+00  0.00000E+00  9.000E+00
#rwgt            1           1   2.2622946916170901E-002           9       15652           0
</event>
<event>
      5   9999  3.19816E-02  4.17864E+01 -1.00000E+00  1.43673E-01
      21    -1     0     0   502   501  0.000000000E+00  0.000000000E+00  3.076502501E+02  3.076502501E+02  0.000000000E+00  0.00000E+00  9.000E+00
      21    -1     0     0   511   502  0.000000000E+00  0.000000000E+00 -1.815588455E+02  1.815588455E+02  0.000000000E+00  0.00000E+00  9.000E+00
      25     1     1     2     0     0  1.072559624E+02 -6.116139278E+01 -2.395560530E+00  1.757136766E+02  1.250000000E+02  0.00000E+00  9.000E+00
      25     1     1     2     0     0 -1.475987112E+02  5.027278127E+01  1.641049279E+02  2.585887845E+02  1.250000000E+02  0.00000E+00  9.000E+00
      21     1     1     2   511   501  4.034274886E+01  1.088861151E+01 -3.561796272E+01  5.490663453E+01  1.066240300E-06  0.00000E+00  9.000E+00
#rwgt            1           1   3.2096756175361375E-002           9       15729           0
</event>
<event>
      5   9999  3.19816E-02  3.73343E+01 -1.00000E+00  1.46723E-01
      21    -1     0     0   502   501  0.000000000E+00  0.000000000E+00  1.498499050E+02  1.498499050E+02  0.000000000E+00  0.00000E+00  9.000E+00
      21    -1     0     0   512   502  0.000000000E+00  0.000000000E+00 -8.947256385E+02  8.947256385E+02  0.000000000E+00  0.00000E+00  9.000E+00
      25     1     1     2     0     0  1.921077754E+02  1.087483457E+02 -4.617811604E+02  5.268761147E+02  1.250000000E+02  0.00000E+00  9.000E+00
      25     1     1     2     0     0 -2.224795386E+02 -1.304602278E+02 -6.168891578E+01  2.931681061E+02  1.250000000E+02  0.00000E+00  9.000E+00
      21     1     1     2   512   501  3.037176315E+01  2.171188204E+01 -2.214056573E+02  2.245313228E+02  0.000000000E+00  0.00000E+00  9.000E+00
#rwgt            1           1   3.0699549642473515E-002           9       15831           0
</event>
<event>
      5   9999  3.19816E-02  1.26935E+02 -1.00000E+00  1.19342E-01
      21    -1     0     0   502   511  0.000000000E+00  0.000000000E+00  7.200442876E+02  7.200442876E+02  0.000000000E+00  0.00000E+00  9.000E+00
      21    -1     0     0   501   502  0.000000000E+00  0.000000000E+00 -4.529809932E+02  4.529809932E+02  0.000000000E+00  0.00000E+00  9.000E+00
      25     1     1     2     0     0 -2.050490393E+01 -8.250836302E+01 -4.043553011E+02  4.316900399E+02  1.250000000E+02  0.00000E+00  9.000E+00
      25     1     1     2     0     0 -1.062952186E+02  8.834967718E+01  3.700834021E+02  4.143562036E+02  1.250000000E+02  0.00000E+00  9.000E+00
      21     1     1     2   501   511  1.268001226E+02 -5.841314161E+00  3.013351934E+02  3.269790373E+02  5.394796609E-06  0.00000E+00  9.000E+00
#rwgt            1           1   2.6919209655829803E-002           9       16010           0
</event>
<event>
      5   9999  3.19816E-02  8.28853E+01 -1.00000E+00  1.27609E-01
      21    -1     0     0   502   512  0.000000000E+00  0.000000000E+00  8.808750661E+02  8.808750661E+02  0.000000000E+00  0.00000E+00  9.000E+00
      21    -1     0     0   501   502  0.000000000E+00  0.000000000E+00 -5.542771801E+02  5.542771801E+02  0.000000000E+00  0.00000E+00  9.000E+00
      25     1     1     2     0     0  2.394612271E+00  2.013852375E+02 -4.770564296E+02  5.327002769E+02  1.250000000E+02  0.00000E+00  9.000E+00
      25     1     1     2     0     0 -6.322993100E+01 -2.576794192E+02  4.353054189E+02  5.248928605E+02  1.250000000E+02  0.00000E+00  9.000E+00
      21     1     1     2   501   512  6.083531873E+01  5.629418171E+01  3.683488967E+02  3.775591088E+02  5.394796609E-06  0.00000E+00  9.000E+00
#rwgt            2          11   2.4809692367692105E-003           9       16107           0
</event>
<event>
      5   9999  3.19816E-02  1.19829E+03 -1.00000E+00  8.91442E-02
       2    -1     0     0   502     0  0.000000000E+00  0.000000000E+00  2.671783999E+03  2.671783999E+03  0.000000000E+00  0.00000E+00  9.000E+00
      21    -1     0     0   501   502  0.000000000E+00  0.000000000E+00 -3.341254629E+03  3.341254629E+03  0.000000000E+00  0.00000E+00  9.000E+00
      25     1     1     2     0     0  4.383803623E+02  4.343938989E+02  4.024002517E+02  7.472793079E+02  1.250000000E+02  0.00000E+00  9.000E+00
      25     1     1     2     0     0 -1.301311889E+03 -1.265806476E+03 -2.692798774E+03  3.249995216E+03  1.250000000E+02  0.00000E+00  9.000E+00
       2     1     1     2   501     0  8.629315264E+02  8.314125767E+02  1.620927892E+03  2.015764104E+03  3.051757812E-05  0.00000E+00  9.000E+00
#rwgt            2          18   1.2952037305247472E-003           9       16217           0
</event>
<event>
      5   9999  3.19816E-02  1.28170E+02 -1.00000E+00  1.19167E-01
      21    -1     0     0   502   501  0.000000000E+00  0.000000000E+00  1.266708890E+02  1.266708890E+02  0.000000000E+00  0.00000E+00  9.000E+00
      21    -1     0     0   511   502  0.000000000E+00  0.000000000E+00 -1.036495305E+03  1.036495305E+03  0.000000000E+00  0.00000E+00  9.000E+00
      25     1     1     2     0     0  1.667939444E+02 -1.424590705E+02 -1.296985327E+02  2.838336063E+02  1.250000000E+02  0.00000E+00  9.000E+00
      25     1     1     2     0     0 -1.131691676E+02  2.604659871E+01 -1.242882585E+02  2.110882683E+02  1.250000000E+02  0.00000E+00  9.000E+00
      21     1     1     2   511   501 -5.362477682E+01  1.164124718E+02 -6.558376252E+02  6.682443198E+02  7.629394531E-06  0.00000E+00  9.000E+00
#rwgt            1           1   2.5034603115219545E-002           9       16236           0
</event>
<event>
      5   9999  3.19816E-02  4.04649E+01 -1.00000E+00  1.44530E-01
      21    -1     0     0   502   501  0.000000000E+00  0.000000000E+00  1.257255629E+03  1.257255629E+03  0.000000000E+00  0.00000E+00  9.000E+00
      21    -1     0     0   501   512  0.000000000E+00  0.000000000E+00 -2.638348395E+02  2.638348395E+02  0.000000000E+00  0.00000E+00  9.000E+00
      25     1     1     2     0     0  3.691751770E+02  2.052934699E+01  4.936738050E+02  6.293255049E+02  1.250000000E+02  0.00000E+00  9.000E+00
      25     1     1     2     0     0 -4.095400080E+02 -1.768499077E+01  6.263062535E+02  7.588941298E+02  1.250000000E+02  0.00000E+00  9.000E+00
      21     1     1     2   502   512  4.036483107E+01 -2.844356222E+00 -1.265592689E+02  1.328708339E+02  1.348699152E-06  0.00000E+00  9.000E+00
#rwgt            1           1   2.8103181764303750E-002           9       16284           0
</event>
<event>
      5   9999  3.19816E-02  1.43252E+01 -1.00000E+00  1.79288E-01
      21    -1     0     0   511   501  0.000000000E+00  0.000000000E+00  7.174641919E+01  7.174641919E+01  0.000000000E+00  0.00000E+00  9.000E+00
      21    -1     0     0   501   502  0.000000000E+00  0.000000000E+00 -6.359782604E+02  6.359782604E+02  0.000000000E+00  0.00000E+00  9.000E+00
      25     1     1     2     0     0 -7.512984804E+01 -1.308110571E+02 -3.286360819E+02  3.825999229E+02  1.250000000E+02  0.00000E+00  9.000E+00
      25     1     1     2     0     0  6.450036802E+01  1.212076127E+02 -2.454262449E+02  3.077509132E+02  1.250000000E+02  0.00000E+00  9.000E+00
      21     1     1     2   511   502  1.062948001E+01  9.603444329E+00  9.830485633E+00  1.737384345E+01  3.953724850E-07  0.00000E+00  9.000E+00
#rwgt            1           1   2.7645868277604811E-002           9       16437           0
</event>
<event>
      5   9999  3.19816E-02  3.07723E+02 -1.00000E+00  1.05235E-01
      21    -1     0     0   502   512  0.000000000E+00  0.000000000E+00  5.982643695E+02  5.982643695E+02  0.000000000E+00  0.00000E+00  9.000E+00
      21    -1     0     0   501   502  0.000000000E+00  0.000000000E+00 -1.224700147E+03  1.224700147E+03  0.000000000E+00  0.00000E+00  9.000E+00
      25     1     1     2     0     0 -4.864021459E+02 -2.663390979E+02 -3.232727769E+02  6.539524837E+02  1.250000000E+02  0.00000E+00  9.000E+00
      25     1     1     2     0     0  3.348796471E+02 -1.493991750E+00 -6.273461224E+02  7.220351566E+02  1.250000000E+02  0.00000E+00  9.000E+00
      21     1     1     2   501   512  1.515224988E+02  2.678330897E+02  3.241831217E+02  4.469768763E+02  0.000000000E+00  0.00000E+00  9.000E+00
#rwgt            1           1   2.6603870609113820E-002           9       16667           0
</event>
<event>
      5   9999  3.19816E-02  3.45410E+01 -1.00000E+00  1.48906E-01
      21    -1     0     0   502   501  0.000000000E+00  0.000000000E+00  3.278340788E+02  3.278340788E+02  0.000000000E+00  0.00000E+00  9.000E+00
      21    -1     0     0   511   502  0.000000000E+00  0.000000000E+00 -1.985354113E+02  1.985354113E+02  0.000000000E+00  0.00000E+00  9.000E+00
      25     1     1     2     0     0 -1.807875328E+02 -4.152172541E+01 -3.241211232E+01  2.260171028E+02  1.250000000E+02  0.00000E+00  9.000E+00
      25     1     1     2     0     0  1.546011859E+02  1.899716125E+01  1.727769704E+02  2.640819955E+02  1.250000000E+02  0.00000E+00  9.000E+00
      21     1     1     2   511   501  2.618634697E+01  2.252456416E+01 -1.106619063E+01  3.627039196E+01  0.000000000E+00  0.00000E+00  9.000E+00
#rwgt            1           1   2.8188916363663889E-002           9       16758           0
</event>
<event>
      5   9999  3.19816E-02  9.26538E+00 -1.00000E+00  1.99667E-01
      21    -1     0     0   502   501  0.000000000E+00  0.000000000E+00  6.137119382E+01  6.137119382E+01  0.000000000E+00  0.00000E+00  9.000E+00
      21    -1     0     0   501   512  0.000000000E+00  0.000000000E+00 -5.407368254E+02  5.407368254E+02  0.000000000E+00  0.00000E+00  9.000E+00
      25     1     1     2     0     0  1.107942737E+02  4.454331694E+01 -2.785224615E+02  3.278097615E+02  1.250000000E+02  0.00000E+00  9.000E+00
      25     1     1     2     0     0 -1.028738111E+02 -4.935097413E+01 -1.617003715E+02  2.340738127E+02  1.250000000E+02  0.00000E+00  9.000E+00
      21     1     1     2   502   512 -7.920462637E+00  4.807657192E+00 -3.914279862E+01  4.022444506E+01  0.000000000E+00  0.00000E+00  9.000E+00
#rwgt            1           1   3.0832949550786623E-002           9       16879           0
</event>
<event>
      5   9999  3.19816E-02  1.15975E+02 -1.00000E+00  1.21001E-01
      21    -1     0     0   511   501  0.000000000E+00  0.000000000E+00  3.078530701E+02  3.078530701E+02  0.000000000E+00  0.00000E+00  9.000E+00
      21    -1     0     0   501   502  0.000000000E+00  0.000000000E+00 -9.233629974E+02  9.233629974E+02  0.000000000E+00  0.00000E+00  9.000E+00
      25     1     1     2     0     0 -4.213701358E+01 -1.156985642E+02 -7.954244923E+02  8.145469960E+02  1.250000000E+02  0.00000E+00  9.000E+00
      25     1     1     2     0     0  1.580854538E+02  1.181575521E+02  1.887770296E+02  3.003564295E+02  1.250000000E+02  0.00000E+00  9.000E+00
      21     1     1     2   511   502 -1.159484402E+02 -2.458987880E+00 -8.862464645E+00  1.163126420E+02  3.115447604E-06  0.00000E+00  9.000E+00
#rwgt            1           1   2.5922830682936594E-002           9       17099           0
</event>
<event>
      5   9999  3.19816E-02  7.02184E+02 -1.00000E+00  9.48353E-02
       2    -1     0     0   502     0  0.000000000E+00  0.000000000E+00  2.253198033E+03  2.253198033E+03  0.000000000E+00  0.00000E+00  9.000E+00
      21    -1     0     0   501   502  0.000000000E+00  0.000000000E+00 -1.635117344E+03  1.635117344E+03  0.000000000E+00  0.00000E+00  9.000E+00
      25     1     1     2     0     0 -3.392105968E+01  3.334785784E+02  1.902864693E+03  1.936201859E+03  1.250000000E+02  0.00000E+00  9.000E+00
      25     1     1     2     0     0  3.424438239E+02  2.972951934E+02 -1.142650761E+03  1.235689267E+03  1.250000000E+02  0.00000E+00  9.000E+00
       2     1     1     2   501     0 -3.085227643E+02 -6.307737718E+02 -1.421332428E+02  7.164242500E+02  1.078959322E-05  0.00000E+00  9.000E+00
#rwgt            2          18   1.2347191874134823E-003           9       17414           0
</event>
<event>
      5   9999  3.19816E-02  1.07514E+02 -1.00000E+00  1.22429E-01
      21    -1     0     0   502   511  0.000000000E+00  0.000000000E+00  1.974354268E+03  1.974354268E+03  0.000000000E+00  0.00000E+00  9.000E+00
      21    -1     0     0   501   502  0.000000000E+00  0.000000000E+00 -6.128340676E+02  6.128340676E+02  0.000000000E+00  0.00000E+00  9.000E+00
      25     1     1     2     0     0 -4.541302966E+01 -5.222956395E+01 -5.026813439E+02  5.225933449E+02  1.250000000E+02  0.00000E+00  9.000E+00
      25     1     1     2     0     0 -4.482562264E+00  1.474639897E+02 -3.896117568E+00  1.934060530E+02  1.250000000E+02  0.00000E+00  9.000E+00
      21     1     1     2   501   511  4.989559192E+01 -9.523442573E+01  1.868097662E+03  1.871188938E+03  2.157918644E-05  0.00000E+00  9.000E+00
#rwgt            1           1   2.7979447396738039E-002           9       17433           0
</event>
<event>
      5   9999  3.19816E-02  1.71165E+02 -1.00000E+00  1.14166E-01
       2    -1     0     0   502     0  0.000000000E+00  0.000000000E+00  1.420029673E+03  1.420029673E+03  0.000000000E+00  0.00000E+00  9.000E+00
      21    -1     0     0   501   502  0.000000000E+00  0.000000000E+00 -1.888872295E+03  1.888872295E+03  0.000000000E+00  0.00000E+00  9.000E+00
      25     1     1     2     0     0 -3.409745157E+02  1.008576304E+03 -3.623020314E+02  1.131537690E+03  1.250000000E+02  0.00000E+00  9.000E+00
      25     1     1     2     0     0  1.698234385E+02 -1.010734327E+03 -8.975298127E+02  1.368067485E+03  1.250000000E+02  0.00000E+00  9.000E+00
       2     1     1     2   501     0  1.711510773E+02  2.158022775E+00  7.909892227E+02  8.092967928E+02  1.078959322E-05  0.00000E+00  9.000E+00
#rwgt            1           1   3.1257657759567369E-002           9       17495           0
</event>
<event>
      5   9999  3.19816E-02  1.54391E+02 -1.00000E+00  1.15899E-01
      21    -1     0     0   502   501  0.000000000E+00  0.000000000E+00  1.603472827E+03  1.603472827E+03  0.000000000E+00  0.00000E+00  9.000E+00
      21    -1     0     0   511   502  0.000000000E+00  0.000000000E+00 -6.331501524E+02  6.331501524E+02  0.000000000E+00  0.00000E+00  9.000E+00
      25     1     1     2     0     0 -1.877898852E+02 -4.964369605E+02  1.211109208E+03  1.328203753E+03  1.250000000E+02  0.00000E+00  9.000E+00
      25     1     1     2     0     0  2.898181180E+02  6.123114637E+02 -9.376453651E+01  6.952241786E+02  1.250000000E+02  0.00000E+00  9.000E+00
      21     1     1     2   511   501 -1.020282329E+02 -1.158745032E+02 -1.470219967E+02  2.131950476E+02  3.303624740E-06  0.00000E+00  9.000E+00
#rwgt            1           1   1.7128992245906541E-002           9       17596           0
</event>
<event>
      5   9999  3.19816E-02  1.21452E+01 -1.00000E+00  1.86480E-01
      21    -1     0     0   502   501  0.000000000E+00  0.000000000E+00  4.975141589E+02  4.975141589E+02  0.000000000E+00  0.00000E+00  9.000E+00
      21    -1     0     0   501   512  0.000000000E+00  0.000000000E+00 -5.938562488E+01  5.938562488E+01  0.000000000E+00  0.00000E+00  9.000E+00
      25     1     1     2     0     0  8.526536944E+01  4.503001287E+01  2.866785508E+02  3.272727865E+02  1.250000000E+02  0.00000E+00  9.000E+00
      25     1     1     2     0     0 -9.207375831E+01 -3.497253290E+01  1.471416946E+02  2.167402439E+02  1.250000000E+02  0.00000E+00  9.000E+00
      21     1     1     2   502   512  6.808388870E+00 -1.005747998E+01  4.308288605E+00  1.288675340E+01  1.884864366E-07  0.00000E+00  9.000E+00
#rwgt            1           1   2.9134046738879954E-002           9       17677           0
</event>
<event>
      5   9999  3.19816E-02  8.56073E+01 -1.00000E+00  1.26941E-01
      21    -1     0     0   502   511  0.000000000E+00  0.000000000E+00  3.798351516E+02  3.798351516E+02  0.000000000E+00  0.00000E+00  9.000E+00
      21    -1     0     0   501   502  0.000000000E+00  0.000000000E+00 -2.669238476E+02  2.669238476E+02  0.000000000E+00  0.00000E+00  9.000E+00
      25     1     1     2     0     0 -1.466224969E+02  2.246071256E+02  8.832890121E+01  3.088260226E+02  1.250000000E+02  0.00000E+00  9.000E+00
      25     1     1     2     0     0  6.271002362E+01 -2.076569188E+02  6.528942764E+00  2.504427481E+02  1.250000000E+02  0.00000E+00  9.000E+00
      21     1     1     2   501   511  8.391247324E+01 -1.695020677E+01  1.805346005E+01  8.749022857E+01  1.066240300E-06  0.00000E+00  9.000E+00
#rwgt            1           1   2.9245481568654759E-002           9       17787           0
</event>
<event>
      5   9999  3.19816E-02  1.36283E+02 -1.00000E+00  1.18069E-01
       2    -1     0     0   502     0  0.000000000E+00  0.000000000E+00  9.293905956E+02  9.293905956E+02  0.000000000E+00  0.00000E+00  9.000E+00
      21    -1     0     0   501   502  0.000000000E+00  0.000000000E+00 -1.853635216E+03  1.853635216E+03  0.000000000E+00  0.00000E+00  9.000E+00
      25     1     1     2     0     0  3.151090798E+02  9.927702132E+02 -1.111874021E+03  1.528651454E+03  1.250000000E+02  0.00000E+00  9.000E+00
      25     1     1     2     0     0 -2.010949992E+02 -1.067427522E+03  1.135357987E+02  1.099252515E+03  1.250000000E+02  0.00000E+00  9.000E+00
       2     1     1     2   501     0 -1.140140806E+02  7.465730895E+01  7.409360194E+01  1.551218431E+02  2.132480600E-06  0.00000E+00  9.000E+00
#rwgt            1           1   7.3730085543274079E-002           9       17843           0
</event>
<event>
      5   9999  3.19816E-02  4.42028E+02 -1.00000E+00  1.00397E-01
      21    -1     0     0   502   511  0.000000000E+00  0.000000000E+00  2.449771113E+03  2.449771113E+03  0.000000000E+00  0.00000E+00  9.000E+00
      21    -1     0     0   501   502  0.000000000E+00  0.000000000E+00 -4.508820335E+02  4.508820335E+02  0.000000000E+00  0.00000E+00  9.000E+00
      25     1     1     2     0     0  1.237745404E+02  4.379635384E+02  1.588398695E+03  1.657035790E+03  1.250000000E+02  0.00000E+00  9.000E+00
      25     1     1     2     0     0  1.748094538E+02 -1.120245393E+02 -3.129543064E+02  3.958197069E+02  1.250000000E+02  0.00000E+00  9.000E+00
      21     1     1     2   501   511 -2.985839942E+02 -3.259389991E+02  7.234446917E+02  8.477976496E+02  1.321449896E-05  0.00000E+00  9.000E+00
#rwgt            2          11   1.8008637077362515E-003           9       17945           0
</event>
<event>
      5   9999  3.19816E-02  3.05760E+01 -1.00000E+00  1.52468E-01
      21    -1     0     0   512   501  0.000000000E+00  0.000000000E+00  1.770075073E+03  1.770075073E+03  0.000000000E+00  0.00000E+00  9.000E+00
      21    -1     0     0   501   502  0.000000000E+00  0.000000000E+00 -2.010407046E+02  2.010407046E+02  0.000000000E+00  0.00000E+00  9.000E+00
      25     1     1     2     0     0  2.173194547E+02  4.666923738E+02  6.492489398E+02  8.379610390E+02  1.250000000E+02  0.00000E+00  9.000E+00
      25     1     1     2     0     0 -2.006724715E+02 -4.923394072E+02  5.978230173E+02  8.097437204E+02  1.250000000E+02  0.00000E+00  9.000E+00
      21     1     1     2   512   502 -1.664698318E+01  2.564703346E+01  3.219624114E+02  3.234110183E+02  5.394796609E-06  0.00000E+00  9.000E+00
#rwgt            1           1   3.0123669443649373E-002           9       17965           0
</event>
<event>
      5   9999  3.19816E-02  3.06654E+01 -1.00000E+00  1.52381E-01
      -1    -1     0     0     0   501  0.000000000E+00  0.000000000E+00  5.331046159E+02  5.331046159E+02  0.000000000E+00  0.00000E+00  9.000E+00
      21    -1     0     0   501   502  0.000000000E+00  0.000000000E+00 -1.568387478E+02  1.568387478E+02  0.000000000E+00  0.00000E+00  9.000E+00
      25     1     1     2     0     0  1.925096615E+02  1.351118189E+02  1.213491042E+02  2.926871683E+02  1.250000000E+02  0.00000E+00  9.000E+00
      25     1     1     2     0     0 -1.949538836E+02 -1.045440308E+02  1.667769945E+02  3.039342643E+02  1.250000000E+02  0.00000E+00  9.000E+00
      -1     1     1     2     0   502  2.444222031E+00 -3.056778809E+01  8.813976940E+01  9.332193118E+01  1.348699152E-06  0.00000E+00  9.000E+00
#rwgt            1           1   2.7003313510257389E-002           9       18100           0
</event>
<event>
      5   9999  3.19816E-02  6.33805E+01 -1.00000E+00  1.33444E-01
      21    -1     0     0   502   501  0.000000000E+00  0.000000000E+00  4.468058866E+01  4.468058866E+01  0.000000000E+00  0.00000E+00  9.000E+00
      21    -1     0     0   511   502  0.000000000E+00  0.000000000E+00 -1.060298543E+03  1.060298543E+03  0.000000000E+00  0.00000E+00  9.000E+00
      25     1     1     2     0     0  8.952171043E+01  4.642470974E+01 -4.216717778E+02  4.512222053E+02  1.250000000E+02  0.00000E+00  9.000E+00
      25     1     1     2     0     0 -7.574523220E+01 -1.082899028E+02 -2.830175177E+02  3.364341817E+02  1.250000000E+02  0.00000E+00  9.000E+00
      21     1     1     2   511   501 -1.377647823E+01  6.186519306E+01 -3.109286584E+02  3.173227443E+02  5.394796609E-06  0.00000E+00  9.000E+00
#rwgt            1           1   2.5409788744871983E-002           9       18203           0
</event>
<event>
      5   9999  3.19816E-02  2.79437E+02 -1.00000E+00  1.06604E-01
      21    -1     0     0   502   501  0.000000000E+00  0.000000000E+00  4.716219857E+02  4.716219857E+02  0.000000000E+00  0.00000E+00  9.000E+00
      21    -1     0     0   512   502  0.000000000E+00  0.000000000E+00 -1.029461897E+03  1.029461897E+03  0.000000000E+00  0.00000E+00  9.000E+00
      25     1     1     2     0     0 -5.057703370E+02 -3.906398754E+02 -3.013481465E+01  6.518713471E+02  1.250000000E+02  0.00000E+00  9.000E+00
      25     1     1     2     0     0  3.027066843E+02  1.986765217E+02 -3.436174030E+02  5.145887840E+02  1.250000000E+02  0.00000E+00  9.000E+00
      21     1     1     2   512   501  2.030636527E+02  1.919633538E+02 -1.840876939E+02  3.346237518E+02  3.814697266E-06  0.00000E+00  9.000E+00
#rwgt            1           1   2.9302793060794034E-002           9       18259           0
</event>
<event>
      5   9999  3.19816E-02  2.10244E+02 -1.00000E+00  1.10864E-01
      21    -1     0     0   502   501  0.000000000E+00  0.000000000E+00  2.393824987E+02  2.393824987E+02  0.000000000E+00  0.00000E+00  9.000E+00
      21    -1     0     0   511   502  0.000000000E+00  0.000000000E+00 -1.052460392E+03  1.052460392E+03  0.000000000E+00  0.00000E+00  9.000E+00
      25     1     1     2     0     0 -2.108373764E+02  3.211984962E+02 -1.252352507E+02  4.230008762E+02  1.250000000E+02  0.00000E+00  9.000E+00
      25     1     1     2     0     0  3.424253355E+00 -2.868117808E+02 -3.372246296E+02  4.600197538E+02  1.250000000E+02  0.00000E+00  9.000E+00
      21     1     1     2   511   501  2.074131231E+02 -3.438671539E+01 -3.506180133E+02  4.088222610E+02  7.629394531E-06  0.00000E+00  9.000E+00
#rwgt            2          11   2.8807649248656238E-003           9       18336           0
</event>
<event>
      5   9999  3.19816E-02  9.07739E+01 -1.00000E+00  1.25749E-01
      21    -1     0     0   502   501  0.000000000E+00  0.000000000E+00  1.349109774E+02  1.349109774E+02  0.000000000E+00  0.00000E+00  9.000E+00
      21    -1     0     0   501   512  0.000000000E+00  0.000000000E+00 -5.731985255E+02  5.731985255E+02  0.000000000E+00  0.00000E+00  9.000E+00
      25     1     1     2     0     0  6.114361112E+01 -1.352572062E+02 -3.281977835E+02  3.812765901E+02  1.250000000E+02  0.00000E+00  9.000E+00
      25     1     1     2     0     0 -1.297498008E+02  7.581745742E+01 -1.604640863E+01  1.961269612E+02  1.250000000E+02  0.00000E+00  9.000E+00
      21     1     1     2   502   512  6.860618971E+01  5.943974875E+01 -9.404335598E+01  1.307059517E+02  1.907348633E-06  0.00000E+00  9.000E+00
#rwgt            1           1   2.8518730890968340E-002           9       18371           0
</event>
<event>
      5   9999  3.19816E-02  1.96574E+02 -1.00000E+00  1.11922E-01
      21    -1     0     0   502   501  0.000000000E+00  0.000000000E+00  1.855233557E+03  1.855233557E+03  0.000000000E+00  0.00000E+00  9.000E+00
       1    -1     0     0   501     0  0.000000000E+00  0.000000000E+00 -7.889455727E+02  7.889455727E+02  0.000000000E+00  0.00000E+00  9.000E+00
      25     1     1     2     0     0 -1.117741756E+03  6.284391048E+01  8.824348043E+02  1.430947998E+03  1.250000000E+02  0.00000E+00  9.000E+00
      25     1     1     2     0     0  9.713346122E+02  6.832820445E+01  2.363360972E+02  1.009771966E+03  1.250000000E+02  0.00000E+00  9.000E+00
       1     1     1     2   502     0  1.464071436E+02 -1.311721149E+02 -5.248291722E+01  2.034591655E+02  1.168007728E-06  0.00000E+00  9.000E+00
#rwgt            2          12   2.2606622345432853E-004           9       18438           0
</event>
<event>
      5   9999  3.19816E-02  5.90816E+00 -1.00000E+00  2.26517E-01
      21    -1     0     0   502   511  0.000000000E+00  0.000000000E+00  1.033004860E+02  1.033004860E+02  0.000000000E+00  0.00000E+00  9.000E+00
      21    -1     0     0   501   502  0.000000000E+00  0.000000000E+00 -1.893910913E+03  1.893910913E+03  0.000000000E+00  0.00000E+00  9.000E+00
      25     1     1     2     0     0 -3.083563235E+02  7.604701826E+00 -1.443398127E+03  1.481271281E+03  1.250000000E+02  0.00000E+00  9.000E+00
      25     1     1     2     0     0  3.028555146E+02 -9.760495578E+00 -3.688857242E+02  4.934758429E+02  1.250000000E+02  0.00000E+00  9.000E+00
      21     1     1     2   501   511  5.500808872E+00  2.155793752E+00  2.167342428E+01  2.246427531E+01  1.327458468E-06  0.00000E+00  9.000E+00
#rwgt            1           1   3.0578979256568425E-002           9       18457           0
</event>
<event>
      5   9999  3.19816E-02  1.38509E+02 -1.00000E+00  1.17782E-01
      21    -1     0     0   502   501  0.000000000E+00  0.000000000E+00  1.099361708E+03  1.099361708E+03  0.000000000E+00  0.00000E+00  9.000E+00
      21    -1     0     0   501   512  0.000000000E+00  0.000000000E+00 -3.211791288E+02  3.211791288E+02  0.000000000E+00  0.00000E+00  9.000E+00
      25     1     1     2     0     0  2.986229201E+02  3.064804437E+02  4.033392627E+02  6.011767391E+02  1.250000000E+02  0.00000E+00  9.000E+00
      25     1     1     2     0     0 -4.359815117E+02 -2.886650609E+02  4.104065753E+02  6.763622942E+02  1.250000000E+02  0.00000E+00  9.000E+00
      21     1     1     2   502   512  1.373585917E+02 -1.781538281E+01 -3.556325836E+01  1.430018039E+02  3.269030857E-06  0.00000E+00  9.000E+00
#rwgt            1           1   2.9683687806982897E-002           9       18737           0
</event>
<event>
      5   9999  3.19816E-02  7.07225E+01 -1.00000E+00  1.30995E-01
      21    -1     0     0   502   501  0.000000000E+00  0.000000000E+00  6.829986723E+01  6.829986723E+01  0.000000000E+00  0.00000E+00  9.000E+00
      21    -1     0     0   511   502  0.000000000E+00  0.000000000E+00 -2.772751329E+03  2.772751329E+03  0.000000000E+00  0.00000E+00  9.000E+00
      25     1     1     2     0     0  1.502642127E+02 -9.721218474E+01 -3.294142094E+02  3.951813050E+02  1.250000000E+02  0.00000E+00  9.000E+00
      25     1     1     2     0     0 -1.349432154E+02  1.662552317E+02 -4.070926049E+02  4.766548672E+02  1.250000000E+02  0.00000E+00  9.000E+00
      21     1     1     2   511   501 -1.532099728E+01 -6.904304699E+01 -1.967944648E+03  1.969215024E+03  3.051757812E-05  0.00000E+00  9.000E+00
#rwgt            1           1   1.6743930517519146E-002           9       18819           0
</event>
<event>
      5   9999  3.19816E-02  4.33308E+02 -1.00000E+00  1.00651E-01
      21    -1     0     0   502   501  0.000000000E+00  0.000000000E+00  2.710331926E+02  2.710331926E+02  0.000000000E+00  0.00000E+00  9.000E+00
      21    -1     0     0   501   512  0.000000000E+00  0.000000000E+00 -1.080568177E+03  1.080568177E+03  0.000000000E+00  0.00000E+00  9.000E+00
      25     1     1     2     0     0 -2.879770078E+01 -5.078963183E+01 -5.887966367E+01  1.500023635E+02  1.250000000E+02  0.00000E+00  9.000E+00
      25     1     1     2     0     0 -6.529895936E+01  4.737576198E+02 -3.093241919E+02  5.831095027E+02  1.250000000E+02  0.00000E+00  9.000E+00
      21     1     1     2   502   512  9.409666014E+01 -4.229679880E+02 -4.413311285E+02  6.184895030E+02  5.394796609E-06  0.00000E+00  9.000E+00
#rwgt            1           1   3.0021026718799023E-002           9       18894           0
</event>
<event>
      5   9999  3.19816E-02  9.15934E+01 -1.00000E+00  1.25568E-01
      21    -1     0     0   511   501  0.000000000E+00  0.000000000E+00  1.610913682E+03  1.610913682E+03  0.000000000E+00  0.00000E+00  9.000E+00
      21    -1     0     0   501   502  0.000000000E+00  0.000000000E+00 -7.773331455E+02  7.773331455E+02  0.000000000E+00  0.00000E+00  9.000E+00
      25     1     1     2     0     0 -4.890835543E+02 -3.846237508E+02  6.106014450E+01  6.375668545E+02  1.250000000E+02  0.00000E+00  9.000E+00
      25     1     1     2     0     0  5.782067905E+02  4.057519534E+02 -2.228050749E+02  7.511490143E+02  1.250000000E+02  0.00000E+00  9.000E+00
      21     1     1     2   511   502 -8.912323626E+01 -2.112820264E+01  9.953254671E+02  9.995309588E+02  1.078959322E-05  0.00000E+00  9.000E+00
#rwgt            1           1   2.3134668706667135E-002           9       18926           0
</event>
<event>
      5   9999  3.19816E-02  2.87952E+01 -1.00000E+00  1.54287E-01
      21    -1     0     0   502   501  0.000000000E+00  0.000000000E+00  1.064562941E+02  1.064562941E+02  0.000000000E+00  0.00000E+00  9.000E+00
       2    -1     0     0   501     0  0.000000000E+00  0.000000000E+00 -8.124027657E+02  8.124027657E+02  0.000000000E+00  0.00000E+00  9.000E+00
      25     1     1     2     0     0 -9.184817476E+01 -1.431427698E+01 -2.778896246E+02  3.185728004E+02  1.250000000E+02  0.00000E+00  9.000E+00
      25     1     1     2     0     0  6.630130945E+01  1.028093971E+00  2.722548418E+01  1.440942317E+02  1.250000000E+02  0.00000E+00  9.000E+00
       2     1     1     2   502     0  2.554686532E+01  1.328618301E+01 -4.552823313E+02  4.561920277E+02  5.394796609E-06  0.00000E+00  9.000E+00
#rwgt            1           1   2.7050440449451998E-002           9       19017           0
</event>
<event>
      5   9999  3.19816E-02  3.20508E+01 -1.00000E+00  1.51072E-01
      21    -1     0     0   502   501  0.000000000E+00  0.000000000E+00  8.551850283E+01  8.551850283E+01  0.000000000E+00  0.00000E+00  9.000E+00
      21    -1     0     0   501   511  0.000000000E+00  0.000000000E+00 -1.023732171E+03  1.023732171E+03  0.000000000E+00  0.00000E+00  9.000E+00
      25     1     1     2     0     0 -1.425826622E+02  1.838124403E+02 -3.209859723E+02  4.156607068E+02  1.250000000E+02  0.00000E+00  9.000E+00
      25     1     1     2     0     0  1.742922722E+02 -1.791483928E+02 -5.084435439E+02  5.801825403E+02  1.250000000E+02  0.00000E+00  9.000E+00
      21     1     1     2   502   511 -3.170960994E+01 -4.664047534E+00 -1.087841524E+02  1.134074271E+02  1.348699152E-06  0.00000E+00  9.000E+00
#rwgt            1           1   2.8104962581982435E-002           9       19123           0
</event>
<event>
      5   9999  3.19816E-02  9.31163E+01 -1.00000E+00  1.25237E-01
      21    -1     0     0   502   501  0.000000000E+00  0.000000000E+00  1.067652388E+03  1.067652388E+03  0.000000000E+00  0.00000E+00  9.000E+00
      21    -1     0     0   512   502  0.000000000E+00  0.000000000E+00 -2.434595053E+02  2.434595053E+02  0.000000000E+00  0.00000E+00  9.000E+00
      25     1     1     2     0     0  1.408182038E+02  1.133670332E+02  9.662332891E+02  9.909155462E+02  1.250000000E+02  0.00000E+00  9.000E+00
      25     1     1     2     0     0 -4.770317761E+01 -1.128814054E+02 -3.534729516E+01  1.785839750E+02  1.250000000E+02  0.00000E+00  9.000E+00
      21     1     1     2   512   501 -9.311502619E+01 -4.856277471E-01 -1.066931112E+02  1.416123720E+02  4.672030912E-06  0.00000E+00  9.000E+00
#rwgt            1           1   2.7056504308744383E-002           9       19229           0
</event>
<event>
      5   9999  3.19816E-02  1.68035E+01 -1.00000E+00  1.72861E-01
      21    -1     0     0   502   511  0.000000000E+00  0.000000000E+00  5.967762196E+02  5.967762196E+02  0.000000000E+00  0.00000E+00  9.000E+00
      21    -1     0     0   501   502  0.000000000E+00  0.000000000E+00 -5.972259659E+01  5.972259659E+01  0.000000000E+00  0.00000E+00  9.000E+00
      25     1     1     2     0     0  6.379362939E+01 -9.719428651E+01  3.166322164E+02  3.597183856E+02  1.250000000E+02  0.00000E+00  9.000E+00
      25     1     1     2     0     0 -6.197827520E+01  1.138994838E+02  1.885453024E+02  2.607464862E+02  1.250000000E+02  0.00000E+00  9.000E+00
      21     1     1     2   501   511 -1.815354193E+00 -1.670519731E+01  3.187610416E+01  3.603394434E+01  4.768371582E-07  0.00000E+00  9.000E+00
#rwgt            1           1   2.6889128749482773E-002           9       19297           0
</event>
<event>
      5   9999  3.19816E-02  2.51363E+02 -1.00000E+00  1.08150E-01
      21    -1     0     0   512   501  0.000000000E+00  0.000000000E+00  4.676236117E+02  4.676236117E+02  0.000000000E+00  0.00000E+00  9.000E+00
      21    -1     0     0   501   502  0.000000000E+00  0.000000000E+00 -2.194887574E+03  2.194887574E+03  0.000000000E+00  0.00000E+00  9.000E+00
      25     1     1     2     0     0  5.103434154E+02 -6.889128064E+01 -1.847844889E+03  1.922329874E+03  1.250000000E+02  0.00000E+00  9.000E+00
      25     1     1     2     0     0 -3.441201531E+02 -1.196636651E+02  2.482569855E+02  4.582516812E+02  1.250000000E+02  0.00000E+00  9.000E+00
      21     1     1     2   512   502 -1.662232623E+02  1.885549458E+02 -1.276760586E+02  2.819296303E+02  4.862803949E-06  0.00000E+00  9.000E+00
#rwgt            1           1   3.2262097760733681E-002           9       19455           0
</event>
<event>
      5   9999  3.19816E-02  6.63948E+01 -1.00000E+00  1.32394E-01
      21    -1     0     0   502   501  0.000000000E+00  0.000000000E+00  1.272608454E+03  1.272608454E+03  0.000000000E+00  0.00000E+00  9.000E+00
      21    -1     0     0   501   511  0.000000000E+00  0.000000000E+00 -1.283469555E+03  1.283469555E+03  0.000000000E+00  0.00000E+00  9.000E+00
      25     1     1     2     0     0 -5.397038577E+02  2.489134189E+02  3.914905445E+02  7.225842446E+02  1.250000000E+02  0.00000E+00  9.000E+00
      25     1     1     2     0     0  5.429504040E+02 -3.152287880E+02  5.710449311E+02  8.578354407E+02  1.250000000E+02  0.00000E+00  9.000E+00
      21     1     1     2   502   511 -3.246546237E+00  6.631536910E+01 -9.733965770E+02  9.756583236E+02  1.868812365E-05  0.00000E+00  9.000E+00
#rwgt            1           1   2.9049921702671254E-002           9       19515           0
</event>
<event>
      5   9999  3.19816E-02  2.36413E+02 -1.00000E+00  1.09066E-01
      21    -1     0     0   502   501  0.000000000E+00  0.000000000E+00  4.563248787E+02  4.563248787E+02  0.000000000E+00  0.00000E+00  9.000E+00
      21    -1     0     0   512   502  0.000000000E+00  0.000000000E+00 -1.073902769E+03  1.073902769E+03  0.000000000E+00  0.00000E+00  9.000E+00
      25     1     1     2     0     0  5.057713392E+02 -1.110802668E+02 -3.474895015E+02  6.360168449E+02  1.250000000E+02  0.00000E+00  9.000E+00
      25     1     1     2     0     0 -4.694592881E+02  3.446882806E+02 -1.025130925E+02  6.044302839E+02  1.250000000E+02  0.00000E+00  9.000E+00
      21     1     1     2   512   501 -3.631205109E+01 -2.336080138E+02 -1.675752957E+02  2.897805185E+02  3.814697266E-06  0.00000E+00  9.000E+00
#rwgt            2          11   4.7534831535679702E-003           9       19666           0
</event>
<event>
      5   9999  3.19816E-02  8.27870E+01 -1.00000E+00  1.27634E-01
      21    -1     0     0   502   501  0.000000000E+00  0.000000000E+00  9.668707556E+02  9.668707556E+02  0.000000000E+00  0.00000E+00  9.000E+00
      21    -1     0     0   511   502  0.000000000E+00  0.000000000E+00 -4.258757243E+02  4.258757243E+02  0.000000000E+00  0.00000E+00  9.000E+00
      25     1     1     2     0     0 -8.964391735E+01 -2.095590310E+02  5.099945232E+02  5.724250458E+02  1.250000000E+02  0.00000E+00  9.000E+00
      25     1     1     2     0     0  7.077552386E+01  1.289508985E+02  3.989374875E+02  4.431857714E+02  1.250000000E+02  0.00000E+00  9.000E+00
      21     1     1     2   511   501  1.886839349E+01  8.060813249E+01 -3.679369794E+02  3.771356627E+02  0.000000000E+00  0.00000E+00  9.000E+00
#rwgt            1           1   2.4390467443577035E-002           9       19686           0
</event>
<event>
      5   9999  3.19816E-02  3.10444E+01 -1.00000E+00  1.52015E-01
      21    -1     0     0   512   501  0.000000000E+00  0.000000000E+00  2.402701416E+02  2.402701416E+02  0.000000000E+00  0.00000E+00  9.000E+00
      21    -1     0     0   501   502  0.000000000E+00  0.000000000E+00 -1.211991755E+03  1.211991755E+03  0.000000000E+00  0.00000E+00  9.000E+00
      25     1     1     2     0     0 -5.708442354E+01  1.922631205E+01 -1.140933623E+03  1.149340165E+03  1.250000000E+02  0.00000E+00  9.000E+00
      25     1     1     2     0     0  6.960424436E+01 -4.763420807E+01  2.190198603E+01  1.523760664E+02  1.250000000E+02  0.00000E+00  9.000E+00
      21     1     1     2   512   502 -1.251982082E+01  2.840789603E+01  1.473100233E+02  1.505456656E+02  0.000000000E+00  0.00000E+00  9.000E+00
#rwgt            1           1   2.9146071458170355E-002           9       19747           0
</event>
<event>
      5   9999  3.19816E-02  1.76382E+02 -1.00000E+00  1.13672E-01
      21    -1     0     0   502   501  0.000000000E+00  0.000000000E+00  1.358660231E+03  1.358660231E+03  0.000000000E+00  0.00000E+00  9.000E+00
      21    -1     0     0   501   511  0.000000000E+00  0.000000000E+00 -5.923923371E+02  5.923923371E+02  0.000000000E+00  0.00000E+00  9.000E+00
      25     1     1     2     0     0  1.546250389E+01  5.058940182E+02  3.898572394E+02  6.509850335E+02  1.250000000E+02  0.00000E+00  9.000E+00
      25     1     1     2     0     0 -1.879479416E+02 -4.690221030E+02  7.348857669E+02  9.005488617E+02  1.250000000E+02  0.00000E+00  9.000E+00
      21     1     1     2   502   511  1.724854377E+02 -3.687191520E+01 -3.584751120E+02  3.995186733E+02  3.814697266E-06  0.00000E+00  9.000E+00
#rwgt            2          11   4.6417342645758567E-003           9       20070           0
</event>
<event>
      5   9999  3.19816E-02  5.52785E+01 -1.00000E+00  1.36633E-01
      21    -1     0     0   502   512  0.000000000E+00  0.000000000E+00  3.279662599E+02  3.279662599E+02  0.000000000E+00  0.00000E+00  9.000E+00
      21    -1     0     0   501   502  0.000000000E+00  0.000000000E+00 -1.077425107E+03  1.077425107E+03  0.000000000E+00  0.00000E+00  9.000E+00
      25     1     1     2     0     0  3.637365256E+02 -1.650625482E+02 -7.882739837E+02  8.924969345E+02  1.250000000E+02  0.00000E+00  9.000E+00
      25     1     1     2     0     0 -4.052644409E+02  1.285776970E+02  7.116770953E+01  4.488444431E+02  1.250000000E+02  0.00000E+00  9.000E+00
      21     1     1     2   501   512  4.152791530E+01  3.648485116E+01 -3.235257257E+01  6.404998880E+01  1.168007728E-06  0.00000E+00  9.000E+00
#rwgt            1           1   2.9546625601523192E-002           9       20105           0
</event>
<event>
      5   9999  3.19816E-02  7.88574E+01 -1.00000E+00  1.28653E-01
      21    -1     0     0   511   501  0.000000000E+00  0.000000000E+00  4.248140768E+02  4.248140768E+02  0.000000000E+00  0.00000E+00  9.000E+00
      21    -1     0     0   501   502  0.000000000E+00  0.000000000E+00 -1.492121764E+03  1.492121764E+03  0.000000000E+00  0.00000E+00  9.000E+00
      25     1     1     2     0     0 -5.795915580E+02  1.640982986E-01 -4.982457007E+02  7.744676748E+02  1.250000000E+02  0.00000E+00  9.000E+00
      25     1     1     2     0     0  5.585560958E+02  7.583589609E+01 -7.491767697E+02  9.458471481E+02  1.250000000E+02  0.00000E+00  9.000E+00
      21     1     1     2   511   502  2.103546221E+01 -7.599999439E+01  1.801147829E+02  1.966210183E+02  4.672030912E-06  0.00000E+00  9.000E+00
#rwgt            2          11   4.0422692632253046E-003           9       20259           0
</event>
<event>
      5   9999  3.19816E-02  1.00814E+02 -1.00000E+00  1.23670E-01
      21    -1     0     0   502   512  0.000000000E+00  0.000000000E+00  1.308679375E+02  1.308679375E+02  0.000000000E+00  0.00000E+00  9.000E+00
      21    -1     0     0   501   502  0.000000000E+00  0.000000000E+00 -1.220127722E+03  1.220127722E+03  0.000000000E+00  0.00000E+00  9.000E+00
      25     1     1     2     0     0 -2.188669008E+02  2.256214013E+02 -5.763847012E+02  6.683203279E+02  1.250000000E+02  0.00000E+00  9.000E+00
      25     1     1     2     0     0  1.439735757E+02 -2.931079941E+02 -4.034563903E+02  5.338939460E+02  1.250000000E+02  0.00000E+00  9.000E+00
      21     1     1     2   501   512  7.489332504E+01  6.748659286E+01 -1.094186934E+02  1.487813860E+02  1.907348633E-06  0.00000E+00  9.000E+00
#rwgt            1           1   2.9560507860828856E-002           9       20309           0
</event>
<event>
      5   9999  3.19816E-02  1.36500E+02 -1.00000E+00  1.18040E-01
       2    -1     0     0   502     0  0.000000000E+00  0.000000000E+00  1.406359995E+03  1.406359995E+03  0.000000000E+00  0.00000E+00  9.000E+00
      21    -1     0     0   501   502  0.000000000E+00  0.000000000E+00 -1.674441592E+02  1.674441592E+02  0.000000000E+00  0.00000E+00  9.000E+00
      25     1     1     2     0     0 -2.811803921E+02 -1.587307824E+02  1.202725255E+02  3.665356116E+02  1.250000000E+02  0.00000E+00  9.000E+00
      25     1     1     2     0     0  1.842161861E+02  6.265661521E+01  3.077300384E+02  3.849470498E+02  1.250000000E+02  0.00000E+00  9.000E+00
       2     1     1     2   501     0  9.696420607E+01  9.607416723E+01  8.109132723E+02  8.223214931E+02  0.000000000E+00  0.00000E+00  9.000E+00
#rwgt            1           1   2.6683925058448375E-002           9       20385           0
</event>
<event>
      5   9999  3.19816E-02  2.71611E+01 -1.00000E+00  1.56100E-01
       1    -1     0     0   502     0  0.000000000E+00  0.000000000E+00  1.594986975E+02  1.594986975E+02  0.000000000E+00  0.00000E+00  9.000E+00
      21    -1     0     0   501   502  0.000000000E+00  0.000000000E+00 -9.859801786E+02  9.859801786E+02  0.000000000E+00  0.00000E+00  9.000E+00
      25     1     1     2     0     0  1.942089485E+02  1.787813675E+02 -2.340631498E+02  3.742865896E+02  1.250000000E+02  0.00000E+00  9.000E+00
      25     1     1     2     0     0 -1.982197539E+02 -1.519180038E+02 -6.500380320E+02  7.074917623E+02  1.250000000E+02  0.00000E+00  9.000E+00
       1     1     1     2   501     0  4.010805395E+00 -2.686336374E+01  5.761970069E+01  6.370052417E+01  9.536743164E-07  0.00000E+00  9.000E+00
#rwgt            1           1   2.4361905358972244E-002           9       20442           0
</event>
<event>
      5   9999  3.19816E-02  5.58156E+01 -1.00000E+00  1.36403E-01
      21    -1     0     0   511   501  0.000000000E+00  0.000000000E+00  2.050741215E+02  2.050741215E+02  0.000000000E+00  0.00000E+00  9.000E+00
      21    -1     0     0   501   502  0.000000000E+00  0.000000000E+00 -5.347354731E+02  5.347354731E+02  0.000000000E+00  0.00000E+00  9.000E+00
      25     1     1     2     0     0  1.504897715E+02  1.165372733E+01 -1.321002284E+01  1.964242485E+02  1.250000000E+02  0.00000E+00  9.000E+00
      25     1     1     2     0     0 -2.024177541E+02 -3.212003806E+01 -3.857839552E+02  4.543774907E+02  1.250000000E+02  0.00000E+00  9.000E+00
      21     1     1     2   511   502  5.192798253E+01  2.046631073E+01  6.933262642E+01  8.900785545E+01  9.536743164E-07  0.00000E+00  9.000E+00
#rwgt            1           1   2.5068784914119589E-002           9       20610           0
</event>
<event>
      5   9999  3.19816E-02  2.21675E+02 -1.00000E+00  1.10045E-01
      21    -1     0     0   502   501  0.000000000E+00  0.000000000E+00  2.642330021E+02  2.642330021E+02  0.000000000E+00  0.00000E+00  9.000E+00
      21    -1     0     0   512   502  0.000000000E+00  0.000000000E+00 -8.717579463E+02  8.717579463E+02  0.000000000E+00  0.00000E+00  9.000E+00
      25     1     1     2     0     0 -2.847702037E+02  3.512929562E+01 -2.907985014E+02  4.272199723E+02  1.250000000E+02  0.00000E+00  9.000E+00
      25     1     1     2     0     0  3.214748579E+02  1.834856544E+02 -1.105322956E+02  4.060239623E+02  1.250000000E+02  0.00000E+00  9.000E+00
      21     1     1     2   512   501 -3.670465424E+01 -2.186149500E+02 -2.061941472E+02  3.027470138E+02  6.031565972E-06  0.00000E+00  9.000E+00
#rwgt            2          11   3.4939760463286737E-003           9       20744           0
</event>
<event>
      5   9999  3.19816E-02  1.02201E+02 -1.00000E+00  1.23404E-01
      21    -1     0     0   511   501  0.000000000E+00  0.000000000E+00  2.578967825E+02  2.578967825E+02  0.000000000E+00  0.00000E+00  9.000E+00
      21    -1     0     0   501   502  0.000000000E+00  0.000000000E+00 -3.606490196E+02  3.606490196E+02  0.000000000E+00  0.00000E+00  9.000E+00
      25     1     1     2     0     0  7.531403268E+01 -1.428988869E+02  8.828138155E+01  2.225104441E+02  1.250000000E+02  0.00000E+00  9.000E+00
      25     1     1     2     0     0 -1.617868273E+02  8.842419039E+01 -1.916216139E+02  2.938327039E+02  1.250000000E+02  0.00000E+00  9.000E+00
      21     1     1     2   511   502  8.647279466E+01  5.447469653E+01  5.879953346E-01  1.022026542E+02  1.585066152E-06  0.00000E+00  9.000E+00
#rwgt            1           1   2.8330600260278938E-002           9       20764           0
</event>
<event>
      5   9999  3.19816E-02  3.76606E+01 -1.00000E+00  1.46482E-01
      21    -1     0     0   512   501  0.000000000E+00  0.000000000E+00  1.985613149E+03  1.985613149E+03  0.000000000E+00  0.00000E+00  9.000E+00
      21    -1     0     0   501   502  0.000000000E+00  0.000000000E+00 -6.397227563E+02  6.397227563E+02  0.000000000E+00  0.00000E+00  9.000E+00
      25     1     1     2     0     0 -9.532207756E+02 -1.728025550E+02  2.557722943E+02  1.009720276E+03  1.250000000E+02  0.00000E+00  9.000E+00
      25     1     1     2     0     0  9.370976121E+02  2.068372752E+02  6.317665809E+02  1.155719519E+03  1.250000000E+02  0.00000E+00  9.000E+00
      21     1     1     2   512   502  1.612316344E+01 -3.403472023E+01  4.583515173E+02  4.598961100E+02  0.000000000E+00  0.00000E+00  9.000E+00
#rwgt            1           1   3.8043488477431324E-002           9       20811           0
</event>
<event>
      5   9999  3.19816E-02  6.21093E+01 -1.00000E+00  1.33906E-01
      21    -1     0     0   511   501  0.000000000E+00  0.000000000E+00  9.312661298E+02  9.312661298E+02  0.000000000E+00  0.00000E+00  9.000E+00
      21    -1     0     0   501   502  0.000000000E+00  0.000000000E+00 -1.570872545E+02  1.570872545E+02  0.000000000E+00  0.00000E+00  9.000E+00
      25     1     1     2     0     0  2.019009847E+02  8.801472688E+01  7.222299913E+02  7.653442102E+02  1.250000000E+02  0.00000E+00  9.000E+00
      25     1     1     2     0     0 -1.456143103E+02 -6.175871902E+01 -4.623099989E+01  2.068331987E+02  1.250000000E+02  0.00000E+00  9.000E+00
      21     1     1     2   511   502 -5.628667438E+01 -2.625600786E+01  9.817988384E+01  1.161759754E+02  1.348699152E-06  0.00000E+00  9.000E+00
#rwgt            1           1   2.8823032186677370E-002           9       20944           0
</event>
<event>
      5   9999  3.19816E-02  1.54045E+01 -1.00000E+00  1.76302E-01
      21    -1     0     0   502   501  0.000000000E+00  0.000000000E+00  1.766843134E+02  1.766843134E+02  0.000000000E+00  0.00000E+00  9.000E+00
      21    -1     0     0   501   512  0.000000000E+00  0.000000000E+00 -9.131125348E+02  9.131125348E+02  0.000000000E+00  0.00000E+00  9.000E+00
      25     1     1     2     0     0  7.759085947E+01 -1.747918437E+02  7.159505933E+01  2.394230202E+02  1.250000000E+02  0.00000E+00  9.000E+00
      25     1     1     2     0     0 -7.340345329E+01  1.896162916E+02 -6.652289331E+02  7.067509734E+02  1.250000000E+02  0.00000E+00  9.000E+00
      21     1     1     2   502   512 -4.187406180E+00 -1.482444785E+01 -1.427943476E+02  1.436228545E+02  2.697398305E-06  0.00000E+00  9.000E+00
#rwgt            1           1   2.9865625605134227E-002           9       21082           0
</event>
<event>
      5   9999  3.19816E-02  3.44511E+01 -1.00000E+00  1.48981E-01
      21    -1     0     0   502   511  0.000000000E+00  0.000000000E+00  8.800654664E+02  8.800654664E+02  0.000000000E+00  0.00000E+00  9.000E+00
      21    -1     0     0   501   502  0.000000000E+00  0.000000000E+00 -1.945517957E+02  1.945517957E+02  0.000000000E+00  0.00000E+00  9.000E+00
      25     1     1     2     0     0 -2.729702742E+02 -2.179220223E+02  1.606478997E+02  4.042715994E+02  1.250000000E+02  0.00000E+00  9.000E+00
      25     1     1     2     0     0  2.602006322E+02  2.499191648E+02  4.915237535E+02  6.224022479E+02  1.250000000E+02  0.00000E+00  9.000E+00
      21     1     1     2   501   511  1.276964202E+01 -3.199714255E+01  3.334201747E+01  4.794341475E+01  4.768371582E-07  0.00000E+00  9.000E+00
#rwgt            1           1   2.7911963229486435E-002           9       21333           0
</event>
<event>
      5   9999  3.19816E-02  1.34683E+02 -1.00000E+00  1.18278E-01
      21    -1     0     0   512   501  0.000000000E+00  0.000000000E+00  3.137742474E+02  3.137742474E+02  0.000000000E+00  0.00000E+00  9.000E+00
      21    -1     0     0   501   502  0.000000000E+00  0.000000000E+00 -7.559484394E+02  7.559484394E+02  0.000000000E+00  0.00000E+00  9.000E+00
      25     1     1     2     0     0  7.323655623E+01  1.347165844E+02  2.121999455E+02  2.901137159E+02  1.250000000E+02  0.00000E+00  9.000E+00
      25     1     1     2     0     0 -1.205975325E+02 -8.635642459E+00 -6.152540382E+02  6.393597349E+02  1.250000000E+02  0.00000E+00  9.000E+00
      21     1     1     2   512   502  4.736097623E+01 -1.260809420E+02 -3.912009935E+01  1.402492359E+02  1.784161275E-06  0.00000E+00  9.000E+00
#rwgt            1           1   2.6787581431204643E-002           9       21495           0
</event>
<event>
      5   9999  3.19816E-02  8.80730E+01 -1.00000E+00  1.26361E-01
      21    -1     0     0   502   501  0.000000000E+00  0.000000000E+00  1.513596180E+02  1.513596180E+02  0.000000000E+00  0.00000E+00  9.000E+00
      21    -1     0     0   511   502  0.000000000E+00  0.000000000E+00 -1.839825281E+03  1.839825281E+03  0.000000000E+00  0.00000E+00  9.000E+00
      25     1     1     2     0     0  2.608771309E+02  6.935712322E+01 -3.754323901E+01  2.998362599E+02  1.250000000E+02  0.00000E+00  9.000E+00
      25     1     1     2     0     0 -1.943899669E+02 -1.271179323E+02 -9.880388215E+02  1.022639790E+03  1.250000000E+02  0.00000E+00  9.000E+00
      21     1     1     2   511   501 -6.648716408E+01  5.776080911E+01 -6.628836020E+02  6.687088483E+02  7.629394531E-06  0.00000E+00  9.000E+00
#rwgt            1           1   2.9240141706417137E-002           9       21535           0
</event>
<event>
      5   9999  3.19816E-02  7.38563E+01 -1.00000E+00  1.30052E-01
       2    -1     0     0   502     0  0.000000000E+00  0.000000000E+00  1.793335695E+03  1.793335695E+03  0.000000000E+00  0.00000E+00  9.000E+00
      21    -1     0     0   501   502  0.000000000E+00  0.000000000E+00 -1.069491839E+02  1.069491839E+02  0.000000000E+00  0.00000E+00  9.000E+00
      25     1     1     2     0     0  3.161642423E+01  2.552699273E+00 -4.462352863E+01  1.364638189E+02  1.250000000E+02  0.00000E+00  9.000E+00
      25     1     1     2     0     0 -6.284041237E+00  6.682323900E+01  3.103581925E+02  3.412507027E+02  1.250000000E+02  0.00000E+00  9.000E+00
       2     1     1     2   501     0 -2.533238300E+01 -6.937593827E+01  1.420651848E+03  1.422570358E+03  2.157918644E-05  0.00000E+00  9.000E+00
#rwgt            1           1   2.8940719043982908E-002           9       21695           0
</event>
<event>
      5   9999  3.19816E-02  6.40589E+01 -1.00000E+00  1.33202E-01
       1    -1     0     0   502     0  0.000000000E+00  0.000000000E+00  1.294755877E+03  1.294755877E+03  0.000000000E+00  0.00000E+00  9.000E+00
      21    -1     0     0   501   502  0.000000000E+00  0.000000000E+00 -1.181329472E+03  1.181329472E+03  0.000000000E+00  0.00000E+00  9.000E+00
      25     1     1     2     0     0  2.455782058E+02 -7.313884002E+01 -5.765089609E+02  6.431528023E+02  1.250000000E+02  0.00000E+00  9.000E+00
      25     1     1     2     0     0 -2.836414974E+02  2.161477027E+01 -5.283616989E+02  6.129525122E+02  1.250000000E+02  0.00000E+00  9.000E+00
       1     1     1     2   501     0  3.806329155E+01  5.152406975E+01  1.218297066E+03  1.219980034E+03  0.000000000E+00  0.00000E+00  9.000E+00
#rwgt            1           1   2.9313941163292948E-002           9       21769           0
</event>
<event>
      5   9999  3.19816E-02  5.19353E+01 -1.00000E+00  1.38141E-01
      21    -1     0     0   511   501  0.000000000E+00  0.000000000E+00  1.399721848E+02  1.399721848E+02  0.000000000E+00  0.00000E+00  9.000E+00
      21    -1     0     0   501   502  0.000000000E+00  0.000000000E+00 -7.223644626E+02  7.223644626E+02  0.000000000E+00  0.00000E+00  9.000E+00
      25     1     1     2     0     0  8.307159438E+01 -1.073344663E+02 -6.037013710E+02  6.312700870E+02  1.250000000E+02  0.00000E+00  9.000E+00
      25     1     1     2     0     0 -3.330018548E+01  1.221695560E+02  1.229570595E+01  1.783549471E+02  1.250000000E+02  0.00000E+00  9.000E+00
      21     1     1     2   511   502 -4.977140890E+01 -1.483508974E+01  9.013387186E+00  5.271161333E+01  2.665600750E-07  0.00000E+00  9.000E+00
#rwgt            1           1   2.6797225387064839E-002           9       21859           0
</event>
<event>
      5   9999  3.19816E-02  1.46473E+02 -1.00000E+00  1.16805E-01
      21    -1     0     0   502   501  0.000000000E+00  0.000000000E+00  1.573677705E+02  1.573677705E+02  0.000000000E+00  0.00000E+00  9.000E+00
       2    -1     0     0   501     0  0.000000000E+00  0.000000000E+00 -1.864576975E+03  1.864576975E+03  0.000000000E+00  0.00000E+00  9.000E+00
      25     1     1     2     0     0  1.770865340E+01 -2.878307071E+02 -1.079741690E+02  3.323304583E+02  1.250000000E+02  0.00000E+00  9.000E+00
      25     1     1     2     0     0  1.080857133E+02  3.628639821E+02 -1.165544846E+03  1.231857369E+03  1.250000000E+02  0.00000E+00  9.000E+00
       2     1     1     2   502     0 -1.257943667E+02 -7.503327501E+01 -4.336901898E+02  4.577569178E+02  1.078959322E-05  0.00000E+00  9.000E+00
#rwgt            2          13   9.2407574419360681E-004           9       21961           0
</event>
<event>
      5   9999  3.19816E-02  5.34923E+01 -1.00000E+00  1.37423E-01
       2    -1     0     0   502     0  0.000000000E+00  0.000000000E+00  2.031870331E+03  2.031870331E+03  0.000000000E+00  0.00000E+00  9.000E+00
      21    -1     0     0   501   502  0.000000000E+00  0.000000000E+00 -3.113466952E+01  3.113466952E+01  0.000000000E+00  0.00000E+00  9.000E+00
      25     1     1     2     0     0 -5.695532882E+01  1.331390349E+02  4.154146893E+02  4.573448111E+02  1.250000000E+02  0.00000E+00  9.000E+00
      25     1     1     2     0     0  9.222314806E+00 -1.572840708E+02  1.229352688E+03  1.245695132E+03  1.250000000E+02  0.00000E+00  9.000E+00
       2     1     1     2   501     0  4.773301402E+01  2.414503586E+01  3.559682839E+02  3.599650574E+02  3.814697266E-06  0.00000E+00  9.000E+00
#rwgt            1           1   2.4502708997669619E-002           9       22040           0
</event>
<event>
      5   9999  3.19816E-02  2.10934E+01 -1.00000E+00  1.64484E-01
      21    -1     0     0   502   511  0.000000000E+00  0.000000000E+00  3.092397248E+02  3.092397248E+02  0.000000000E+00  0.00000E+00  9.000E+00
      21    -1     0     0   501   502  0.000000000E+00  0.000000000E+00 -2.972840653E+02  2.972840653E+02  0.000000000E+00  0.00000E+00  9.000E+00
      25     1     1     2     0     0  1.858870045E+02  1.475560661E+02  9.508294102E+01  2.845918775E+02  1.250000000E+02  0.00000E+00  9.000E+00
      25     1     1     2     0     0 -1.893145528E+02 -1.683690841E+02 -9.458786768E+01  2.979261873E+02  1.250000000E+02  0.00000E+00  9.000E+00
      21     1     1     2   501   511  3.427548288E+00  2.081301800E+01  1.146058619E+01  2.400572518E+01  2.920019320E-07  0.00000E+00  9.000E+00
#rwgt            1           1   2.8315738820405174E-002           9       22088           0
</event>
<event>
      5   9999  3.19816E-02  1.54159E+02 -1.00000E+00  1.15925E-01
       1    -1     0     0   502     0  0.000000000E+00  0.000000000E+00  6.388359211E+02  6.388359211E+02  0.000000000E+00  0.00000E+00  9.000E+00
      21    -1     0     0   501   502  0.000000000E+00  0.000000000E+00 -1.573859513E+03  1.573859513E+03  0.000000000E+00  0.00000E+00  9.000E+00
      25     1     1     2     0     0 -9.871250455E+01  2.537308527E+02 -3.036349216E+02  4.265473828E+02  1.250000000E+02  0.00000E+00  9.000E+00
      25     1     1     2     0     0  2.527516928E+02 -2.476559526E+02 -1.168533563E+03  1.227319265E+03  1.250000000E+02  0.00000E+00  9.000E+00
       1     1     1     2   501     0 -1.540391883E+02 -6.074900144E+00  5.371448933E+02  5.588287862E+02  7.629394531E-06  0.00000E+00  9.000E+00
#rwgt            2          17   2.1141421427584932E-003           9       22247           0
</event>
<event>
      5   9999  3.19816E-02  1.73099E+02 -1.00000E+00  1.13981E-01
       2    -1     0     0   502     0  0.000000000E+00  0.000000000E+00  1.134960503E+03  1.134960503E+03  0.000000000E+00  0.00000E+00  9.000E+00
      21    -1     0     0   501   502  0.000000000E+00  0.000000000E+00 -1.399601013E+02  1.399601013E+02  0.000000000E+00  0.00000E+00  9.000E+00
      25     1     1     2     0     0  1.867552475E+02 -2.734069711E+02  2.399797724E+02  4.276028362E+02  1.250000000E+02  0.00000E+00  9.000E+00
      25     1     1     2     0     0 -1.230074881E+02  1.124740432E+02  3.581450027E+02  4.143357280E+02  1.250000000E+02  0.00000E+00  9.000E+00
       2     1     1     2   501     0 -6.374775947E+01  1.609329279E+02  3.968756263E+02  4.329820399E+02  5.394796609E-06  0.00000E+00  9.000E+00
#rwgt            2          18   6.9236437728785612E-004           9       22371           0
</event>
<event>
      5   9999  3.19816E-02  1.63600E+02 -1.00000E+00  1.14919E-01
       4    -1     0     0   502     0  0.000000000E+00  0.000000000E+00  2.851541995E+02  2.851541995E+02  0.000000000E+00  0.00000E+00  9.000E+00
      21    -1     0     0   501   502  0.000000000E+00  0.000000000E+00 -1.242319663E+03  1.242319663E+03  0.000000000E+00  0.00000E+00  9.000E+00
      25     1     1     2     0     0 -2.951107825E+02  2.740668272E+01 -8.069279452E+02  8.686766999E+02  1.250000000E+02  0.00000E+00  9.000E+00
      25     1     1     2     0     0  2.056395387E+02  1.095597099E+02 -3.252872605E+02  4.191989405E+02  1.250000000E+02  0.00000E+00  9.000E+00
       4     1     1     2   501     0  8.947124387E+01 -1.369663926E+02  1.750497417E+02  2.395982225E+02  3.814697266E-06  0.00000E+00  9.000E+00
#rwgt            1           1   2.8066938627848190E-002           9       22405           0
</event>
<event>
      5   9999  3.19816E-02  3.25717E+01 -1.00000E+00  1.50600E-01
      21    -1     0     0   502   501  0.000000000E+00  0.000000000E+00  1.034049502E+03  1.034049502E+03  0.000000000E+00  0.00000E+00  9.000E+00
      21    -1     0     0   511   502  0.000000000E+00  0.000000000E+00 -1.103803148E+03  1.103803148E+03  0.000000000E+00  0.00000E+00  9.000E+00
      25     1     1     2     0     0 -1.101800237E+02 -8.293754629E+02  5.726274955E+02  1.021533428E+03  1.250000000E+02  0.00000E+00  9.000E+00
      25     1     1     2     0     0  1.194266344E+02  8.606070775E+02 -6.017927121E+02  1.064277563E+03  1.250000000E+02  0.00000E+00  9.000E+00
      21     1     1     2   511   501 -9.246610748E+00 -3.123161460E+01 -4.058842960E+01  5.204165810E+01  4.768371582E-07  0.00000E+00  9.000E+00
#rwgt            1           1   2.4111095186136279E-002           9       22489           0
</event>
<event>
      5   9999  3.19816E-02  6.30300E+01 -1.00000E+00  1.33570E-01
      21    -1     0     0   512   501  0.000000000E+00  0.000000000E+00  1.072172086E+03  1.072172086E+03  0.000000000E+00  0.00000E+00  9.000E+00
      21    -1     0     0   501   502  0.000000000E+00  0.000000000E+00 -3.105190899E+02  3.105190899E+02  0.000000000E+00  0.00000E+00  9.000E+00
      25     1     1     2     0     0  4.035869334E+02 -2.794165669E+02  2.949215396E+02  5.861396977E+02  1.250000000E+02  0.00000E+00  9.000E+00
      25     1     1     2     0     0 -4.591160842E+02  3.092375185E+02  3.583039293E+02  6.711349547E+02  1.250000000E+02  0.00000E+00  9.000E+00
      21     1     1     2   512   502  5.552915079E+01 -2.982095160E+01  1.084275273E+02  1.254165237E+02  0.000000000E+00  0.00000E+00  9.000E+00
#rwgt            1           1   2.7918894454062235E-002           9       22695           0
</event>
<event>
      5   9999  3.19816E-02  9.51288E+01 -1.00000E+00  1.24811E-01
      21    -1     0     0   502   501  0.000000000E+00  0.000000000E+00  6.756626690E+02  6.756626690E+02  0.000000000E+00  0.00000E+00  9.000E+00
      21    -1     0     0   501   511  0.000000000E+00  0.000000000E+00 -1.363012611E+03  1.363012611E+03  0.000000000E+00  0.00000E+00  9.000E+00
      25     1     1     2     0     0 -2.993214434E+02 -5.816899335E+02  8.960940242E+01  6.720203495E+02  1.250000000E+02  0.00000E+00  9.000E+00
      25     1     1     2     0     0  2.653916992E+02  6.705621046E+02 -1.688460471E+02  7.511459764E+02  1.250000000E+02  0.00000E+00  9.000E+00
      21     1     1     2   502   511  3.392974419E+01 -8.887217113E+01 -6.081132973E+02  6.155089542E+02  7.629394531E-06  0.00000E+00  9.000E+00
#rwgt            1           1   3.4145817769097385E-002           9       22800           0
</event>
<event>
      5   9999  3.19816E-02  5.60257E+01 -1.00000E+00  1.36313E-01
      21    -1     0     0   502   501  0.000000000E+00  0.000000000E+00  1.117218095E+03  1.117218095E+03  0.000000000E+00  0.00000E+00  9.000E+00
      21    -1     0     0   512   502  0.000000000E+00  0.000000000E+00 -3.035718925E+02  3.035718925E+02  0.000000000E+00  0.00000E+00  9.000E+00
      25     1     1     2     0     0  4.388302690E+02 -2.912405402E+02  2.249077331E+02  5.861753541E+02  1.250000000E+02  0.00000E+00  9.000E+00
      25     1     1     2     0     0 -3.844940338E+02  3.048954633E+02  5.913414074E+02  7.785284617E+02  1.250000000E+02  0.00000E+00  9.000E+00
      21     1     1     2   512   501 -5.433623524E+01 -1.365492303E+01 -2.602937867E+00  5.608617181E+01  1.129739965E-06  0.00000E+00  9.000E+00
#rwgt            1           1   3.0422466224396452E-002           9       22876           0
</event>
<event>
      5   9999  3.19816E-02  1.23119E+02 -1.00000E+00  1.19897E-01
      21    -1     0     0   502   501  0.000000000E+00  0.000000000E+00  1.244816072E+03  1.244816072E+03  0.000000000E+00  0.00000E+00  9.000E+00
      21    -1     0     0   501   511  0.000000000E+00  0.000000000E+00 -5.785318769E+02  5.785318769E+02  0.000000000E+00  0.00000E+00  9.000E+00
      25     1     1     2     0     0 -2.473943140E+02 -4.712831297E+02 -2.330231403E+02  5.943370414E+02  1.250000000E+02  0.00000E+00  9.000E+00
      25     1     1     2     0     0  3.687852398E+02  4.918384671E+02  9.101686746E+02  1.105413790E+03  1.250000000E+02  0.00000E+00  9.000E+00
      21     1     1     2   502   511 -1.213909258E+02 -2.055533743E+01 -1.086133923E+01  1.235971175E+02  1.004475328E-06  0.00000E+00  9.000E+00
#rwgt            1           1   2.8296582884945905E-002           9       22984           0
</event>
<event>
      5   9999  3.19816E-02  1.25873E+02 -1.00000E+00  1.19494E-01
      21    -1     0     0   502   501  0.000000000E+00  0.000000000E+00  3.411377770E+02  3.411377770E+02  0.000000000E+00  0.00000E+00  9.000E+00
      21    -1     0     0   501   512  0.000000000E+00  0.000000000E+00 -2.447215919E+02  2.447215919E+02  0.000000000E+00  0.00000E+00  9.000E+00
      25     1     1     2     0     0  1.416089931E+02 -8.305282867E+01  3.783692396E+01  2.097796751E+02  1.250000000E+02  0.00000E+00  9.000E+00
      25     1     1     2     0     0 -1.865809872E+01  5.608646673E+01  1.621313391E+02  2.130853996E+02  1.250000000E+02  0.00000E+00  9.000E+00
      21     1     1     2   502   512 -1.229508943E+02  2.696636194E+01 -1.035520780E+02  1.629942942E+02  0.000000000E+00  0.00000E+00  9.000E+00
#rwgt            1           1   2.8072324780611391E-002           9       23096           0
</event>
<event>
      5   9999  3.19816E-02  5.15604E+02 -1.00000E+00  9.84743E-02
      21    -1     0     0   502   501  0.000000000E+00  0.000000000E+00  3.257171607E+03  3.257171607E+03  0.000000000E+00  0.00000E+00  9.000E+00
      21    -1     0     0   511   502  0.000000000E+00  0.000000000E+00 -1.695468870E+03  1.695468870E+03  0.000000000E+00  0.00000E+00  9.000E+00
      25     1     1     2     0     0 -1.157421505E+03  5.251604328E+02  2.387482590E+03  2.707603393E+03  1.250000000E+02  0.00000E+00  9.000E+00
      25     1     1     2     0     0  1.554300772E+03 -1.960193806E+02 -6.014951547E+02  1.682764365E+03  1.250000000E+02  0.00000E+00  9.000E+00
      21     1     1     2   511   501 -3.968792670E+02 -3.291410522E+02 -2.242846979E+02  5.622727190E+02  7.629394531E-06  0.00000E+00  9.000E+00
#rwgt            2          11   3.2280889111627191E-003           9       23295           0
</event>
<event>
      5   9999  3.19816E-02  1.67551E+02 -1.00000E+00  1.14520E-01
      21    -1     0     0   502   501  0.000000000E+00  0.000000000E+00  8.546041142E+02  8.546041142E+02  0.000000000E+00  0.00000E+00  9.000E+00
      21    -1     0     0   512   502  0.000000000E+00  0.000000000E+00 -1.664008057E+03  1.664008057E+03  0.000000000E+00  0.00000E+00  9.000E+00
      25     1     1     2     0     0 -2.083642640E+02 -5.437735885E+02 -1.186766253E+03  1.327834524E+03  1.250000000E+02  0.00000E+00  9.000E+00
      25     1     1     2     0     0  3.117763322E+02  6.756041569E+02  5.624814867E+02  9.410929184E+02  1.250000000E+02  0.00000E+00  9.000E+00
      21     1     1     2   512   501 -1.034120682E+02 -1.318305685E+02 -1.851191765E+02  2.496847295E+02  4.672030912E-06  0.00000E+00  9.000E+00
#rwgt            2          11   7.4622562707710336E-003           9       23360           0
</event>
<event>
      5   9999  3.19816E-02  2.26663E+01 -1.00000E+00  1.62006E-01
      21    -1     0     0   511   501  0.000000000E+00  0.000000000E+00  1.368900346E+03  1.368900346E+03  0.000000000E+00  0.00000E+00  9.000E+00
      21    -1     0     0   501   502  0.000000000E+00  0.000000000E+00 -5.990208870E+02  5.990208870E+02  0.000000000E+00  0.00000E+00  9.000E+00
      25     1     1     2     0     0  3.919892550E+02 -1.193813751E+02  8.968915321E+02  9.939551846E+02  1.250000000E+02  0.00000E+00  9.000E+00
      25     1     1     2     0     0 -3.982852596E+02  9.760707293E+01 -4.665902823E+02  6.336322122E+02  1.250000000E+02  0.00000E+00  9.000E+00
      21     1     1     2   511   502  6.296004648E+00  2.177430214E+01  3.395782092E+02  3.403338362E+02  3.814697266E-06  0.00000E+00  9.000E+00
#rwgt            1           1   3.2371726157621759E-002           9       23425           0
</event>
<event>
      5   9999  3.19816E-02  4.95687E+01 -1.00000E+00  1.39291E-01
      21    -1     0     0   512   501  0.000000000E+00  0.000000000E+00  6.844495824E+02  6.844495824E+02  0.000000000E+00  0.00000E+00  9.000E+00
      21    -1     0     0   501   502  0.000000000E+00  0.000000000E+00 -1.579866849E+03  1.579866849E+03  0.000000000E+00  0.00000E+00  9.000E+00
      25     1     1     2     0     0 -4.506256643E+02  3.816720069E+02 -2.000102900E+02  6.358978898E+02  1.250000000E+02  0.00000E+00  9.000E+00
      25     1     1     2     0     0  4.454189348E+02 -4.309664941E+02 -1.074165854E+03  1.246429873E+03  1.250000000E+02  0.00000E+00  9.000E+00
      21     1     1     2   512   502  5.206729582E+00  4.929448724E+01  3.787588768E+02  3.819886690E+02  5.394796609E-06  0.00000E+00  9.000E+00
#rwgt            1           1   2.5861214648913864E-002           9       23610           0
</event>
<event>
      5   9999  3.19816E-02  1.53251E+01 -1.00000E+00  1.76511E-01
      21    -1     0     0   502   501  0.000000000E+00  0.000000000E+00  1.909487421E+02  1.909487421E+02  0.000000000E+00  0.00000E+00  9.000E+00
      21    -1     0     0   511   502  0.000000000E+00  0.000000000E+00 -4.539263722E+02  4.539263722E+02  0.000000000E+00  0.00000E+00  9.000E+00
      25     1     1     2     0     0 -6.973473720E+01 -1.941430536E+02  4.005462790E+01  2.445073251E+02  1.250000000E+02  0.00000E+00  9.000E+00
      25     1     1     2     0     0  8.504586600E+01  1.934876908E+02 -2.770741066E+02  3.702233736E+02  1.250000000E+02  0.00000E+00  9.000E+00
      21     1     1     2   511   501 -1.531112880E+01  6.553627673E-01 -2.595815137E+01  3.014441553E+01  4.768371582E-07  0.00000E+00  9.000E+00
#rwgt            1           1   2.0104760173777769E-002           9       23750           0
</event>
<event>
      5   9999  3.19816E-02  3.02472E+01 -1.00000E+00  1.52793E-01
      21    -1     0     0   502   501  0.000000000E+00  0.000000000E+00  2.295574557E+03  2.295574557E+03  0.000000000E+00  0.00000E+00  9.000E+00
      21    -1     0     0   512   502  0.000000000E+00  0.000000000E+00 -3.426141018E+02  3.426141018E+02  0.000000000E+00  0.00000E+00  9.000E+00
      25     1     1     2     0     0 -5.753260756E+02 -9.464390010E+00  1.533723811E+03  1.642870474E+03  1.250000000E+02  0.00000E+00  9.000E+00
      25     1     1     2     0     0  5.473269211E+02  2.090741065E+01  5.942100540E+02  8.177496357E+02  1.250000000E+02  0.00000E+00  9.000E+00
      21     1     1     2   512   501  2.799915453E+01 -1.144302064E+01 -1.749734097E+02  1.775685486E+02  2.697398305E-06  0.00000E+00  9.000E+00
#rwgt            1           1   4.2133346883479736E-002           9       23993           0
</event>
<event>
      5   9999  3.19816E-02  2.79213E+01 -1.00000E+00  1.55238E-01
      21    -1     0     0   502   511  0.000000000E+00  0.000000000E+00  1.102797873E+03  1.102797873E+03  0.000000000E+00  0.00000E+00  9.000E+00
      21    -1     0     0   501   502  0.000000000E+00  0.000000000E+00 -4.635711025E+02  4.635711025E+02  0.000000000E+00  0.00000E+00  9.000E+00
      25     1     1     2     0     0 -5.584198551E+01 -6.062902529E+02  1.387735416E+01  6.217103659E+02  1.250000000E+02  0.00000E+00  9.000E+00
      25     1     1     2     0     0  5.518157058E+01  6.342037407E+02  5.078597840E+02  8.238968083E+02  1.250000000E+02  0.00000E+00  9.000E+00
      21     1     1     2   501   511  6.604149247E-01 -2.791348778E+01  1.174896322E+02  1.207618012E+02  1.348699152E-06  0.00000E+00  9.000E+00
#rwgt            1           1   2.2196674798896393E-002           9       24154           0
</event>
<event>
      5   9999  3.19816E-02  4.94914E+01 -1.00000E+00  1.39329E-01
      21    -1     0     0   512   501  0.000000000E+00  0.000000000E+00  7.055608993E+02  7.055608993E+02  0.000000000E+00  0.00000E+00  9.000E+00
      21    -1     0     0   501   502  0.000000000E+00  0.000000000E+00 -6.989524367E+02  6.989524367E+02  0.000000000E+00  0.00000E+00  9.000E+00
      25     1     1     2     0     0  4.397211367E+02 -1.981040992E+02 -4.798916970E+02  6.917520893E+02  1.250000000E+02  0.00000E+00  9.000E+00
      25     1     1     2     0     0 -4.163662756E+02  1.544698588E+02  4.745463759E+02  6.618467161E+02  1.250000000E+02  0.00000E+00  9.000E+00
      21     1     1     2   512   502 -2.335486118E+01  4.363424044E+01  1.195378366E+01  5.091453057E+01  1.025477084E-06  0.00000E+00  9.000E+00
#rwgt            1           1   3.2885514544895071E-002           9       24318           0
</event>
<event>
      5   9999  3.19816E-02  4.22452E+01 -1.00000E+00  1.43384E-01
      21    -1     0     0   502   501  0.000000000E+00  0.000000000E+00  1.356527246E+02  1.356527246E+02  0.000000000E+00  0.00000E+00  9.000E+00
      21    -1     0     0   511   502  0.000000000E+00  0.000000000E+00 -1.368145164E+03  1.368145164E+03  0.000000000E+00  0.00000E+00  9.000E+00
      25     1     1     2     0     0  1.364719433E+02  3.133444276E+02 -8.141898248E+02  8.918180265E+02  1.250000000E+02  0.00000E+00  9.000E+00
      25     1     1     2     0     0 -1.299881192E+02 -3.550891002E+02 -3.428495855E+02  5.255054886E+02  1.250000000E+02  0.00000E+00  9.000E+00
      21     1     1     2   511   501 -6.483824022E+00  4.174467264E+01 -7.545302862E+01  8.647437306E+01  9.536743164E-07  0.00000E+00  9.000E+00
#rwgt            1           1   2.8649885875836209E-002           9       24450           0
</event>
<event>
      5   9999  3.19816E-02  6.16186E+01 -1.00000E+00  1.34089E-01
      21    -1     0     0   502   501  0.000000000E+00  0.000000000E+00  2.562428189E+03  2.562428189E+03  0.000000000E+00  0.00000E+00  9.000E+00
      21    -1     0     0   512   502  0.000000000E+00  0.000000000E+00 -7.266290460E+02  7.266290460E+02  0.000000000E+00  0.00000E+00  9.000E+00
      25     1     1     2     0     0 -8.283470983E+02  1.040714859E+03  5.919272448E+02  1.461249190E+03  1.250000000E+02  0.00000E+00  9.000E+00
      25     1     1     2     0     0  7.964797998E+02 -9.879765327E+02  1.207930201E+03  1.756473191E+03  1.250000000E+02  0.00000E+00  9.000E+00
      21     1     1     2   512   501  3.186729850E+01 -5.273832616E+01  3.594169757E+01  7.133485392E+01  6.743495762E-07  0.00000E+00  9.000E+00
#rwgt            1           1   4.6204393090673895E-002           9       24566           0
</event>
<event>
      5   9999  3.19816E-02  1.12515E+02 -1.00000E+00  1.21568E-01
      21    -1     0     0   502   501  0.000000000E+00  0.000000000E+00  1.796118019E+03  1.796118019E+03  0.000000000E+00  0.00000E+00  9.000E+00
      21    -1     0     0   501   511  0.000000000E+00  0.000000000E+00 -7.767900741E+02  7.767900741E+02  0.000000000E+00  0.00000E+00  9.000E+00
      25     1     1     2     0     0 -6.568566574E+02 -2.278375586E+02  1.496154974E+03  1.654531755E+03  1.250000000E+02  0.00000E+00  9.000E+00
      25     1     1     2     0     0  5.722458795E+02  3.020032925E+02 -4.621481868E+02  8.049082444E+02  1.250000000E+02  0.00000E+00  9.000E+00
      21     1     1     2   502   511  8.461077784E+01 -7.416573387E+01 -1.467884275E+01  1.134680934E+02  1.862108630E-06  0.00000E+00  9.000E+00
#rwgt            1           1   2.7629987021402538E-002           9       24678           0
</event>
<event>
      5   9999  3.19816E-02  5.47389E+01 -1.00000E+00  1.36868E-01
      21    -1     0     0   512   501  0.000000000E+00  0.000000000E+00  5.493962532E+02  5.493962532E+02  0.000000000E+00  0.00000E+00  9.000E+00
      21    -1     0     0   501   502  0.000000000E+00  0.000000000E+00 -6.344847376E+02  6.344847376E+02  0.000000000E+00  0.00000E+00  9.000E+00
      25     1     1     2     0     0  1.536073894E+02  5.302968560E+02 -1.980264965E+02  5.997078279E+02  1.250000000E+02  0.00000E+00  9.000E+00
      25     1     1     2     0     0 -1.178209146E+02 -4.888761074E+02  1.070503925E+02  5.291185149E+02  1.250000000E+02  0.00000E+00  9.000E+00
      21     1     1     2   512   502 -3.578647482E+01 -4.142074862E+01  5.887619588E+00  5.505464794E+01  1.072883606E-06  0.00000E+00  9.000E+00
#rwgt            1           1   3.3001034932781760E-002           9       24824           0
</event>
<event>
      5   9999  3.19816E-02  3.23050E+02 -1.00000E+00  1.04558E-01
      21    -1     0     0   511   501  0.000000000E+00  0.000000000E+00  4.083946357E+02  4.083946357E+02  0.000000000E+00  0.00000E+00  9.000E+00
      21    -1     0     0   501   502  0.000000000E+00  0.000000000E+00 -1.931263095E+03  1.931263095E+03  0.000000000E+00  0.00000E+00  9.000E+00
      25     1     1     2     0     0  4.474083794E+02 -1.095779771E+02 -9.906378935E+02  1.099622675E+03  1.250000000E+02  0.00000E+00  9.000E+00
      25     1     1     2     0     0 -7.462936488E+02  2.321693358E+02 -3.213774810E+02  8.542630133E+02  1.250000000E+02  0.00000E+00  9.000E+00
      21     1     1     2   511   502  2.988852694E+02 -1.225913586E+02 -2.108530847E+02  3.857720426E+02  0.000000000E+00  0.00000E+00  9.000E+00
#rwgt            2          11   3.9162646394584671E-003           9       25215           0
</event>
<event>
      5   9999  3.19816E-02  4.34600E+01 -1.00000E+00  1.42640E-01
      21    -1     0     0   512   501  0.000000000E+00  0.000000000E+00  1.719891366E+02  1.719891366E+02  0.000000000E+00  0.00000E+00  9.000E+00
      21    -1     0     0   501   502  0.000000000E+00  0.000000000E+00 -1.093649015E+03  1.093649015E+03  0.000000000E+00  0.00000E+00  9.000E+00
      25     1     1     2     0     0 -1.672071395E+02 -3.059968250E+02 -7.227540524E+02  8.121518975E+02  1.250000000E+02  0.00000E+00  9.000E+00
      25     1     1     2     0     0  1.247238248E+02  3.151587219E+02 -1.931409811E+02  4.096455676E+02  1.250000000E+02  0.00000E+00  9.000E+00
      21     1     1     2   512   502  4.248331472E+01 -9.161896946E+00 -5.764845439E+00  4.384068690E+01  3.264680848E-07  0.00000E+00  9.000E+00
#rwgt            1           1   2.9658068545966046E-002           9       25235           0
</event>
<event>
      5   9999  3.19816E-02  4.29403E+01 -1.00000E+00  1.42955E-01
      21    -1     0     0   502   501  0.000000000E+00  0.000000000E+00  5.558599672E+02  5.558599672E+02  0.000000000E+00  0.00000E+00  9.000E+00
      21    -1     0     0   511   502  0.000000000E+00  0.000000000E+00 -2.728455423E+02  2.728455423E+02  0.000000000E+00  0.00000E+00  9.000E+00
      25     1     1     2     0     0 -2.008152309E+02 -1.875736468E+02  3.583845718E+02  4.685884455E+02  1.250000000E+02  0.00000E+00  9.000E+00
      25     1     1     2     0     0  1.676657361E+02  2.148679631E+02 -3.624326898E+01  3.020241964E+02  1.250000000E+02  0.00000E+00  9.000E+00
      21     1     1     2   511   501  3.314949477E+01 -2.729431628E+01 -3.912687786E+01  5.809286768E+01  8.259061849E-07  0.00000E+00  9.000E+00
#rwgt            1           1   2.8840757027049722E-002           9       25377           0
</event>
<event>
      5   9999  3.19816E-02  7.48377E+01 -1.00000E+00  1.29768E-01
      21    -1     0     0   502   501  0.000000000E+00  0.000000000E+00  1.786005027E+03  1.786005027E+03  0.000000000E+00  0.00000E+00  9.000E+00
       2    -1     0     0   501     0  0.000000000E+00  0.000000000E+00 -1.998769659E+03  1.998769659E+03  0.000000000E+00  0.00000E+00  9.000E+00
      25     1     1     2     0     0  1.066009578E+02  6.659677730E+02  1.270215289E+03  1.443588833E+03  1.250000000E+02  0.00000E+00  9.000E+00
      25     1     1     2     0     0 -8.232654732E+01 -7.367592317E+02  9.823598924E+01  7.581999311E+02  1.250000000E+02  0.00000E+00  9.000E+00
       2     1     1     2   502     0 -2.427441046E+01  7.079145876E+01 -1.581215910E+03  1.582985922E+03  2.157918644E-05  0.00000E+00  9.000E+00
#rwgt            1           1   3.0924906000185041E-002           9       25513           0
</event>
<event>
      5   9999  3.19816E-02  4.57044E+01 -1.00000E+00  1.41339E-01
      21    -1     0     0   511   501  0.000000000E+00  0.000000000E+00  4.740051196E+02  4.740051196E+02  0.000000000E+00  0.00000E+00  9.000E+00
      21    -1     0     0   501   502  0.000000000E+00  0.000000000E+00 -6.743847231E+02  6.743847231E+02  0.000000000E+00  0.00000E+00  9.000E+00
      25     1     1     2     0     0 -6.397572785E+01 -6.924493846E+00 -1.205542561E+01  1.411069653E+02  1.250000000E+02  0.00000E+00  9.000E+00
      25     1     1     2     0     0  6.355945065E+01  5.262698361E+01 -5.870956775E+02  6.059007656E+02  1.250000000E+02  0.00000E+00  9.000E+00
      21     1     1     2   511   502  4.162772005E-01 -4.570248976E+01  3.987714996E+02  4.013821119E+02  5.394796609E-06  0.00000E+00  9.000E+00
#rwgt            1           1   2.7593613293116919E-002           9       25668           0
</event>
<event>
      5   9999  3.19816E-02  6.54185E+01 -1.00000E+00  1.32727E-01
      21    -1     0     0   502   501  0.000000000E+00  0.000000000E+00  3.461986952E+02  3.461986952E+02  0.000000000E+00  0.00000E+00  9.000E+00
      21    -1     0     0   501   512  0.000000000E+00  0.000000000E+00 -1.180540768E+03  1.180540768E+03  0.000000000E+00  0.00000E+00  9.000E+00
      25     1     1     2     0     0 -1.027699674E+02 -2.613599579E+02  6.819226061E+01  3.148743848E+02  1.250000000E+02  0.00000E+00  9.000E+00
      25     1     1     2     0     0  4.972615148E+01  2.230723847E+02  4.304110911E+01  2.640293847E+02  1.250000000E+02  0.00000E+00  9.000E+00
      21     1     1     2   502   512  5.304381593E+01  3.828757324E+01 -9.455754427E+02  9.478356938E+02  1.078959322E-05  0.00000E+00  9.000E+00
#rwgt            1           1   2.6881568634193363E-002           9       25723           0
</event>
<event>
      5   9999  3.19816E-02  6.15800E+01 -1.00000E+00  1.34103E-01
      21    -1     0     0   502   501  0.000000000E+00  0.000000000E+00  5.157963478E+02  5.157963478E+02  0.000000000E+00  0.00000E+00  9.000E+00
      21    -1     0     0   511   502  0.000000000E+00  0.000000000E+00 -7.386403698E+02  7.386403698E+02  0.000000000E+00  0.00000E+00  9.000E+00
      25     1     1     2     0     0  3.159823049E+02 -4.279159602E+02  7.269484706E+01  5.512408065E+02  1.250000000E+02  0.00000E+00  9.000E+00
      25     1     1     2     0     0 -2.697283528E+02  3.872628817E+02 -1.002105228E+02  4.983904822E+02  1.250000000E+02  0.00000E+00  9.000E+00
      21     1     1     2   511   501 -4.625395203E+01  4.065307846E+01 -1.953283463E+02  2.048054289E+02  2.697398305E-06  0.00000E+00  9.000E+00
#rwgt            1           1   3.1501537521617093E-002           9       25827           0
</event>
<event>
      5   9999  3.19816E-02  7.74486E+01 -1.00000E+00  1.29035E-01
      21    -1     0     0   502   501  0.000000000E+00  0.000000000E+00  1.054211513E+03  1.054211513E+03  0.000000000E+00  0.00000E+00  9.000E+00
      21    -1     0     0   512   502  0.000000000E+00  0.000000000E+00 -7.732749061E+02  7.732749061E+02  0.000000000E+00  0.00000E+00  9.000E+00
      25     1     1     2     0     0 -2.730182260E+02  6.950729193E+02  1.513784339E+02  7.721436040E+02  1.250000000E+02  0.00000E+00  9.000E+00
      25     1     1     2     0     0  3.403044770E+02 -7.334244878E+02  2.973857807E+02  8.705067024E+02  1.250000000E+02  0.00000E+00  9.000E+00
      21     1     1     2   512   501 -6.728625100E+01  3.835156851E+01 -1.678276081E+02  1.848361124E+02  1.907348633E-06  0.00000E+00  9.000E+00
#rwgt            2          11   3.7486265823235285E-003           9       25922           0
</event>
<event>
      5   9999  3.19816E-02  2.01382E+02 -1.00000E+00  1.11539E-01
      21    -1     0     0   502   501  0.000000000E+00  0.000000000E+00  1.027744339E+03  1.027744339E+03  0.000000000E+00  0.00000E+00  9.000E+00
      21    -1     0     0   511   502  0.000000000E+00  0.000000000E+00 -5.241131322E+02  5.241131322E+02  0.000000000E+00  0.00000E+00  9.000E+00
      25     1     1     2     0     0  8.507323674E+01 -1.413314192E+02  3.921644702E+02  4.434298111E+02  1.250000000E+02  0.00000E+00  9.000E+00
      25     1     1     2     0     0  8.828386290E+01  3.885255553E+01  5.785892450E+02  5.997450091E+02  1.250000000E+02  0.00000E+00  9.000E+00
      21     1     1     2   511   501 -1.733570996E+02  1.024788636E+02 -4.671225084E+02  5.086826510E+02  5.394796609E-06  0.00000E+00  9.000E+00
#rwgt            1           1   2.6430957739554218E-002           9       25942           0
</event>
<event>
      5   9999  3.19816E-02  6.62347E+01 -1.00000E+00  1.32448E-01
      21    -1     0     0   502   501  0.000000000E+00  0.000000000E+00  8.490505158E+01  8.490505158E+01  0.000000000E+00  0.00000E+00  9.000E+00
      21    -1     0     0   501   512  0.000000000E+00  0.000000000E+00 -2.315055980E+03  2.315055980E+03  0.000000000E+00  0.00000E+00  9.000E+00
      25     1     1     2     0     0  3.778681611E+01 -1.974959809E+02 -1.652211672E+02  2.887135952E+02  1.250000000E+02  0.00000E+00  9.000E+00
      25     1     1     2     0     0 -4.007581684E+01  1.313008315E+02 -3.602279846E+02  4.052593988E+02  1.250000000E+02  0.00000E+00  9.000E+00
      21     1     1     2   502   512  2.289000726E+00  6.619514939E+01 -1.704701777E+03  1.705988038E+03  0.000000000E+00  0.00000E+00  9.000E+00
#rwgt            2          11   7.2054301369363599E-004           9       26031           0
</event>
<event>
      5   9999  3.19816E-02  5.51742E+01 -1.00000E+00  1.36679E-01
      21    -1     0     0   502   511  0.000000000E+00  0.000000000E+00  6.138358847E+02  6.138358847E+02  0.000000000E+00  0.00000E+00  9.000E+00
      21    -1     0     0   501   502  0.000000000E+00  0.000000000E+00 -4.079953109E+02  4.079953109E+02  0.000000000E+00  0.00000E+00  9.000E+00
      25     1     1     2     0     0 -2.366276022E+02 -9.617000776E+01  4.254238848E+02  5.117145437E+02  1.250000000E+02  0.00000E+00  9.000E+00
      25     1     1     2     0     0  2.917571089E+02  9.838939192E+01 -2.754293287E+02  4.316120923E+02  1.250000000E+02  0.00000E+00  9.000E+00
      21     1     1     2   501   511 -5.512950678E+01 -2.219384156E+00  5.584601775E+01  7.850455963E+01  1.348699152E-06  0.00000E+00  9.000E+00
#rwgt            1           1   2.8203416839648960E-002           9       26081           0
</event>
<event>
      5   9999  3.19816E-02  4.68794E+01 -1.00000E+00  1.40691E-01
      -4    -1     0     0     0   501  0.000000000E+00  0.000000000E+00  3.653855708E+02  3.653855708E+02  0.000000000E+00  0.00000E+00  9.000E+00
      21    -1     0     0   501   502  0.000000000E+00  0.000000000E+00 -3.739533358E+02  3.739533358E+02  0.000000000E+00  0.00000E+00  9.000E+00
      25     1     1     2     0     0 -3.281644172E+02 -7.875541759E+01  1.825537334E+01  3.603506059E+02  1.250000000E+02  0.00000E+00  9.000E+00
      25     1     1     2     0     0  2.815921074E+02  8.411204136E+01  9.775501200E+00  3.195144924E+02  1.250000000E+02  0.00000E+00  9.000E+00
      -4     1     1     2     0   502  4.657230981E+01 -5.356623769E+00 -3.659863955E+01  5.947380832E+01  0.000000000E+00  0.00000E+00  9.000E+00
#rwgt            1           1   2.9452255014525298E-002           9       26198           0
</event>
<event>
      5   9999  3.19816E-02  3.38989E+02 -1.00000E+00  1.03896E-01
      21    -1     0     0   502   501  0.000000000E+00  0.000000000E+00  2.807726226E+03  2.807726226E+03  0.000000000E+00  0.00000E+00  9.000E+00
       2    -1     0     0   501     0  0.000000000E+00  0.000000000E+00 -1.584823833E+02  1.584823833E+02  0.000000000E+00  0.00000E+00  9.000E+00
      25     1     1     2     0     0  2.918915856E+02 -1.068801281E+02  5.375406160E+02  6.334026945E+02  1.250000000E+02  0.00000E+00  9.000E+00
      25     1     1     2     0     0 -5.728231510E+02 -8.283216773E+01  1.696088872E+03  1.796477106E+03  1.250000000E+02  0.00000E+00  9.000E+00
       2     1     1     2   502     0  2.809315653E+02  1.897122958E+02  4.156143551E+02  5.363288094E+02  7.629394531E-06  0.00000E+00  9.000E+00
#rwgt            1           1   2.9049688518866357E-002           9       26305           0
</event>
<event>
      5   9999  3.19816E-02  9.19153E+01 -1.00000E+00  1.25497E-01
      21    -1     0     0   502   511  0.000000000E+00  0.000000000E+00  2.867354260E+02  2.867354260E+02  0.000000000E+00  0.00000E+00  9.000E+00
      21    -1     0     0   501   502  0.000000000E+00  0.000000000E+00 -2.182086196E+03  2.182086196E+03  0.000000000E+00  0.00000E+00  9.000E+00
      25     1     1     2     0     0 -2.762915441E+02 -4.324352090E+02 -2.969254551E+02  6.059100207E+02  1.250000000E+02  0.00000E+00  9.000E+00
      25     1     1     2     0     0  1.971299709E+02  4.791456912E+02 -1.665774548E+03  1.748962740E+03  1.250000000E+02  0.00000E+00  9.000E+00
      21     1     1     2   501   511  7.916157321E+01 -4.671048221E+01  6.734923345E+01  1.139488616E+02  9.536743164E-07  0.00000E+00  9.000E+00
#rwgt            1           1   2.3400754813514387E-002           9       26384           0
</event>
<event>
      5   9999  3.19816E-02  9.20943E+01 -1.00000E+00  1.25458E-01
      21    -1     0     0   512   501  0.000000000E+00  0.000000000E+00  2.979870783E+02  2.979870783E+02  0.000000000E+00  0.00000E+00  9.000E+00
      21    -1     0     0   501   502  0.000000000E+00  0.000000000E+00 -2.624129620E+03  2.624129620E+03  0.000000000E+00  0.00000E+00  9.000E+00
      25     1     1     2     0     0 -1.532450051E+02  1.408743467E+02 -2.467979001E+03  2.479894143E+03  1.250000000E+02  0.00000E+00  9.000E+00
      25     1     1     2     0     0  2.260080540E+02 -1.973269498E+02  1.269168741E+02  3.489275834E+02  1.250000000E+02  0.00000E+00  9.000E+00
      21     1     1     2   512   502 -7.276304890E+01  5.645260304E+01  1.491958528E+01  9.329497146E+01  2.606297864E-06  0.00000E+00  9.000E+00
#rwgt            1           1   3.0597936438165104E-002           9       26476           0
</event>
<event>
      5   9999  3.19816E-02  1.36008E+02 -1.00000E+00  1.18104E-01
       2    -1     0     0   502     0  0.000000000E+00  0.000000000E+00  3.568160839E+03  3.568160839E+03  0.000000000E+00  0.00000E+00  9.000E+00
      21    -1     0     0   501   502  0.000000000E+00  0.000000000E+00 -3.578442213E+02  3.578442213E+02  0.000000000E+00  0.00000E+00  9.000E+00
      25     1     1     2     0     0 -1.429971715E+02 -1.001928601E+02 -2.869914280E+02  3.584353219E+02  1.250000000E+02  0.00000E+00  9.000E+00
      25     1     1     2     0     0  7.650714899E+00  8.679473999E+01  1.381981382E+02  2.057075247E+02  1.250000000E+02  0.00000E+00  9.000E+00
       2     1     1     2   501     0  1.353464566E+02  1.339812010E+01  3.359109907E+03  3.361862213E+03  4.315837288E-05  0.00000E+00  9.000E+00
#rwgt            1           1   3.1148518485246229E-002           9       26599           0
</event>
<event>
      5   9999  3.19816E-02  4.80798E+01 -1.00000E+00  1.40053E-01
      21    -1     0     0   502   501  0.000000000E+00  0.000000000E+00  4.835562096E+02  4.835562096E+02  0.000000000E+00  0.00000E+00  9.000E+00
      21    -1     0     0   501   511  0.000000000E+00  0.000000000E+00 -6.018403676E+02  6.018403676E+02  0.000000000E+00  0.00000E+00  9.000E+00
      25     1     1     2     0     0 -2.156538348E+02  4.307763341E+02  2.033409188E+01  4.981097286E+02  1.250000000E+02  0.00000E+00  9.000E+00
      25     1     1     2     0     0  2.636537071E+02 -4.335476609E+02 -1.255026409E+02  5.374502437E+02  1.250000000E+02  0.00000E+00  9.000E+00
      21     1     1     2   502   511 -4.799987231E+01  2.771326808E+00 -1.311560885E+01  4.983660492E+01  5.840038640E-07  0.00000E+00  9.000E+00
#rwgt            1           1   2.9738201515750989E-002           9       26638           0
</event>
<event>
      5   9999  3.19816E-02  1.52916E+02 -1.00000E+00  1.16063E-01
      21    -1     0     0   502   501  0.000000000E+00  0.000000000E+00  3.071648846E+02  3.071648846E+02  0.000000000E+00  0.00000E+00  9.000E+00
      21    -1     0     0   501   512  0.000000000E+00  0.000000000E+00 -2.922634919E+02  2.922634919E+02  0.000000000E+00  0.00000E+00  9.000E+00
      25     1     1     2     0     0  8.134164772E+00  1.083922220E+02  1.768837948E+02  2.423384313E+02  1.250000000E+02  0.00000E+00  9.000E+00
      25     1     1     2     0     0 -5.307934590E+01  3.776993656E+01 -1.466464113E+02  2.034063790E+02  1.250000000E+02  0.00000E+00  9.000E+00
      21     1     1     2   502   512  4.494518113E+01 -1.461621586E+02 -1.533599072E+01  1.536835662E+02  1.839071348E-06  0.00000E+00  9.000E+00
#rwgt            1           1   2.5099157208536237E-002           9       26744           0
</event>
<event>
      5   9999  3.19816E-02  1.02108E+02 -1.00000E+00  1.23422E-01
      21    -1     0     0   502   501  0.000000000E+00  0.000000000E+00  1.459500656E+03  1.459500656E+03  0.000000000E+00  0.00000E+00  9.000E+00
      21    -1     0     0   511   502  0.000000000E+00  0.000000000E+00 -3.275976315E+02  3.275976315E+02  0.000000000E+00  0.00000E+00  9.000E+00
      25     1     1     2     0     0 -5.509603895E+02  1.148115500E+02  9.562506345E+02  1.116592727E+03  1.250000000E+02  0.00000E+00  9.000E+00
      25     1     1     2     0     0  5.084981262E+02 -2.195167485E+01  2.073012294E+02  5.636053762E+02  1.250000000E+02  0.00000E+00  9.000E+00
      21     1     1     2   511   501  4.246226328E+01 -9.285987515E+01 -3.164883964E+01  1.069001837E+02  2.407909617E-06  0.00000E+00  9.000E+00
#rwgt            1           1   3.1515884607944709E-002           9       26800           0
</event>
<event>
      5   9999  3.19816E-02  1.15711E+01 -1.00000E+00  1.88705E-01
      21    -1     0     0   502   501  0.000000000E+00  0.000000000E+00  8.221896627E+02  8.221896627E+02  0.000000000E+00  0.00000E+00  9.000E+00
      21    -1     0     0   512   502  0.000000000E+00  0.000000000E+00 -6.834725180E+02  6.834725180E+02  0.000000000E+00  0.00000E+00  9.000E+00
      25     1     1     2     0     0  2.851462867E+02  4.930866270E+02  5.333689028E+02  7.902848936E+02  1.250000000E+02  0.00000E+00  9.000E+00
      25     1     1     2     0     0 -2.776209728E+02 -4.842968752E+02 -3.531149942E+02  6.722589285E+02  1.250000000E+02  0.00000E+00  9.000E+00
      21     1     1     2   512   501 -7.525313884E+00 -8.789751812E+00 -4.153676396E+01  4.311835858E+01  4.768371582E-07  0.00000E+00  9.000E+00
#rwgt            1           1   2.3785790313137583E-002           9       26940           0
</event>
<event>
      5   9999  3.19816E-02  6.43691E+01 -1.00000E+00  1.33092E-01
      21    -1     0     0   502   501  0.000000000E+00  0.000000000E+00  9.275499966E+02  9.275499966E+02  0.000000000E+00  0.00000E+00  9.000E+00
      21    -1     0     0   511   502  0.000000000E+00  0.000000000E+00 -7.744296162E+01  7.744296162E+01  0.000000000E+00  0.00000E+00  9.000E+00
      25     1     1     2     0     0 -8.746251986E+01  7.152702947E+01  6.825226575E+01  1.817943346E+02  1.250000000E+02  0.00000E+00  9.000E+00
      25     1     1     2     0     0  3.402598885E+01 -1.074145905E+02  6.950428030E+02  7.151259750E+02  1.250000000E+02  0.00000E+00  9.000E+00
      21     1     1     2   511   501  5.343653101E+01  3.588756104E+01  8.681196629E+01  1.080726486E+02  1.907348633E-06  0.00000E+00  9.000E+00
#rwgt            1           1   2.3886179153670827E-002           9       27218           0
</event>
<event>
      5   9999  3.19816E-02  8.75141E+00 -1.00000E+00  2.02700E-01
      21    -1     0     0   502   512  0.000000000E+00  0.000000000E+00  1.189771603E+03  1.189771603E+03  0.000000000E+00  0.00000E+00  9.000E+00
      21    -1     0     0   501   502  0.000000000E+00  0.000000000E+00 -5.727708178E+02  5.727708178E+02  0.000000000E+00  0.00000E+00  9.000E+00
      25     1     1     2     0     0 -6.320991391E+02  1.744126300E+02  2.780008348E+02  7.231034168E+02  1.250000000E+02  0.00000E+00  9.000E+00
      25     1     1     2     0     0  6.374905704E+02 -1.675191774E+02 -2.883417214E+01  6.715007905E+02  1.250000000E+02  0.00000E+00  9.000E+00
      21     1     1     2   501   512 -5.391431285E+00 -6.893452521E+00  3.678341225E+02  3.679382134E+02  5.394796609E-06  0.00000E+00  9.000E+00
#rwgt            1           1   2.2331798216351669E-002           9       27305           0
</event>
<event>
      5   9999  3.19816E-02  3.41686E+01 -1.00000E+00  1.49216E-01
      21    -1     0     0   502   501  0.000000000E+00  0.000000000E+00  8.204298322E+01  8.204298322E+01  0.000000000E+00  0.00000E+00  9.000E+00
       2    -1     0     0   501     0  0.000000000E+00  0.000000000E+00 -1.216504577E+03  1.216504577E+03  0.000000000E+00  0.00000E+00  9.000E+00
      25     1     1     2     0     0 -2.103770089E+02  6.405330158E+01 -6.641587156E+02  7.106990297E+02  1.250000000E+02  0.00000E+00  9.000E+00
      25     1     1     2     0     0  2.427420825E+02 -5.309915303E+01 -2.806280712E+02  3.951206815E+02  1.250000000E+02  0.00000E+00  9.000E+00
       2     1     1     2   502     0 -3.236507360E+01 -1.095414855E+01 -1.896748067E+02  1.927278487E+02  2.697398305E-06  0.00000E+00  9.000E+00
#rwgt            1           1   2.9002483836234692E-002           9       27545           0
</event>
<event>
      5   9999  3.19816E-02  3.96068E+01 -1.00000E+00  1.45107E-01
      21    -1     0     0   511   501  0.000000000E+00  0.000000000E+00  9.154362182E+02  9.154362182E+02  0.000000000E+00  0.00000E+00  9.000E+00
      21    -1     0     0   501   502  0.000000000E+00  0.000000000E+00 -1.283446308E+02  1.283446308E+02  0.000000000E+00  0.00000E+00  9.000E+00
      25     1     1     2     0     0  2.233078092E+02  1.423319581E+02  2.254092054E+02  3.695390018E+02  1.250000000E+02  0.00000E+00  9.000E+00
      25     1     1     2     0     0 -2.177464307E+02 -1.815463663E+02  3.902293726E+02  4.982735739E+02  1.250000000E+02  0.00000E+00  9.000E+00
      21     1     1     2   511   502 -5.561378489E+00  3.921440824E+01  1.714530096E+02  1.759682734E+02  3.303624740E-06  0.00000E+00  9.000E+00
#rwgt            1           1   3.1255415416767227E-002           9       27669           0
</event>
<event>
      5   9999  3.19816E-02  2.63806E+02 -1.00000E+00  1.07439E-01
       1    -1     0     0   502     0  0.000000000E+00  0.000000000E+00  1.398741980E+02  1.398741980E+02  0.000000000E+00  0.00000E+00  9.000E+00
      21    -1     0     0   501   502  0.000000000E+00  0.000000000E+00 -8.350055110E+02  8.350055110E+02  0.000000000E+00  0.00000E+00  9.000E+00
      25     1     1     2     0     0  2.403341480E+01 -1.737961442E+01 -2.394519199E+02  2.717386206E+02  1.250000000E+02  0.00000E+00  9.000E+00
      25     1     1     2     0     0  1.351708029E+02 -1.929712666E+02 -2.769354791E+02  3.844831794E+02  1.250000000E+02  0.00000E+00  9.000E+00
       1     1     1     2   501     0 -1.592042177E+02  2.103508810E+02 -1.787439141E+02  3.186579089E+02  6.607249480E-06  0.00000E+00  9.000E+00
#rwgt            1           1   7.5535275763457976E-002           9       27805           0
</event>
<event>
      5   9999  3.19816E-02  7.11993E+01 -1.00000E+00  1.30848E-01
      21    -1     0     0   511   501  0.000000000E+00  0.000000000E+00  2.561757637E+02  2.561757637E+02  0.000000000E+00  0.00000E+00  9.000E+00
      21    -1     0     0   501   502  0.000000000E+00  0.000000000E+00 -2.040793332E+03  2.040793332E+03  0.000000000E+00  0.00000E+00  9.000E+00
      25     1     1     2     0     0 -6.267539322E+01  2.738398866E+02 -9.586123761E+02  1.006717029E+03  1.250000000E+02  0.00000E+00  9.000E+00
      25     1     1     2     0     0  1.322312649E+02 -2.890493053E+02 -1.024203120E+03  1.079653481E+03  1.250000000E+02  0.00000E+00  9.000E+00
      21     1     1     2   511   502 -6.955587166E+01  1.520941868E+01  1.981979278E+02  2.105985857E+02  8.092194914E-06  0.00000E+00  9.000E+00
#rwgt            1           1   2.4230338771004702E-002           9       27855           0
</event>
<event>
      5   9999  3.19816E-02  6.78546E+01 -1.00000E+00  1.31909E-01
      21    -1     0     0   502   501  0.000000000E+00  0.000000000E+00  1.595195400E+02  1.595195400E+02  0.000000000E+00  0.00000E+00  9.000E+00
      -1    -1     0     0     0   502  0.000000000E+00  0.000000000E+00 -1.592574258E+03  1.592574258E+03  0.000000000E+00  0.00000E+00  9.000E+00
      25     1     1     2     0     0 -1.897110033E+02  2.913398685E+02 -2.621184005E+02  4.529903306E+02  1.250000000E+02  0.00000E+00  9.000E+00
      25     1     1     2     0     0  1.645072389E+02 -2.283397571E+02 -3.151107491E+02  4.405921703E+02  1.250000000E+02  0.00000E+00  9.000E+00
      -1     1     1     2     0   501  2.520376433E+01 -6.300011143E+01 -8.558255681E+02  8.585112969E+02  1.525878906E-05  0.00000E+00  9.000E+00
#rwgt            1           1   2.7748767386996151E-002           9       27953           0
</event>
<event>
      5   9999  3.19816E-02  4.73764E+01 -1.00000E+00  1.40424E-01
      21    -1     0     0   502   501  0.000000000E+00  0.000000000E+00  3.032172960E+02  3.032172960E+02  0.000000000E+00  0.00000E+00  9.000E+00
      21    -1     0     0   511   502  0.000000000E+00  0.000000000E+00 -5.575218875E+02  5.575218875E+02  0.000000000E+00  0.00000E+00  9.000E+00
      25     1     1     2     0     0 -3.059582532E+01 -2.243845980E+02  1.608481877E+02  3.046008730E+02  1.250000000E+02  0.00000E+00  9.000E+00
      25     1     1     2     0     0 -1.527833061E+01  2.362203397E+02 -1.956167238E+02  3.315484563E+02  1.250000000E+02  0.00000E+00  9.000E+00
      21     1     1     2   511   501  4.587415593E+01 -1.183574165E+01 -2.195360555E+02  2.245898542E+02  2.697398305E-06  0.00000E+00  9.000E+00
#rwgt            1           1   2.9029502808293448E-002           9       28043           0
</event>
<event>
      5   9999  3.19816E-02  2.71287E+02 -1.00000E+00  1.07031E-01
      21    -1     0     0   502   512  0.000000000E+00  0.000000000E+00  3.494071280E+02  3.494071280E+02  0.000000000E+00  0.00000E+00  9.000E+00
      21    -1     0     0   501   502  0.000000000E+00  0.000000000E+00 -1.247824164E+03  1.247824164E+03  0.000000000E+00  0.00000E+00  9.000E+00
      25     1     1     2     0     0  4.393449269E+02  1.742011998E+02 -6.835849948E+02  8.404067276E+02  1.250000000E+02  0.00000E+00  9.000E+00
      25     1     1     2     0     0 -4.125931649E+02  9.576341337E+01 -2.009292020E+02  4.851817137E+02  1.250000000E+02  0.00000E+00  9.000E+00
      21     1     1     2   501   512 -2.675176194E+01 -2.699646132E+02 -1.390283871E+01  2.716428502E+02  6.457139284E-06  0.00000E+00  9.000E+00
#rwgt            1           1   2.9578215527448309E-002           9       28165           0
</event>
<event>
      5   9999  3.19816E-02  4.46807E+01 -1.00000E+00  1.41921E-01
      21    -1     0     0   502   501  0.000000000E+00  0.000000000E+00  3.506596861E+03  3.506596861E+03  0.000000000E+00  0.00000E+00  9.000E+00
      21    -1     0     0   501   511  0.000000000E+00  0.000000000E+00 -6.210385702E+01  6.210385702E+01  0.000000000E+00  0.00000E+00  9.000E+00
      25     1     1     2     0     0  3.643157462E+02  2.189420192E+02  1.647097265E+03  1.705642393E+03  1.250000000E+02  0.00000E+00  9.000E+00
      25     1     1     2     0     0 -3.202871259E+02 -2.265477264E+02  1.750551432E+03  1.798322282E+03  1.250000000E+02  0.00000E+00  9.000E+00
      21     1     1     2   502   511 -4.402862036E+01  7.605707196E+00  4.684430737E+01  6.473604348E+01  1.651812370E-06  0.00000E+00  9.000E+00
#rwgt            1           1   2.2218782451735003E-002           9       28236           0
</event>
<event>
      5   9999  3.19816E-02  1.52614E+02 -1.00000E+00  1.16097E-01
      21    -1     0     0   512   501  0.000000000E+00  0.000000000E+00  2.683905168E+02  2.683905168E+02  0.000000000E+00  0.00000E+00  9.000E+00
      21    -1     0     0   501   502  0.000000000E+00  0.000000000E+00 -4.896884664E+02  4.896884664E+02  0.000000000E+00  0.00000E+00  9.000E+00
      25     1     1     2     0     0 -2.601580314E+01  4.057185580E+01  1.034502015E+02  1.692626411E+02  1.250000000E+02  0.00000E+00  9.000E+00
      25     1     1     2     0     0  1.444084556E+02 -1.368753075E+02 -3.621351297E+02  4.316891289E+02  1.250000000E+02  0.00000E+00  9.000E+00
      21     1     1     2   512   502 -1.183926524E+02  9.630345167E+01  3.738697855E+01  1.571272132E+02  2.977847099E-06  0.00000E+00  9.000E+00
#rwgt            1           1   2.7338194154423373E-002           9       28327           0
</event>
<event>
      5   9999  3.19816E-02  2.95112E+02 -1.00000E+00  1.05824E-01
      21    -1     0     0   502   501  0.000000000E+00  0.000000000E+00  4.684318708E+02  4.684318708E+02  0.000000000E+00  0.00000E+00  9.000E+00
       5    -1     0     0   501     0  0.000000000E+00  0.000000000E+00 -1.293318586E+03  1.293318586E+03  0.000000000E+00  0.00000E+00  9.000E+00
      25     1     1     2     0     0  8.471434402E+00 -1.604788938E+02  3.142135606E+02  3.744067336E+02  1.250000000E+02  0.00000E+00  9.000E+00
      25     1     1     2     0     0  5.770219041E+01 -1.271184005E+02  2.260077495E+01  1.887443391E+02  1.250000000E+02  0.00000E+00  9.000E+00
       5     1     1     2   502     0 -6.617362481E+01  2.875972943E+02 -1.161701050E+03  1.198599384E+03  2.157918644E-05  0.00000E+00  9.000E+00
#rwgt            2          16   3.0991251375582198E-004           9       28392           0
</event>
<event>
      5   9999  3.19816E-02  7.54779E+01 -1.00000E+00  1.29585E-01
      21    -1     0     0   502   501  0.000000000E+00  0.000000000E+00  7.575196667E+02  7.575196667E+02  0.000000000E+00  0.00000E+00  9.000E+00
      21    -1     0     0   501   511  0.000000000E+00  0.000000000E+00 -1.838771304E+03  1.838771304E+03  0.000000000E+00  0.00000E+00  9.000E+00
      25     1     1     2     0     0 -1.161202388E+02  3.350480357E+02 -8.960393889E+01  3.865164446E+02  1.250000000E+02  0.00000E+00  9.000E+00
      25     1     1     2     0     0  1.727538025E+02 -2.851526824E+02  5.560257271E+02  6.602617191E+02  1.250000000E+02  0.00000E+00  9.000E+00
      21     1     1     2   502   511 -5.663356363E+01 -4.989535331E+01 -1.547673426E+03  1.549512807E+03  2.157918644E-05  0.00000E+00  9.000E+00
#rwgt            1           1   2.6206909507319874E-002           9       28426           0
</event>
<event>
      5   9999  3.19816E-02  1.03356E+02 -1.00000E+00  1.23186E-01
      21    -1     0     0   502   501  0.000000000E+00  0.000000000E+00  1.565226022E+03  1.565226022E+03  0.000000000E+00  0.00000E+00  9.000E+00
      21    -1     0     0   512   502  0.000000000E+00  0.000000000E+00 -8.596723809E+01  8.596723809E+01  0.000000000E+00  0.00000E+00  9.000E+00
      25     1     1     2     0     0  2.233435137E+02 -7.441978908E+01  4.538793253E+02  5.263573616E+02  1.250000000E+02  0.00000E+00  9.000E+00
      25     1     1     2     0     0 -3.236062411E+02  4.932151549E+01  8.731546727E+02  9.408388244E+02  1.250000000E+02  0.00000E+00  9.000E+00
      21     1     1     2   512   501  1.002627273E+02  2.509827359E+01  1.522247860E+02  1.839970742E+02  1.907348633E-06  0.00000E+00  9.000E+00
#rwgt            1           1   2.9608493206135636E-002           9       28520           0
</event>
<event>
      5   9999  3.19816E-02  9.04758E+01 -1.00000E+00  1.25815E-01
      21    -1     0     0   502   501  0.000000000E+00  0.000000000E+00  3.540159509E+01  3.540159509E+01  0.000000000E+00  0.00000E+00  9.000E+00
       1    -1     0     0   501     0  0.000000000E+00  0.000000000E+00 -3.160621481E+03  3.160621481E+03  0.000000000E+00  0.00000E+00  9.000E+00
      25     1     1     2     0     0 -7.583035319E+01  1.654123413E+02 -5.850260792E+02  6.252935298E+02  1.250000000E+02  0.00000E+00  9.000E+00
      25     1     1     2     0     0  1.342663536E+02 -2.344855066E+02 -1.721800086E+03  1.747349834E+03  1.250000000E+02  0.00000E+00  9.000E+00
       1     1     1     2   502     0 -5.843600037E+01  6.907316531E+01 -8.183937215E+02  8.233797130E+02  0.000000000E+00  0.00000E+00  9.000E+00
#rwgt            1           1   6.5457705197782073E-002           9       28601           0
</event>
<event>
      5   9999  3.19816E-02  2.47870E+02 -1.00000E+00  1.08357E-01
      21    -1     0     0   502   501  0.000000000E+00  0.000000000E+00  7.073751130E+02  7.073751130E+02  0.000000000E+00  0.00000E+00  9.000E+00
      21    -1     0     0   501   511  0.000000000E+00  0.000000000E+00 -2.227697155E+02  2.227697155E+02  0.000000000E+00  0.00000E+00  9.000E+00
      25     1     1     2     0     0  1.504763772E+02 -1.903770670E+02  5.530588384E+01  2.785144674E+02  1.250000000E+02  0.00000E+00  9.000E+00
      25     1     1     2     0     0 -4.027472554E+01 -3.164806911E+01  3.740244508E+02  3.976719045E+02  1.250000000E+02  0.00000E+00  9.000E+00
      21     1     1     2   502   511 -1.102016516E+02  2.220251362E+02  5.527506290E+01  2.539584566E+02  1.784161275E-06  0.00000E+00  9.000E+00
#rwgt            1           1   2.6476008345870314E-002           9       28691           0
</event>
<event>
      5   9999  3.19816E-02  1.29298E+01 -1.00000E+00  1.83684E-01
      21    -1     0     0   512   501  0.000000000E+00  0.000000000E+00  1.668828220E+03  1.668828220E+03  0.000000000E+00  0.00000E+00  9.000E+00
      21    -1     0     0   501   502  0.000000000E+00  0.000000000E+00 -2.363395372E+02  2.363395372E+02  0.000000000E+00  0.00000E+00  9.000E+00
      25     1     1     2     0     0  1.052328896E+02 -5.678131326E+01 -1.143811952E+02  2.073792092E+02  1.250000000E+02  0.00000E+00  9.000E+00
      25     1     1     2     0     0 -1.106270534E+02  4.503045158E+01  2.363457084E+01  1.744983652E+02  1.250000000E+02  0.00000E+00  9.000E+00
      21     1     1     2   512   502  5.394163864E+00  1.175086169E+01  1.523235308E+03  1.523290183E+03  3.051757812E-05  0.00000E+00  9.000E+00
#rwgt            1           1   2.6208499153176863E-002           9       28739           0
</event>
<event>
      5   9999  3.19816E-02  1.00742E+02 -1.00000E+00  1.23684E-01
      21    -1     0     0   511   501  0.000000000E+00  0.000000000E+00  8.258459376E+01  8.258459376E+01  0.000000000E+00  0.00000E+00  9.000E+00
      21    -1     0     0   501   502  0.000000000E+00  0.000000000E+00 -1.134761240E+03  1.134761240E+03  0.000000000E+00  0.00000E+00  9.000E+00
      25     1     1     2     0     0  1.247261869E+02 -9.185492743E+01 -8.796365965E+02  9.018755409E+02  1.250000000E+02  0.00000E+00  9.000E+00
      25     1     1     2     0     0 -7.738241841E+01  2.930474686E+00 -4.671690922E+01  1.542857607E+02  1.250000000E+02  0.00000E+00  9.000E+00
      21     1     1     2   511   502 -4.734376845E+01  8.892445274E+01 -1.258231406E+02  1.611845322E+02  3.015782986E-06  0.00000E+00  9.000E+00
#rwgt            1           1   2.7674186649941153E-002           9       28903           0
</event>
<event>
      5   9999  3.19816E-02  4.75852E+01 -1.00000E+00  1.40313E-01
      21    -1     0     0   512   501  0.000000000E+00  0.000000000E+00  9.083943408E+02  9.083943408E+02  0.000000000E+00  0.00000E+00  9.000E+00
      21    -1     0     0   501   502  0.000000000E+00  0.000000000E+00 -1.414824223E+02  1.414824223E+02  0.000000000E+00  0.00000E+00  9.000E+00
      25     1     1     2     0     0 -2.047325039E+02 -2.231805529E+02  4.600808653E+02  5.648224145E+02  1.250000000E+02  0.00000E+00  9.000E+00
      25     1     1     2     0     0  1.643283919E+02  2.483173047E+02  2.370945887E+02  4.006296896E+02  1.250000000E+02  0.00000E+00  9.000E+00
      21     1     1     2   512   502  4.040411199E+01 -2.513675187E+01  6.973646456E+01  8.442465902E+01  1.348699152E-06  0.00000E+00  9.000E+00
#rwgt            1           1   2.7609377677236771E-002           9       28970           0
</event>
<event>
      5   9999  3.19816E-02  3.70193E+01 -1.00000E+00  1.46957E-01
      21    -1     0     0   502   501  0.000000000E+00  0.000000000E+00  6.881917934E+01  6.881917934E+01  0.000000000E+00  0.00000E+00  9.000E+00
      21    -1     0     0   511   502  0.000000000E+00  0.000000000E+00 -2.967364229E+03  2.967364229E+03  0.000000000E+00  0.00000E+00  9.000E+00
      25     1     1     2     0     0 -2.326300520E+02 -6.942037809E+01 -2.155502980E+03  2.172729626E+03  1.250000000E+02  0.00000E+00  9.000E+00
      25     1     1     2     0     0  2.245739012E+02  3.328825471E+01 -2.224334781E+02  3.415306679E+02  1.250000000E+02  0.00000E+00  9.000E+00
      21     1     1     2   511   501  8.056150850E+00  3.613212338E+01 -5.206085914E+02  5.219231144E+02  7.629394531E-06  0.00000E+00  9.000E+00
#rwgt            1           1   7.9159503790308519E-002           9       29064           0
</event>
<event>
      5   9999  3.19816E-02  1.00647E+02 -1.00000E+00  1.23702E-01
      21    -1     0     0   502   501  0.000000000E+00  0.000000000E+00  7.184239396E+01  7.184239396E+01  0.000000000E+00  0.00000E+00  9.000E+00
      21    -1     0     0   501   512  0.000000000E+00  0.000000000E+00 -1.157436326E+03  1.157436326E+03  0.000000000E+00  0.00000E+00  9.000E+00
      25     1     1     2     0     0 -2.032162203E+02 -1.500130738E+01 -2.701242672E+02  3.607131702E+02  1.250000000E+02  0.00000E+00  9.000E+00
      25     1     1     2     0     0  1.357457049E+02 -5.968108963E+01 -6.038595415E+02  6.342397612E+02  1.250000000E+02  0.00000E+00  9.000E+00
      21     1     1     2   502   512  6.747051547E+01  7.468239700E+01 -2.116101236E+02  2.343257888E+02  2.697398305E-06  0.00000E+00  9.000E+00
#rwgt            1           1   2.6229562416669700E-002           9       29191           0
</event>
<event>
      5   9999  3.19816E-02  1.59026E+02 -1.00000E+00  1.15397E-01
      21    -1     0     0   502   501  0.000000000E+00  0.000000000E+00  1.280208413E+03  1.280208413E+03  0.000000000E+00  0.00000E+00  9.000E+00
      21    -1     0     0   511   502  0.000000000E+00  0.000000000E+00 -6.186305375E+02  6.186305375E+02  0.000000000E+00  0.00000E+00  9.000E+00
      25     1     1     2     0     0 -2.587011498E+02 -2.561322710E+01  1.211530248E+03  1.245396670E+03  1.250000000E+02  0.00000E+00  9.000E+00
      25     1     1     2     0     0  1.096323896E+02  8.100200217E+01 -3.674881306E+02  4.114038300E+02  1.250000000E+02  0.00000E+00  9.000E+00
      21     1     1     2   511   501  1.490687602E+02 -5.538877507E+01 -1.824642425E+02  2.420384504E+02  0.000000000E+00  0.00000E+00  9.000E+00
#rwgt            1           1   2.9072620659579586E-002           9       29269           0
</event>
<event>
      5   9999  3.19816E-02  5.43885E+01 -1.00000E+00  1.37022E-01
      21    -1     0     0   502   512  0.000000000E+00  0.000000000E+00  6.400385988E+02  6.400385988E+02  0.000000000E+00  0.00000E+00  9.000E+00
      21    -1     0     0   501   502  0.000000000E+00  0.000000000E+00 -4.985693100E+02  4.985693100E+02  0.000000000E+00  0.00000E+00  9.000E+00
      25     1     1     2     0     0 -1.042509632E+02 -1.421632992E+02  2.592715589E+02  3.375283814E+02  1.250000000E+02  0.00000E+00  9.000E+00
      25     1     1     2     0     0  1.169251012E+02  1.950544370E+02 -4.201762537E+02  4.938530114E+02  1.250000000E+02  0.00000E+00  9.000E+00
      21     1     1     2   501   512 -1.267413797E+01 -5.289113788E+01  3.023739835E+02  3.072265160E+02  3.814697266E-06  0.00000E+00  9.000E+00
#rwgt            1           1   2.5970358003403804E-002           9       29345           0
</event>
<event>
      5   9999  3.19816E-02  1.15151E+01 -1.00000E+00  1.88931E-01
      21    -1     0     0   502   501  0.000000000E+00  0.000000000E+00  2.956539039E+02  2.956539039E+02  0.000000000E+00  0.00000E+00  9.000E+00
      21    -1     0     0   511   502  0.000000000E+00  0.000000000E+00 -4.589545774E+02  4.589545774E+02  0.000000000E+00  0.00000E+00  9.000E+00
      25     1     1     2     0     0  9.237080389E+01 -3.718346130E+01  4.830954649E+01  1.669544473E+02  1.250000000E+02  0.00000E+00  9.000E+00
      25     1     1     2     0     0 -9.513660497E+01  2.600547531E+01  1.542058807E+02  2.216567436E+02  1.250000000E+02  0.00000E+00  9.000E+00
      21     1     1     2   511   501  2.765801076E+00  1.117798600E+01 -3.658161007E+02  3.659972904E+02  0.000000000E+00  0.00000E+00  9.000E+00
#rwgt            1           1   3.1105041763629600E-002           9       29500           0
</event>
<event>
      5   9999  3.19816E-02  2.45295E+01 -1.00000E+00  1.59371E-01
      21    -1     0     0   502   512  0.000000000E+00  0.000000000E+00  1.954819274E+02  1.954819274E+02  0.000000000E+00  0.00000E+00  9.000E+00
      21    -1     0     0   501   502  0.000000000E+00  0.000000000E+00 -2.801516408E+02  2.801516408E+02  0.000000000E+00  0.00000E+00  9.000E+00
      25     1     1     2     0     0  7.897520491E+01 -1.808945012E+01  8.076230171E+01  1.694457452E+02  1.250000000E+02  0.00000E+00  9.000E+00
      25     1     1     2     0     0 -1.033788917E+02  1.560817684E+01 -2.036199172E+02  2.608004622E+02  1.250000000E+02  0.00000E+00  9.000E+00
      21     1     1     2   501   512  2.440368678E+01  2.481273284E+00  3.818790204E+01  4.538736066E+01  6.743495762E-07  0.00000E+00  9.000E+00
#rwgt            1           1   2.8833129307674659E-002           9       29662           0
</event>
<event>
      5   9999  3.19816E-02  1.33983E+02 -1.00000E+00  1.18371E-01
      21    -1     0     0   502   501  0.000000000E+00  0.000000000E+00  2.832584172E+02  2.832584172E+02  0.000000000E+00  0.00000E+00  9.000E+00
      21    -1     0     0   501   511  0.000000000E+00  0.000000000E+00 -1.036185886E+03  1.036185886E+03  0.000000000E+00  0.00000E+00  9.000E+00
      25     1     1     2     0     0 -1.790539075E+02  1.786346457E+01  1.671298500E+02  2.755663113E+02  1.250000000E+02  0.00000E+00  9.000E+00
      25     1     1     2     0     0  3.124528485E+02 -3.035915518E+01 -7.800588444E+02  8.500972072E+02  1.250000000E+02  0.00000E+00  9.000E+00
      21     1     1     2   502   511 -1.333989410E+02  1.249569060E+01 -1.399984748E+02  1.937807851E+02  1.907348633E-06  0.00000E+00  9.000E+00
#rwgt            1           1   2.9792495896528617E-002           9       29813           0
</event>
<event>
      5   9999  3.19816E-02  1.14650E+02 -1.00000E+00  1.21215E-01
      21    -1     0     0   502   501  0.000000000E+00  0.000000000E+00  8.721912347E+02  8.721912347E+02  0.000000000E+00  0.00000E+00  9.000E+00
      21    -1     0     0   512   502  0.000000000E+00  0.000000000E+00 -4.141659830E+02  4.141659830E+02  0.000000000E+00  0.00000E+00  9.000E+00
      25     1     1     2     0     0  6.217909039E+01 -4.830625845E+02  8.564962091E+01  5.100750508E+02  1.250000000E+02  0.00000E+00  9.000E+00
      25     1     1     2     0     0  4.013334847E+01  5.348008047E+02  3.664817935E+02  6.614805298E+02  1.250000000E+02  0.00000E+00  9.000E+00
      21     1     1     2   512   501 -1.023124389E+02 -5.173822016E+01  5.893837333E+00  1.148016371E+02  2.661599345E-06  0.00000E+00  9.000E+00
#rwgt            1           1   3.0233238604335824E-002           9       29891           0
</event>
<event>
      5   9999  3.19816E-02  7.83382E+01 -1.00000E+00  1.28792E-01
      21    -1     0     0   502   501  0.000000000E+00  0.000000000E+00  3.500855692E+02  3.500855692E+02  0.000000000E+00  0.00000E+00  9.000E+00
      21    -1     0     0   511   502  0.000000000E+00  0.000000000E+00 -2.091693076E+02  2.091693076E+02  0.000000000E+00  0.00000E+00  9.000E+00
      25     1     1     2     0     0 -1.984011371E+02  7.811304999E+01  1.481920679E+02  2.881849212E+02  1.250000000E+02  0.00000E+00  9.000E+00
      25     1     1     2     0     0  1.202453881E+02 -7.276955075E+01  1.750220184E+01  1.889065588E+02  1.250000000E+02  0.00000E+00  9.000E+00
      21     1     1     2   511   501  7.815574903E+01 -5.343499243E+00 -2.477800815E+01  8.216339683E+01  1.215700987E-06  0.00000E+00  9.000E+00
#rwgt            1           1   2.9400253789122397E-002           9       29946           0
</event>
<event>
      5   9999  3.19816E-02  1.70772E+02 -1.00000E+00  1.14204E-01
      21    -1     0     0   512   501  0.000000000E+00  0.000000000E+00  7.936175053E+01  7.936175053E+01  0.000000000E+00  0.00000E+00  9.000E+00
      21    -1     0     0   501   502  0.000000000E+00  0.000000000E+00 -1.935387005E+03  1.935387005E+03  0.000000000E+00  0.00000E+00  9.000E+00
      25     1     1     2     0     0 -2.526897853E+02 -2.074658002E+02 -6.755909331E+02  7.608825762E+02  1.250000000E+02  0.00000E+00  9.000E+00
      25     1     1     2     0     0  1.144726480E+02  1.071706397E+02 -9.257952663E+02  9.472652260E+02  1.250000000E+02  0.00000E+00  9.000E+00
      21     1     1     2   512   502  1.382171374E+02  1.002951605E+02 -2.546390552E+02  3.066009535E+02  6.607249480E-06  0.00000E+00  9.000E+00
#rwgt            1           1   3.1534772504577473E-002           9       30002           0
</event>
<event>
      5   9999  3.19816E-02  3.95586E+01 -1.00000E+00  1.45140E-01
      21    -1     0     0   511   501  0.000000000E+00  0.000000000E+00  3.791193942E+02  3.791193942E+02  0.000000000E+00  0.00000E+00  9.000E+00
      21    -1     0     0   501   502  0.000000000E+00  0.000000000E+00 -2.770470741E+02  2.770470741E+02  0.000000000E+00  0.00000E+00  9.000E+00
      25     1     1     2     0     0  4.539319662E+01 -1.736938474E+02  9.059501373E+01  2.367753185E+02  1.250000000E+02  0.00000E+00  9.000E+00
      25     1     1     2     0     0 -2.732442779E+01  1.385029598E+02 -1.575994013E+02  2.457483785E+02  1.250000000E+02  0.00000E+00  9.000E+00
      21     1     1     2   511   502 -1.806876883E+01  3.519088764E+01  1.690767077E+02  1.736427714E+02  1.907348633E-06  0.00000E+00  9.000E+00
#rwgt            1           1   2.9748885628838852E-002           9       30076           0
</event>
<event>
      5   9999  3.19816E-02  2.25528E+01 -1.00000E+00  1.62177E-01
      21    -1     0     0   502   501  0.000000000E+00  0.000000000E+00  1.734017008E+03  1.734017008E+03  0.000000000E+00  0.00000E+00  9.000E+00
      -4    -1     0     0     0   502  0.000000000E+00  0.000000000E+00 -2.492516730E+02  2.492516730E+02  0.000000000E+00  0.00000E+00  9.000E+00
      25     1     1     2     0     0  7.930253758E+01 -2.984376484E+01  1.550064222E+03  1.557402849E+03  1.250000000E+02  0.00000E+00  9.000E+00
      25     1     1     2     0     0 -7.600666005E+01  5.215441659E+01  1.461218533E+02  2.132456132E+02  1.250000000E+02  0.00000E+00  9.000E+00
      -4     1     1     2     0   501 -3.295877535E+00 -2.231065175E+01 -2.114207401E+02  2.126202186E+02  5.394796609E-06  0.00000E+00  9.000E+00
#rwgt            1           1   3.0093828161486064E-002           9       30182           0
</event>
<event>
      5   9999  3.19816E-02  1.21073E+02 -1.00000E+00  1.20204E-01
      21    -1     0     0   511   501  0.000000000E+00  0.000000000E+00  5.308605850E+01  5.308605850E+01  0.000000000E+00  0.00000E+00  9.000E+00
      21    -1     0     0   501   502  0.000000000E+00  0.000000000E+00 -3.460441910E+03  3.460441910E+03  0.000000000E+00  0.00000E+00  9.000E+00
      25     1     1     2     0     0 -2.699778586E+02 -1.819225180E+02 -1.451861312E+03  1.493154418E+03  1.250000000E+02  0.00000E+00  9.000E+00
      25     1     1     2     0     0  1.521880547E+02  2.099279005E+02 -1.802151953E+03  1.824995230E+03  1.250000000E+02  0.00000E+00  9.000E+00
      21     1     1     2   511   502  1.177898039E+02 -2.800538247E+01 -1.533425868E+02  1.953783209E+02  0.000000000E+00  0.00000E+00  9.000E+00
#rwgt            1           1   2.3326163980099821E-002           9       30312           0
</event>
<event>
      5   9999  3.19816E-02  2.46314E+02 -1.00000E+00  1.08451E-01
       2    -1     0     0   502     0  0.000000000E+00  0.000000000E+00  6.749860058E+02  6.749860058E+02  0.000000000E+00  0.00000E+00  9.000E+00
      21    -1     0     0   501   502  0.000000000E+00  0.000000000E+00 -1.057761491E+03  1.057761491E+03  0.000000000E+00  0.00000E+00  9.000E+00
      25     1     1     2     0     0 -1.075832977E+02  3.322908741E+02 -2.264876309E+02  4.346412750E+02  1.250000000E+02  0.00000E+00  9.000E+00
      25     1     1     2     0     0 -7.615583672E+01 -1.682467051E+02 -6.820091788E+02  7.175431592E+02  1.250000000E+02  0.00000E+00  9.000E+00
       2     1     1     2   501     0  1.837391344E+02 -1.640441690E+02  5.257213244E+02  5.805630628E+02  0.000000000E+00  0.00000E+00  9.000E+00
#rwgt            2          18   1.9672384943868713E-003           9       30642           0
</event>
<event>
      5   9999  3.19816E-02  7.56712E+01 -1.00000E+00  1.29530E-01
      21    -1     0     0   511   501  0.000000000E+00  0.000000000E+00  1.297130552E+02  1.297130552E+02  0.000000000E+00  0.00000E+00  9.000E+00
      21    -1     0     0   501   502  0.000000000E+00  0.000000000E+00 -1.928433123E+03  1.928433123E+03  0.000000000E+00  0.00000E+00  9.000E+00
      25     1     1     2     0     0 -8.898572361E+00 -2.723514460E+02 -1.667753173E+03  1.694485214E+03  1.250000000E+02  0.00000E+00  9.000E+00
      25     1     1     2     0     0  3.751361371E+01  2.022992345E+02 -1.525071801E+02  2.849836688E+02  1.250000000E+02  0.00000E+00  9.000E+00
      21     1     1     2   511   502 -2.861504135E+01  7.005221155E+01  2.154028523E+01  7.867729547E+01  3.090257978E-06  0.00000E+00  9.000E+00
#rwgt            1           1   3.0673912745431475E-002           9       30691           0
</event>
<event>
      5   9999  3.19816E-02  2.04836E+02 -1.00000E+00  1.11272E-01
      21    -1     0     0   512   501  0.000000000E+00  0.000000000E+00  1.209629954E+03  1.209629954E+03  0.000000000E+00  0.00000E+00  9.000E+00
      21    -1     0     0   501   502  0.000000000E+00  0.000000000E+00 -6.274214196E+02  6.274214196E+02  0.000000000E+00  0.00000E+00  9.000E+00
      25     1     1     2     0     0 -1.407371119E+02  1.723294805E+02 -5.153087644E+02  5.750413091E+02  1.250000000E+02  0.00000E+00  9.000E+00
      25     1     1     2     0     0  3.453703478E+02 -1.632072235E+02  5.820618531E+02  7.073459379E+02  1.250000000E+02  0.00000E+00  9.000E+00
      21     1     1     2   512   502 -2.046332359E+02 -9.122256993E+00  5.154554455E+02  5.546641264E+02  7.629394531E-06  0.00000E+00  9.000E+00
#rwgt            1           1   2.9504675472424149E-002           9       30737           0
</event>
<event>
      5   9999  3.19816E-02  1.96748E+02 -1.00000E+00  1.11908E-01
      21    -1     0     0   511   501  0.000000000E+00  0.000000000E+00  2.345460111E+02  2.345460111E+02  0.000000000E+00  0.00000E+00  9.000E+00
      21    -1     0     0   501   502  0.000000000E+00  0.000000000E+00 -8.133331246E+02  8.133331246E+02  0.000000000E+00  0.00000E+00  9.000E+00
      25     1     1     2     0     0  1.498579680E+01  1.788750496E+02 -1.654964910E+02  2.742898941E+02  1.250000000E+02  0.00000E+00  9.000E+00
      25     1     1     2     0     0  1.348297422E+02 -3.064098602E+02 -4.487782571E+02  5.736662669E+02  1.250000000E+02  0.00000E+00  9.000E+00
      21     1     1     2   511   502 -1.498155390E+02  1.275348106E+02  3.548763452E+01  1.999229747E+02  3.844384073E-06  0.00000E+00  9.000E+00
#rwgt            1           1   3.1604965648428053E-002           9       30814           0
</event>
<event>
      5   9999  3.19816E-02  1.52217E+02 -1.00000E+00  1.16142E-01
      21    -1     0     0   512   501  0.000000000E+00  0.000000000E+00  4.344610752E+02  4.344610752E+02  0.000000000E+00  0.00000E+00  9.000E+00
      21    -1     0     0   501   502  0.000000000E+00  0.000000000E+00 -9.765056576E+02  9.765056576E+02  0.000000000E+00  0.00000E+00  9.000E+00
      25     1     1     2     0     0 -4.291279844E+02  4.580656353E+02 -3.009481919E+02  7.072268147E+02  1.250000000E+02  0.00000E+00  9.000E+00
      25     1     1     2     0     0  2.883531469E+02 -4.001640528E+02 -1.801784138E+02  5.397852048E+02  1.250000000E+02  0.00000E+00  9.000E+00
      21     1     1     2   512   502  1.407748375E+02 -5.790158248E+01 -6.091797671E+01  1.639547133E+02  3.303624740E-06  0.00000E+00  9.000E+00
#rwgt            1           1   3.0134386607653961E-002           9       30854           0
</event>
<event>
      5   9999  3.19816E-02  1.90862E+01 -1.00000E+00  1.68062E-01
      21    -1     0     0   502   511  0.000000000E+00  0.000000000E+00  5.432775078E+02  5.432775078E+02  0.000000000E+00  0.00000E+00  9.000E+00
      21    -1     0     0   501   502  0.000000000E+00  0.000000000E+00 -1.033148290E+03  1.033148290E+03  0.000000000E+00  0.00000E+00  9.000E+00
      25     1     1     2     0     0 -3.478182779E+02 -6.013898250E+02 -3.376774646E+02  7.824949496E+02  1.250000000E+02  0.00000E+00  9.000E+00
      25     1     1     2     0     0  3.655719383E+02  6.083963328E+02 -1.953773957E+02  7.467169923E+02  1.250000000E+02  0.00000E+00  9.000E+00
      21     1     1     2   501   511 -1.775366039E+01 -7.006507821E+00  4.318407797E+01  4.721385601E+01  6.743495762E-07  0.00000E+00  9.000E+00
#rwgt            1           1   2.7372523441614456E-002           9       30958           0
</event>
<event>
      5   9999  3.19816E-02  5.70522E+01 -1.00000E+00  1.35883E-01
      21    -1     0     0   512   501  0.000000000E+00  0.000000000E+00  8.032716052E+02  8.032716052E+02  0.000000000E+00  0.00000E+00  9.000E+00
      21    -1     0     0   501   502  0.000000000E+00  0.000000000E+00 -5.162561310E+01  5.162561310E+01  0.000000000E+00  0.00000E+00  9.000E+00
      25     1     1     2     0     0 -3.124483632E+01  1.716615585E+01  5.337329307E+02  5.493330119E+02  1.250000000E+02  0.00000E+00  9.000E+00
      25     1     1     2     0     0 -9.306909395E+00  2.296497981E+01  6.646000114E+01  1.437217472E+02  1.250000000E+02  0.00000E+00  9.000E+00
      21     1     1     2   512   502  4.055174572E+01 -4.013113565E+01  1.514530603E+02  1.618424592E+02  0.000000000E+00  0.00000E+00  9.000E+00
#rwgt            1           1   3.5275449085709169E-002           9       31160           0
</event>
<event>
      5   9999  3.19816E-02  2.23809E+02 -1.00000E+00  1.09898E-01
      21    -1     0     0   502   511  0.000000000E+00  0.000000000E+00  2.320278164E+02  2.320278164E+02  0.000000000E+00  0.00000E+00  9.000E+00
      21    -1     0     0   501   502  0.000000000E+00  0.000000000E+00 -1.226173552E+03  1.226173552E+03  0.000000000E+00  0.00000E+00  9.000E+00
      25     1     1     2     0     0 -7.313818401E+01  3.445599116E+01 -9.608698286E+02  9.723333980E+02  1.250000000E+02  0.00000E+00  9.000E+00
      25     1     1     2     0     0  5.627157455E+01  1.887167405E+02  6.394267654E+01  2.418556680E+02  1.250000000E+02  0.00000E+00  9.000E+00
      21     1     1     2   501   511  1.686660946E+01 -2.231727317E+02 -9.721858330E+01  2.440123022E+02  2.697398305E-06  0.00000E+00  9.000E+00
#rwgt            1           1   2.5538483634798825E-002           9       31256           0
</event>
<event>
      5   9999  3.19816E-02  1.37128E+01 -1.00000E+00  1.81135E-01
      21    -1     0     0   502   501  0.000000000E+00  0.000000000E+00  2.448262407E+03  2.448262407E+03  0.000000000E+00  0.00000E+00  9.000E+00
      21    -1     0     0   512   502  0.000000000E+00  0.000000000E+00 -2.418585884E+02  2.418585884E+02  0.000000000E+00  0.00000E+00  9.000E+00
      25     1     1     2     0     0 -1.666830144E+02 -6.870684765E+02  6.237061887E+02  9.510419173E+02  1.250000000E+02  0.00000E+00  9.000E+00
      25     1     1     2     0     0  1.648612639E+02  6.734771956E+02  1.567812693E+03  1.718840426E+03  1.250000000E+02  0.00000E+00  9.000E+00
      21     1     1     2   512   501  1.821750468E+00  1.359128095E+01  1.488493678E+01  2.023865202E+01  4.129530925E-07  0.00000E+00  9.000E+00
#rwgt            1           1   1.9552752772770229E-002           9       31299           0
</event>
<event>
      5   9999  3.19816E-02  9.63656E+01 -1.00000E+00  1.24555E-01
      21    -1     0     0   502   501  0.000000000E+00  0.000000000E+00  3.866751101E+02  3.866751101E+02  0.000000000E+00  0.00000E+00  9.000E+00
      -1    -1     0     0     0   502  0.000000000E+00  0.000000000E+00 -3.159302487E+02  3.159302487E+02  0.000000000E+00  0.00000E+00  9.000E+00
      25     1     1     2     0     0  2.149566197E+01 -2.072971135E+02  2.467595606E+02  3.463371731E+02  1.250000000E+02  0.00000E+00  9.000E+00
      25     1     1     2     0     0 -3.212955100E+00  1.126816900E+02 -1.954729386E+02  2.579576633E+02  1.250000000E+02  0.00000E+00  9.000E+00
      -1     1     1     2     0   501 -1.828270687E+01  9.461542349E+01  1.945823941E+01  9.831052240E+01  1.215700987E-06  0.00000E+00  9.000E+00
#rwgt            1           1   2.7399204225528134E-002           9       31583           0
</event>
<event>
      5   9999  3.19816E-02  4.02912E+01 -1.00000E+00  1.44645E-01
      21    -1     0     0   502   511  0.000000000E+00  0.000000000E+00  1.261732970E+03  1.261732970E+03  0.000000000E+00  0.00000E+00  9.000E+00
      21    -1     0     0   501   502  0.000000000E+00  0.000000000E+00 -7.289032071E+02  7.289032071E+02  0.000000000E+00  0.00000E+00  9.000E+00
      25     1     1     2     0     0 -1.814537571E+02 -8.482617502E+02  5.335796377E+02  1.026063201E+03  1.250000000E+02  0.00000E+00  9.000E+00
      25     1     1     2     0     0  1.859832146E+02  8.882975010E+02 -2.693231288E+01  9.165219888E+02  1.250000000E+02  0.00000E+00  9.000E+00
      21     1     1     2   501   511 -4.529457514E+00 -4.003575076E+01  2.618243864E+01  4.805098768E+01  6.743495762E-07  0.00000E+00  9.000E+00
#rwgt            1           1   2.3331204165334588E-002           9       31690           0
</event>
<event>
      5   9999  3.19816E-02  1.32911E+02 -1.00000E+00  1.18514E-01
      21    -1     0     0   502   512  0.000000000E+00  0.000000000E+00  4.902259873E+02  4.902259873E+02  0.000000000E+00  0.00000E+00  9.000E+00
      21    -1     0     0   501   502  0.000000000E+00  0.000000000E+00 -3.156281915E+02  3.156281915E+02  0.000000000E+00  0.00000E+00  9.000E+00
      25     1     1     2     0     0  3.612248946E+01 -3.234631216E+02  1.761698198E+02  3.906328592E+02  1.250000000E+02  0.00000E+00  9.000E+00
      25     1     1     2     0     0 -9.625265981E+01  2.049320006E+02 -6.687990076E+01  2.671322154E+02  1.250000000E+02  0.00000E+00  9.000E+00
      21     1     1     2   501   512  6.013017035E+01  1.185311210E+02  6.530787674E+01  1.480891042E+02  0.000000000E+00  0.00000E+00  9.000E+00
#rwgt            1           1   2.4663485386572304E-002           9       31841           0
</event>
<event>
      5   9999  3.19816E-02  9.00298E+01 -1.00000E+00  1.25915E-01
      21    -1     0     0   502   501  0.000000000E+00  0.000000000E+00  8.209790320E+02  8.209790320E+02  0.000000000E+00  0.00000E+00  9.000E+00
      21    -1     0     0   501   511  0.000000000E+00  0.000000000E+00 -3.451781905E+03  3.451781905E+03  0.000000000E+00  0.00000E+00  9.000E+00
      25     1     1     2     0     0 -1.305176770E+03  8.651519336E+02 -1.003591770E+03  1.864080393E+03  1.250000000E+02  0.00000E+00  9.000E+00
      25     1     1     2     0     0  1.301082061E+03 -9.550885996E+02 -1.320727811E+03  2.089247643E+03  1.250000000E+02  0.00000E+00  9.000E+00
      21     1     1     2   502   511  4.094709248E+00  8.993666600E+01 -3.064832914E+02  3.194329013E+02  3.814697266E-06  0.00000E+00  9.000E+00
#rwgt            1           1   1.7659680156819506E-002           9       31901           0
</event>
<event>
      5   9999  3.19816E-02  1.55590E+02 -1.00000E+00  1.15767E-01
      21    -1     0     0   502   512  0.000000000E+00  0.000000000E+00  1.591325913E+02  1.591325913E+02  0.000000000E+00  0.00000E+00  9.000E+00
      21    -1     0     0   501   502  0.000000000E+00  0.000000000E+00 -6.635358287E+02  6.635358287E+02  0.000000000E+00  0.00000E+00  9.000E+00
      25     1     1     2     0     0 -1.666161153E+02 -3.275258758E+01 -1.661501432E+02  2.684483786E+02  1.250000000E+02  0.00000E+00  9.000E+00
      25     1     1     2     0     0  1.792486104E+01 -1.306443936E+01 -3.736724436E+02  3.946493067E+02  1.250000000E+02  0.00000E+00  9.000E+00
      21     1     1     2   501   512  1.486912543E+02  4.581702693E+01  3.541934941E+01  1.595707347E+02  3.600041597E-06  0.00000E+00  9.000E+00
#rwgt            1           1   3.3154161331044575E-002           9       32018           0
</event>
<event>
      5   9999  3.19816E-02  2.08307E+02 -1.00000E+00  1.11008E-01
      21    -1     0     0   511   501  0.000000000E+00  0.000000000E+00  2.145402591E+02  2.145402591E+02  0.000000000E+00  0.00000E+00  9.000E+00
      21    -1     0     0   501   502  0.000000000E+00  0.000000000E+00 -7.372639107E+02  7.372639107E+02  0.000000000E+00  0.00000E+00  9.000E+00
      25     1     1     2     0     0  1.106020385E+02  5.163424280E+01 -5.619806378E+02  5.885118038E+02  1.250000000E+02  0.00000E+00  9.000E+00
      25     1     1     2     0     0  7.082141448E+01  5.072457858E+01  2.601123245E+01  1.545646785E+02  1.250000000E+02  0.00000E+00  9.000E+00
      21     1     1     2   511   502 -1.814234529E+02 -1.023588214E+02  1.324575368E+01  2.087276876E+02  3.234066955E-06  0.00000E+00  9.000E+00
#rwgt            1           1   2.7750977104124403E-002           9       32094           0
</event>
<event>
      5   9999  3.19816E-02  2.61718E+01 -1.00000E+00  1.57275E-01
       2    -1     0     0   502     0  0.000000000E+00  0.000000000E+00  1.400328342E+03  1.400328342E+03  0.000000000E+00  0.00000E+00  9.000E+00
      21    -1     0     0   501   502  0.000000000E+00  0.000000000E+00 -1.708776353E+02  1.708776353E+02  0.000000000E+00  0.00000E+00  9.000E+00
      25     1     1     2     0     0  1.133421235E+01 -5.675229253E+01  1.176505483E+03  1.184541869E+03  1.250000000E+02  0.00000E+00  9.000E+00
      25     1     1     2     0     0 -9.753884565E+00  8.287635030E+01 -1.319058699E+02  1.999694632E+02  1.250000000E+02  0.00000E+00  9.000E+00
       2     1     1     2   501     0 -1.580327790E+00 -2.612405777E+01  1.848510936E+02  1.866946455E+02  0.000000000E+00  0.00000E+00  9.000E+00
#rwgt            1           1   2.5348441995868731E-002           9       32157           0
</event>
<event>
      5   9999  3.19816E-02  4.86564E+01 -1.00000E+00  1.39754E-01
      21    -1     0     0   502   501  0.000000000E+00  0.000000000E+00  1.776301686E+03  1.776301686E+03  0.000000000E+00  0.00000E+00  9.000E+00
      21    -1     0     0   501   511  0.000000000E+00  0.000000000E+00 -8.870591919E+01  8.870591919E+01  0.000000000E+00  0.00000E+00  9.000E+00
      25     1     1     2     0     0 -2.388834340E+02  2.717766087E+02  9.060984951E+02  9.836499900E+02  1.250000000E+02  0.00000E+00  9.000E+00
      25     1     1     2     0     0  2.490339838E+02 -2.241907880E+02  7.082136884E+02  7.933921243E+02  1.250000000E+02  0.00000E+00  9.000E+00
      21     1     1     2   502   511 -1.015054980E+01 -4.758582071E+01  7.328358320E+01  8.796549074E+01  0.000000000E+00  0.00000E+00  9.000E+00
#rwgt            1           1   2.7339967664380696E-002           9       32244           0
</event>
<event>
      5   9999  3.19816E-02  9.11029E+00 -1.00000E+00  2.00555E-01
      21    -1     0     0   502   501  0.000000000E+00  0.000000000E+00  1.588334750E+02  1.588334750E+02  0.000000000E+00  0.00000E+00  9.000E+00
       2    -1     0     0   501     0  0.000000000E+00  0.000000000E+00 -4.196920139E+03  4.196920139E+03  0.000000000E+00  0.00000E+00  9.000E+00
      25     1     1     2     0     0  1.040223653E+02  2.245227992E+02 -7.782590318E+01  2.879461947E+02  1.250000000E+02  0.00000E+00  9.000E+00
      25     1     1     2     0     0 -9.726250359E+01 -2.306303011E+02 -3.101841843E+02  4.177194735E+02  1.250000000E+02  0.00000E+00  9.000E+00
       2     1     1     2   502     0 -6.759861679E+00  6.107501943E+00 -3.650076577E+03  3.650087946E+03  0.000000000E+00  0.00000E+00  9.000E+00
#rwgt            1           1   2.6954364159431012E-002           9       32355           0
</event>
<event>
      5   9999  3.19816E-02  6.24199E+01 -1.00000E+00  1.33792E-01
      21    -1     0     0   502   501  0.000000000E+00  0.000000000E+00  1.846848618E+03  1.846848618E+03  0.000000000E+00  0.00000E+00  9.000E+00
      21    -1     0     0   511   502  0.000000000E+00  0.000000000E+00 -1.324255163E+02  1.324255163E+02  0.000000000E+00  0.00000E+00  9.000E+00
      25     1     1     2     0     0  4.200972505E+02 -5.874628184E+01  5.588069072E+02  7.126169975E+02  1.250000000E+02  0.00000E+00  9.000E+00
      25     1     1     2     0     0 -3.922708965E+02  2.871924942E+00  1.123285518E+03  1.196361174E+03  1.250000000E+02  0.00000E+00  9.000E+00
      21     1     1     2   511   501 -2.782635397E+01  5.587435690E+01  3.233067654E+01  7.029596276E+01  1.066240300E-06  0.00000E+00  9.000E+00
#rwgt            1           1   2.9312153120833625E-002           9       32629           0
</event>
<event>
      5   9999  3.19816E-02  4.62232E+02 -1.00000E+00  9.98308E-02
      21    -1     0     0   512   501  0.000000000E+00  0.000000000E+00  7.987568242E+02  7.987568242E+02  0.000000000E+00  0.00000E+00  9.000E+00
      21    -1     0     0   501   502  0.000000000E+00  0.000000000E+00 -9.217176343E+02  9.217176343E+02  0.000000000E+00  0.00000E+00  9.000E+00
      25     1     1     2     0     0 -3.753706849E+02  1.511758596E+02 -5.361265100E+02  6.832378256E+02  1.250000000E+02  0.00000E+00  9.000E+00
      25     1     1     2     0     0  2.002785562E+01 -4.467933131E+02  3.246369468E+02  5.666035005E+02  1.250000000E+02  0.00000E+00  9.000E+00
      21     1     1     2   512   502  3.553428293E+02  2.956174534E+02  8.852875319E+01  4.706331323E+02  8.895281842E-06  0.00000E+00  9.000E+00
#rwgt            2          11   2.5855147338611061E-003           9       32718           0
</event>
<event>
      5   9999  3.19816E-02  2.34889E+02 -1.00000E+00  1.09164E-01
      21    -1     0     0   502   501  0.000000000E+00  0.000000000E+00  6.739859891E+02  6.739859891E+02  0.000000000E+00  0.00000E+00  9.000E+00
       3    -1     0     0   501     0  0.000000000E+00  0.000000000E+00 -5.262874138E+02  5.262874138E+02  0.000000000E+00  0.00000E+00  9.000E+00
      25     1     1     2     0     0  8.978111389E+01 -1.037835567E+02  3.484042691E+01  1.888664353E+02  1.250000000E+02  0.00000E+00  9.000E+00
      25     1     1     2     0     0 -2.750058075E+02 -4.066314575E+01  4.841181327E+02  5.720813334E+02  1.250000000E+02  0.00000E+00  9.000E+00
       3     1     1     2   502     0  1.852246936E+02  1.444467024E+02 -3.712599842E+02  4.393256342E+02  5.394796609E-06  0.00000E+00  9.000E+00
#rwgt            1           1   2.8350677438068104E-002           9       32753           0
</event>
<event>
      5   9999  3.19816E-02  9.15299E+01 -1.00000E+00  1.25582E-01
      21    -1     0     0   502   511  0.000000000E+00  0.000000000E+00  1.544202529E+03  1.544202529E+03  0.000000000E+00  0.00000E+00  9.000E+00
      21    -1     0     0   501   502  0.000000000E+00  0.000000000E+00 -5.892038873E+01  5.892038873E+01  0.000000000E+00  0.00000E+00  9.000E+00
      25     1     1     2     0     0 -8.599986529E+00 -8.416745800E+01  9.322958859E+01  1.774116032E+02  1.250000000E+02  0.00000E+00  9.000E+00
      25     1     1     2     0     0  2.676854640E+01  1.738760504E+02  9.348450183E+02  9.594319383E+02  1.250000000E+02  0.00000E+00  9.000E+00
      21     1     1     2   501   511 -1.816855987E+01 -8.970859243E+01  4.572075332E+02  4.662793760E+02  0.000000000E+00  0.00000E+00  9.000E+00
#rwgt            1           1   2.9558172792035254E-002           9       32788           0
</event>
<event>
      5   9999  3.19816E-02  2.33316E+01 -1.00000E+00  1.61031E-01
      21    -1     0     0   512   501  0.000000000E+00  0.000000000E+00  3.428139821E+01  3.428139821E+01  0.000000000E+00  0.00000E+00  9.000E+00
      21    -1     0     0   501   502  0.000000000E+00  0.000000000E+00 -1.701742102E+03  1.701742102E+03  0.000000000E+00  0.00000E+00  9.000E+00
      25     1     1     2     0     0  1.839977619E+02 -6.174256409E+01 -6.444084463E+02  6.845104574E+02  1.250000000E+02  0.00000E+00  9.000E+00
      25     1     1     2     0     0 -1.609014406E+02  5.843755104E+01 -9.787846001E+02  1.001473172E+03  1.250000000E+02  0.00000E+00  9.000E+00
      21     1     1     2   512   502 -2.309632138E+01  3.305013046E+00 -4.426765721E+01  5.003987057E+01  0.000000000E+00  0.00000E+00  9.000E+00
#rwgt            1           1   2.6960454893896219E-002           9       32831           0
</event>
<event>
      5   9999  3.19816E-02  2.70813E+01 -1.00000E+00  1.56193E-01
      21    -1     0     0   511   501  0.000000000E+00  0.000000000E+00  5.543215333E+02  5.543215333E+02  0.000000000E+00  0.00000E+00  9.000E+00
      21    -1     0     0   501   502  0.000000000E+00  0.000000000E+00 -1.429361060E+02  1.429361060E+02  0.000000000E+00  0.00000E+00  9.000E+00
      25     1     1     2     0     0 -6.135367085E+01 -9.841509201E+00  4.511776308E+02  4.722789248E+02  1.250000000E+02  0.00000E+00  9.000E+00
      25     1     1     2     0     0  3.448162105E+01  1.320160801E+01 -9.647458578E+01  1.621592130E+02  1.250000000E+02  0.00000E+00  9.000E+00
      21     1     1     2   511   502  2.687204980E+01 -3.360098814E+00  5.668238227E+01  6.281950162E+01  9.536743164E-07  0.00000E+00  9.000E+00
#rwgt            1           1   2.6617163887882371E-002           9       32943           0
</event>
<event>
      5   9999  3.19816E-02  1.49800E+02 -1.00000E+00  1.16417E-01
      -1    -1     0     0     0   501  0.000000000E+00  0.000000000E+00  8.458835421E+02  8.458835421E+02  0.000000000E+00  0.00000E+00  9.000E+00
      21    -1     0     0   501   502  0.000000000E+00  0.000000000E+00 -1.521675674E+02  1.521675674E+02  0.000000000E+00  0.00000E+00  9.000E+00
      25     1     1     2     0     0  1.209636423E+01 -2.880007742E+02  1.542466281E+02  3.500111287E+02  1.250000000E+02  0.00000E+00  9.000E+00
      25     1     1     2     0     0 -6.978770782E+01  1.497551658E+02  3.470450961E+02  4.041809404E+02  1.250000000E+02  0.00000E+00  9.000E+00
      -1     1     1     2     0   502  5.769134359E+01  1.382456084E+02  1.924242506E+02  2.438590404E+02  2.697398305E-06  0.00000E+00  9.000E+00
#rwgt            1           1   2.5518297371913287E-002           9       33057           0
</event>
<event>
      5   9999  3.19816E-02  1.40681E+02 -1.00000E+00  1.17508E-01
      21    -1     0     0   502   511  0.000000000E+00  0.000000000E+00  1.122861062E+03  1.122861062E+03  0.000000000E+00  0.00000E+00  9.000E+00
      21    -1     0     0   501   502  0.000000000E+00  0.000000000E+00 -1.595956404E+03  1.595956404E+03  0.000000000E+00  0.00000E+00  9.000E+00
      25     1     1     2     0     0  1.223828877E+02  2.778431022E+02 -5.236437873E+02  6.180632465E+02  1.250000000E+02  0.00000E+00  9.000E+00
      25     1     1     2     0     0 -6.480502501E+01 -4.062021199E+02 -9.750140348E+02  1.065587735E+03  1.250000000E+02  0.00000E+00  9.000E+00
      21     1     1     2   501   511 -5.757786271E+01  1.283590176E+02  1.025562480E+03  1.035166484E+03  2.157918644E-05  0.00000E+00  9.000E+00
#rwgt            2          11   2.2684026033004321E-002           9       33164           0
</event>
<event>
      5   9999  3.19816E-02  1.20450E+02 -1.00000E+00  1.20299E-01
      21    -1     0     0   502   501  0.000000000E+00  0.000000000E+00  2.761429462E+02  2.761429462E+02  0.000000000E+00  0.00000E+00  9.000E+00
      21    -1     0     0   512   502  0.000000000E+00  0.000000000E+00 -7.482441773E+02  7.482441773E+02  0.000000000E+00  0.00000E+00  9.000E+00
      25     1     1     2     0     0  1.601205842E+02  3.126167628E+01  1.412091430E+02  2.493610153E+02  1.250000000E+02  0.00000E+00  9.000E+00
      25     1     1     2     0     0 -2.263490847E+02 -1.318701744E+02 -2.214955018E+02  3.651149248E+02  1.250000000E+02  0.00000E+00  9.000E+00
      21     1     1     2   512   501  6.622850049E+01  1.006084981E+02 -3.918148723E+02  4.099111835E+02  0.000000000E+00  0.00000E+00  9.000E+00
#rwgt            1           1   2.6624712459905425E-002           9       33289           0
</event>
<event>
      5   9999  3.19816E-02  7.30042E+01 -1.00000E+00  1.30303E-01
      21    -1     0     0   502   501  0.000000000E+00  0.000000000E+00  1.780741446E+02  1.780741446E+02  0.000000000E+00  0.00000E+00  9.000E+00
      21    -1     0     0   501   511  0.000000000E+00  0.000000000E+00 -1.135507254E+03  1.135507254E+03  0.000000000E+00  0.00000E+00  9.000E+00
      25     1     1     2     0     0 -3.055524776E+02 -2.003850981E+02 -2.628271047E+02  4.671397982E+02  1.250000000E+02  0.00000E+00  9.000E+00
      25     1     1     2     0     0  2.703448520E+02  2.643385086E+02 -5.040538821E+02  6.423834542E+02  1.250000000E+02  0.00000E+00  9.000E+00
      21     1     1     2   502   511  3.520762569E+01 -6.395341046E+01 -1.905521223E+02  2.040581460E+02  0.000000000E+00  0.00000E+00  9.000E+00
#rwgt            1           1   2.8223051056228372E-002           9       33333           0
</event>
<event>
      5   9999  3.19816E-02  3.52795E+01 -1.00000E+00  1.48306E-01
      21    -1     0     0   502   501  0.000000000E+00  0.000000000E+00  3.218870458E+01  3.218870458E+01  0.000000000E+00  0.00000E+00  9.000E+00
      21    -1     0     0   512   502  0.000000000E+00  0.000000000E+00 -1.515739180E+03  1.515739180E+03  0.000000000E+00  0.00000E+00  9.000E+00
      25     1     1     2     0     0 -1.093306378E+02  6.710078168E+00 -8.416497153E+02  8.579029413E+02  1.250000000E+02  0.00000E+00  9.000E+00
      25     1     1     2     0     0  8.245648659E+01 -2.956668293E+01 -2.265131090E+02  2.731418120E+02  1.250000000E+02  0.00000E+00  9.000E+00
      21     1     1     2   512   501  2.687415125E+01  2.285660476E+01 -4.153876511E+02  4.168831312E+02  5.394796609E-06  0.00000E+00  9.000E+00
#rwgt            1           1   3.4094314019343389E-002           9       33414           0
</event>
<event>
      5   9999  3.19816E-02  1.49075E+02 -1.00000E+00  1.16500E-01
      21    -1     0     0   502   501  0.000000000E+00  0.000000000E+00  4.252637905E+02  4.252637905E+02  0.000000000E+00  0.00000E+00  9.000E+00
       2    -1     0     0   501     0  0.000000000E+00  0.000000000E+00 -2.938265300E+03  2.938265300E+03  0.000000000E+00  0.00000E+00  9.000E+00
      25     1     1     2     0     0 -5.115171595E+02 -1.516317441E+02  1.539399017E+02  5.691787800E+02  1.250000000E+02  0.00000E+00  9.000E+00
      25     1     1     2     0     0  4.422296474E+02  1.963744301E+01 -8.104522493E+02  9.318854750E+02  1.250000000E+02  0.00000E+00  9.000E+00
       2     1     1     2   502     0  6.928751213E+01  1.319943011E+02 -1.856489162E+03  1.862464835E+03  2.157918644E-05  0.00000E+00  9.000E+00
#rwgt            1           1   2.9593531389776190E-002           9       33500           0
</event>
<event>
      5   9999  3.19816E-02  2.86751E+01 -1.00000E+00  1.54415E-01
      21    -1     0     0   502   501  0.000000000E+00  0.000000000E+00  1.727773153E+03  1.727773153E+03  0.000000000E+00  0.00000E+00  9.000E+00
      21    -1     0     0   511   502  0.000000000E+00  0.000000000E+00 -1.697830193E+02  1.697830193E+02  0.000000000E+00  0.00000E+00  9.000E+00
      25     1     1     2     0     0 -4.700755645E+02 -2.134545191E+01  7.073245399E+02  8.586964944E+02  1.250000000E+02  0.00000E+00  9.000E+00
      25     1     1     2     0     0  4.984545538E+02  1.723545847E+01  8.653957574E+02  1.006622481E+03  1.250000000E+02  0.00000E+00  9.000E+00
      21     1     1     2   511   501 -2.837898930E+01  4.109993439E+00 -1.473016396E+01  3.223719607E+01  9.684608465E-07  0.00000E+00  9.000E+00
#rwgt            1           1   2.6643042433103743E-002           9       33595           0
</event>
<event>
      5   9999  3.19816E-02  2.08345E+02 -1.00000E+00  1.11006E-01
      21    -1     0     0   512   501  0.000000000E+00  0.000000000E+00  2.875873386E+02  2.875873386E+02  0.000000000E+00  0.00000E+00  9.000E+00
      21    -1     0     0   501   502  0.000000000E+00  0.000000000E+00 -1.233715985E+03  1.233715985E+03  0.000000000E+00  0.00000E+00  9.000E+00
      25     1     1     2     0     0  1.075127299E+02 -1.631496827E+02 -4.068131023E+02  4.682933976E+02  1.250000000E+02  0.00000E+00  9.000E+00
      25     1     1     2     0     0 -2.464901364E+02  3.183682575E+02 -6.810817750E+02  8.010075649E+02  1.250000000E+02  0.00000E+00  9.000E+00
      21     1     1     2   512   502  1.389774065E+02 -1.552185748E+02  1.417662312E+02  2.520023607E+02  6.031565972E-06  0.00000E+00  9.000E+00
#rwgt            1           1   3.2076268112569820E-002           9       33760           0
</event>
<event>
      5   9999  3.19816E-02  6.63479E+01 -1.00000E+00  1.32410E-01
      21    -1     0     0   511   501  0.000000000E+00  0.000000000E+00  8.919811866E+02  8.919811866E+02  0.000000000E+00  0.00000E+00  9.000E+00
      21    -1     0     0   501   502  0.000000000E+00  0.000000000E+00 -1.407145168E+02  1.407145168E+02  0.000000000E+00  0.00000E+00  9.000E+00
      25     1     1     2     0     0 -8.769024405E+01  2.580144790E+02  3.666480015E+02  4.736209532E+02  1.250000000E+02  0.00000E+00  9.000E+00
      25     1     1     2     0     0  1.403747945E+02 -2.176860531E+02  1.692340395E+02  3.337026532E+02  1.250000000E+02  0.00000E+00  9.000E+00
      21     1     1     2   511   502 -5.268455044E+01 -4.032842598E+01  2.153846288E+02  2.253720970E+02  3.814697266E-06  0.00000E+00  9.000E+00
#rwgt            1           1   3.5093159103454959E-002           9       33792           0
</event>
<event>
      5   9999  3.19816E-02  8.36082E+01 -1.00000E+00  1.27429E-01
       2    -1     0     0   502     0  0.000000000E+00  0.000000000E+00  3.304960976E+02  3.304960976E+02  0.000000000E+00  0.00000E+00  9.000E+00
      21    -1     0     0   501   502  0.000000000E+00  0.000000000E+00 -1.354508212E+02  1.354508212E+02  0.000000000E+00  0.00000E+00  9.000E+00
      25     1     1     2     0     0 -7.753208245E+00  2.414092379E+01 -4.591285396E+01  1.355576873E+02  1.250000000E+02  0.00000E+00  9.000E+00
      25     1     1     2     0     0  4.422103164E+01  5.109494783E+01  1.603638155E+02  2.142609313E+02  1.250000000E+02  0.00000E+00  9.000E+00
       2     1     1     2   501     0 -3.646782339E+01 -7.523587162E+01  8.059431481E+01  1.161283002E+02  1.651812370E-06  0.00000E+00  9.000E+00
#rwgt            1           1   2.0170901879992452E-002           9       33891           0
</event>
<event>
      5   9999  3.19816E-02  1.06309E+02 -1.00000E+00  1.22645E-01
      21    -1     0     0   502   511  0.000000000E+00  0.000000000E+00  9.471259006E+01  9.471259006E+01  0.000000000E+00  0.00000E+00  9.000E+00
      21    -1     0     0   501   502  0.000000000E+00  0.000000000E+00 -1.382742212E+03  1.382742212E+03  0.000000000E+00  0.00000E+00  9.000E+00
      25     1     1     2     0     0  1.425308496E+02  7.299726012E+01 -1.179183415E+03  1.196554290E+03  1.250000000E+02  0.00000E+00  9.000E+00
      25     1     1     2     0     0 -8.130330404E+01  1.390908525E+01 -4.284678305E+01  1.557707826E+02  1.250000000E+02  0.00000E+00  9.000E+00
      21     1     1     2   501   511 -6.122754560E+01 -8.690634538E+01 -6.599942398E+01  1.251297294E+02  0.000000000E+00  0.00000E+00  9.000E+00
#rwgt            1           1   2.7986614635040322E-002           9       33966           0
</event>
<event>
      5   9999  3.19816E-02  3.21946E+02 -1.00000E+00  1.04605E-01
       2    -1     0     0   502     0  0.000000000E+00  0.000000000E+00  9.276970480E+02  9.276970480E+02  0.000000000E+00  0.00000E+00  9.000E+00
      21    -1     0     0   501   502  0.000000000E+00  0.000000000E+00 -6.605017418E+02  6.605017418E+02  0.000000000E+00  0.00000E+00  9.000E+00
      25     1     1     2     0     0  3.494542372E+02 -4.100411416E+02 -7.137290550E+01  5.576478219E+02  1.250000000E+02  0.00000E+00  9.000E+00
      25     1     1     2     0     0 -8.853121720E+01  5.986367410E+02  9.135325841E+01  6.246392094E+02  1.250000000E+02  0.00000E+00  9.000E+00
       2     1     1     2   501     0 -2.609230200E+02 -1.885955995E+02  2.472149532E+02  4.059117584E+02  4.672030912E-06  0.00000E+00  9.000E+00
#rwgt            2          18   6.0632238100454775E-004           9       34129           0
</event>
<event>
      5   9999  3.19816E-02  1.56736E+02 -1.00000E+00  1.15642E-01
      21    -1     0     0   502   501  0.000000000E+00  0.000000000E+00  4.852626848E+02  4.852626848E+02  0.000000000E+00  0.00000E+00  9.000E+00
      21    -1     0     0   511   502  0.000000000E+00  0.000000000E+00 -1.302417446E+03  1.302417446E+03  0.000000000E+00  0.00000E+00  9.000E+00
      25     1     1     2     0     0  2.215731043E+02  1.621454726E+02  2.460017540E+02  3.892655364E+02  1.250000000E+02  0.00000E+00  9.000E+00
      25     1     1     2     0     0 -1.553289386E+02 -2.009605947E+01  1.005492982E+02  2.242010084E+02  1.250000000E+02  0.00000E+00  9.000E+00
      21     1     1     2   511   501 -6.624416569E+01 -1.420494132E+02 -1.163705814E+03  1.174213586E+03  1.525878906E-05  0.00000E+00  9.000E+00
#rwgt            1           1   2.9770811556918571E-002           9       34178           0
</event>
<event>
      5   9999  3.19816E-02  1.02933E+02 -1.00000E+00  1.23266E-01
      21    -1     0     0   502   501  0.000000000E+00  0.000000000E+00  3.333704514E+01  3.333704514E+01  0.000000000E+00  0.00000E+00  9.000E+00
       2    -1     0     0   501     0  0.000000000E+00  0.000000000E+00 -4.208809043E+03  4.208809043E+03  0.000000000E+00  0.00000E+00  9.000E+00
      25     1     1     2     0     0  1.710490956E+02 -2.066766735E+02 -1.331515241E+03  1.364012785E+03  1.250000000E+02  0.00000E+00  9.000E+00
      25     1     1     2     0     0 -7.164282837E+01  1.799616476E+02 -8.263736291E+02  8.579261415E+02  1.250000000E+02  0.00000E+00  9.000E+00
       2     1     1     2   502     0 -9.940626722E+01  2.671502594E+01 -2.017583128E+03  2.020207162E+03  2.157918644E-05  0.00000E+00  9.000E+00
#rwgt            1           1   9.9384629602265087E-002           9       34224           0
</event>
<event>
      5   9999  3.19816E-02  2.10713E+01 -1.00000E+00  1.64521E-01
      21    -1     0     0   511   501  0.000000000E+00  0.000000000E+00  1.118087611E+03  1.118087611E+03  0.000000000E+00  0.00000E+00  9.000E+00
      21    -1     0     0   501   502  0.000000000E+00  0.000000000E+00 -8.913059656E+01  8.913059656E+01  0.000000000E+00  0.00000E+00  9.000E+00
      25     1     1     2     0     0  1.555830612E+02  1.664011034E+02  1.946674893E+02  3.246780675E+02  1.250000000E+02  0.00000E+00  9.000E+00
      25     1     1     2     0     0 -1.345692882E+02 -1.679576289E+02  6.333181640E+02  6.804671596E+02  1.250000000E+02  0.00000E+00  9.000E+00
      21     1     1     2   511   502 -2.101377304E+01  1.556525541E+00  2.009713608E+02  2.020729801E+02  0.000000000E+00  0.00000E+00  9.000E+00
#rwgt            1           1   2.6969638311275936E-002           9       34285           0
</event>
<event>
      5   9999  3.19816E-02  1.44389E+01 -1.00000E+00  1.78958E-01
       1    -1     0     0   502     0  0.000000000E+00  0.000000000E+00  5.063588849E+01  5.063588849E+01  0.000000000E+00  0.00000E+00  9.000E+00
      21    -1     0     0   501   502  0.000000000E+00  0.000000000E+00 -1.980959316E+03  1.980959316E+03  0.000000000E+00  0.00000E+00  9.000E+00
      25     1     1     2     0     0 -1.507497807E+02 -9.209349117E+01 -1.559586898E+03  1.574529453E+03  1.250000000E+02  0.00000E+00  9.000E+00
      25     1     1     2     0     0  1.488019157E+02  1.064003610E+02 -3.800270798E+02  4.398961563E+02  1.250000000E+02  0.00000E+00  9.000E+00
       1     1     1     2   501     0  1.947865038E+00 -1.430686988E+01  9.290549419E+00  1.716959558E+01  1.018524616E-06  0.00000E+00  9.000E+00
#rwgt            1           1   9.5930168569014568E-002           9       34431           0
</event>
<event>
      5   9999  3.19816E-02  1.16126E+02 -1.00000E+00  1.20976E-01
      21    -1     0     0   511   501  0.000000000E+00  0.000000000E+00  2.126301134E+02  2.126301134E+02  0.000000000E+00  0.00000E+00  9.000E+00
      21    -1     0     0   501   502  0.000000000E+00  0.000000000E+00 -6.672545790E+02  6.672545790E+02  0.000000000E+00  0.00000E+00  9.000E+00
      25     1     1     2     0     0  1.107432296E+02 -5.264796129E+01 -4.509675802E+02  4.837691899E+02  1.250000000E+02  0.00000E+00  9.000E+00
      25     1     1     2     0     0 -2.240745823E+02  7.797214391E+01 -4.682475255E+01  2.722253315E+02  1.250000000E+02  0.00000E+00  9.000E+00
      21     1     1     2   511   502  1.133313527E+02 -2.532418262E+01  4.316786719E+01  1.238901710E+02  2.821006671E-06  0.00000E+00  9.000E+00
#rwgt            1           1   2.7989269906096230E-002           9       34548           0
</event>
<event>
      5   9999  3.19816E-02  1.57568E+02 -1.00000E+00  1.15553E-01
       2    -1     0     0   502     0  0.000000000E+00  0.000000000E+00  7.188815791E+02  7.188815791E+02  0.000000000E+00  0.00000E+00  9.000E+00
      21    -1     0     0   501   502  0.000000000E+00  0.000000000E+00 -2.666252829E+02  2.666252829E+02  0.000000000E+00  0.00000E+00  9.000E+00
      25     1     1     2     0     0 -1.851406934E+02 -1.061135467E+02 -3.585468231E+01  2.498954169E+02  1.250000000E+02  0.00000E+00  9.000E+00
      25     1     1     2     0     0  3.166240743E+01  7.044529552E+01 -6.487102503E+01  1.606184846E+02  1.250000000E+02  0.00000E+00  9.000E+00
       2     1     1     2   501     0  1.534782859E+02  3.566825119E+01  5.529820036E+02  5.749929605E+02  1.321449896E-05  0.00000E+00  9.000E+00
#rwgt            2          18   1.4198545067270407E-003           9       34582           0
</event>
<event>
      5   9999  3.19816E-02  2.84527E+01 -1.00000E+00  1.54655E-01
      -1    -1     0     0     0   501  0.000000000E+00  0.000000000E+00  5.342970205E+02  5.342970205E+02  0.000000000E+00  0.00000E+00  9.000E+00
      21    -1     0     0   501   502  0.000000000E+00  0.000000000E+00 -1.055261431E+03  1.055261431E+03  0.000000000E+00  0.00000E+00  9.000E+00
      25     1     1     2     0     0  6.722980089E+01 -3.754846958E+02 -2.894748510E+02  4.949033161E+02  1.250000000E+02  0.00000E+00  9.000E+00
      25     1     1     2     0     0 -6.754587678E+01  4.039356318E+02 -5.933260978E+02  7.317016458E+02  1.250000000E+02  0.00000E+00  9.000E+00
      -1     1     1     2     0   502  3.160758898E-01 -2.845093607E+01  3.618365380E+02  3.629534900E+02  8.529922400E-06  0.00000E+00  9.000E+00
#rwgt            1           1   2.9006409820181610E-002           9       34616           0
</event>
<event>
      5   9999  3.19816E-02  1.41529E+02 -1.00000E+00  1.17403E-01
      21    -1     0     0   502   501  0.000000000E+00  0.000000000E+00  4.342262573E+02  4.342262573E+02  0.000000000E+00  0.00000E+00  9.000E+00
       2    -1     0     0   501     0  0.000000000E+00  0.000000000E+00 -1.380910407E+03  1.380910407E+03  0.000000000E+00  0.00000E+00  9.000E+00
      25     1     1     2     0     0  1.278589091E+02 -1.739160723E+02  1.951474847E+02  3.167052915E+02  1.250000000E+02  0.00000E+00  9.000E+00
      25     1     1     2     0     0 -1.712390624E+02  3.086331460E+02 -2.782272546E+01  3.754681603E+02  1.250000000E+02  0.00000E+00  9.000E+00
       2     1     1     2   502     0  4.338015331E+01 -1.347170737E+02 -1.114008909E+03  1.122963213E+03  1.525878906E-05  0.00000E+00  9.000E+00
#rwgt            2          13   2.9392490755787756E-003           9       35011           0
</event>
<event>
      5   9999  3.19816E-02  7.39784E+01 -1.00000E+00  1.30016E-01
      21    -1     0     0   502   511  0.000000000E+00  0.000000000E+00  2.264916483E+02  2.264916483E+02  0.000000000E+00  0.00000E+00  9.000E+00
      21    -1     0     0   501   502  0.000000000E+00  0.000000000E+00 -3.403815716E+02  3.403815716E+02  0.000000000E+00  0.00000E+00  9.000E+00
      25     1     1     2     0     0 -1.479533532E+02  8.239577168E+00 -1.384171921E+02  2.382066423E+02  1.250000000E+02  0.00000E+00  9.000E+00
      25     1     1     2     0     0  2.205302651E+02  6.092226467E+00  1.410981220E+01  2.539582640E+02  1.250000000E+02  0.00000E+00  9.000E+00
      21     1     1     2   501   511 -7.257691185E+01 -1.433180363E+01  1.041745655E+01  7.470831367E+01  4.616955931E-07  0.00000E+00  9.000E+00
#rwgt            1           1   2.3377502261177532E-002           9       35030           0
</event>
<event>
      5   9999  3.19816E-02  1.83236E+01 -1.00000E+00  1.69568E-01
       1    -1     0     0   502     0  0.000000000E+00  0.000000000E+00  1.220651838E+03  1.220651838E+03  0.000000000E+00  0.00000E+00  9.000E+00
      21    -1     0     0   501   502  0.000000000E+00  0.000000000E+00 -3.268244693E+02  3.268244693E+02  0.000000000E+00  0.00000E+00  9.000E+00
      25     1     1     2     0     0  4.653991608E+01  1.941356354E+02  1.579391073E+01  2.360700242E+02  1.250000000E+02  0.00000E+00  9.000E+00
      25     1     1     2     0     0 -6.099761749E+01 -1.828783101E+02 -1.556761854E+02  2.775342507E+02  1.250000000E+02  0.00000E+00  9.000E+00
       1     1     1     2   501     0  1.445770142E+01 -1.125732536E+01  1.033709644E+03  1.033872033E+03  0.000000000E+00  0.00000E+00  9.000E+00
#rwgt            1           1   2.8306904382151676E-002           9       35128           0
</event>
<event>
      5   9999  3.19816E-02  5.62821E+02 -1.00000E+00  9.74134E-02
      21    -1     0     0   502   501  0.000000000E+00  0.000000000E+00  1.678667556E+03  1.678667556E+03  0.000000000E+00  0.00000E+00  9.000E+00
       2    -1     0     0   501     0  0.000000000E+00  0.000000000E+00 -6.604562641E+02  6.604562641E+02  0.000000000E+00  0.00000E+00  9.000E+00
      25     1     1     2     0     0 -9.720319528E+01  2.105040545E+02 -2.584892213E+02  3.690556810E+02  1.250000000E+02  0.00000E+00  9.000E+00
      25     1     1     2     0     0  6.505569115E+02 -1.077076343E+02  1.235145740E+03  1.405715202E+03  1.250000000E+02  0.00000E+00  9.000E+00
       2     1     1     2   502     0 -5.533537162E+02 -1.027964202E+02  4.155477374E+01  5.643529378E+02  7.294205923E-06  0.00000E+00  9.000E+00
#rwgt            2          13   3.1166309558468698E-004           9       35335           0
</event>
<event>
      5   9999  3.19816E-02  4.29914E+01 -1.00000E+00  1.42924E-01
      21    -1     0     0   502   511  0.000000000E+00  0.000000000E+00  1.774737421E+02  1.774737421E+02  0.000000000E+00  0.00000E+00  9.000E+00
      21    -1     0     0   501   502  0.000000000E+00  0.000000000E+00 -7.496460522E+02  7.496460522E+02  0.000000000E+00  0.00000E+00  9.000E+00
      25     1     1     2     0     0 -2.022797568E+01  1.661772583E+00 -5.456559512E+02  5.601583254E+02  1.250000000E+02  0.00000E+00  9.000E+00
      25     1     1     2     0     0  4.894354506E+01  3.033320101E+01 -1.691065572E+02  2.180311936E+02  1.250000000E+02  0.00000E+00  9.000E+00
      21     1     1     2   501   511 -2.871556938E+01 -3.199497359E+01  1.425901983E+02  1.489302753E+02  2.697398305E-06  0.00000E+00  9.000E+00
#rwgt            1           1   6.0055509914813447E-002           9       35354           0
</event>
<event>
      5   9999  3.19816E-02  1.82212E+02 -1.00000E+00  1.13141E-01
      21    -1     0     0   512   501  0.000000000E+00  0.000000000E+00  1.969953540E+03  1.969953540E+03  0.000000000E+00  0.00000E+00  9.000E+00
      21    -1     0     0   501   502  0.000000000E+00  0.000000000E+00 -2.574223011E+02  2.574223011E+02  0.000000000E+00  0.00000E+00  9.000E+00
      25     1     1     2     0     0  4.747463506E+02  5.927140510E+01  2.047913691E+02  5.352211708E+02  1.250000000E+02  0.00000E+00  9.000E+00
      25     1     1     2     0     0 -5.089018898E+02 -2.382538509E+02  1.253524033E+03  1.379381576E+03  1.250000000E+02  0.00000E+00  9.000E+00
      21     1     1     2   512   502  3.415553925E+01  1.789824458E+02  2.542158372E+02  3.127730945E+02  3.814697266E-06  0.00000E+00  9.000E+00
#rwgt            2          11   5.0540363896531184E-003           9       35421           0
</event>
<event>
      5   9999  3.19816E-02  4.52644E+00 -1.00000E+00  2.51428E-01
      21    -1     0     0   502   501  0.000000000E+00  0.000000000E+00  8.071723091E+01  8.071723091E+01  0.000000000E+00  0.00000E+00  9.000E+00
      21    -1     0     0   501   511  0.000000000E+00  0.000000000E+00 -2.014161566E+03  2.014161566E+03  0.000000000E+00  0.00000E+00  9.000E+00
      25     1     1     2     0     0 -2.772057760E+02  2.375543923E+02 -9.940371241E+02  1.066306680E+03  1.250000000E+02  0.00000E+00  9.000E+00
      25     1     1     2     0     0  2.816579176E+02 -2.383711311E+02 -8.072995919E+02  8.963869754E+02  1.250000000E+02  0.00000E+00  9.000E+00
      21     1     1     2   502   511 -4.452141622E+00  8.167387637E-01 -1.321076193E+02  1.321851418E+02  2.697398305E-06  0.00000E+00  9.000E+00
#rwgt            1           1   3.5589610228509871E-002           9       35441           0
</event>
<event>
      5   9999  3.19816E-02  2.81876E+01 -1.00000E+00  1.54944E-01
      21    -1     0     0   502   501  0.000000000E+00  0.000000000E+00  7.776979856E+02  7.776979856E+02  0.000000000E+00  0.00000E+00  9.000E+00
      21    -1     0     0   501   512  0.000000000E+00  0.000000000E+00 -8.454250036E+01  8.454250036E+01  0.000000000E+00  0.00000E+00  9.000E+00
      25     1     1     2     0     0  6.358934545E+01 -6.135921507E+01  6.372017888E+02  6.553317311E+02  1.250000000E+02  0.00000E+00  9.000E+00
      25     1     1     2     0     0 -8.314664004E+01  8.165826697E+01  5.043911629E+01  1.781868142E+02  1.250000000E+02  0.00000E+00  9.000E+00
      21     1     1     2   502   512  1.955729459E+01 -2.029905191E+01  5.514580165E+00  2.872194065E+01  3.318646170E-07  0.00000E+00  9.000E+00
#rwgt            1           1   3.0158354477805668E-002           9       35794           0
</event>
<event>
      5   9999  3.19816E-02  8.82505E+01 -1.00000E+00  1.26320E-01
      21    -1     0     0   502   501  0.000000000E+00  0.000000000E+00  1.043762177E+02  1.043762177E+02  0.000000000E+00  0.00000E+00  9.000E+00
       2    -1     0     0   501     0  0.000000000E+00  0.000000000E+00 -2.089047059E+03  2.089047059E+03  0.000000000E+00  0.00000E+00  9.000E+00
      25     1     1     2     0     0  1.781799736E+02  1.080111712E+02 -4.545611381E+02  5.154273415E+02  1.250000000E+02  0.00000E+00  9.000E+00
      25     1     1     2     0     0 -2.664194088E+02 -1.066150195E+02 -2.658700647E+02  4.106798694E+02  1.250000000E+02  0.00000E+00  9.000E+00
       2     1     1     2   502     0  8.823943526E+01 -1.396151658E+00 -1.264239639E+03  1.267316066E+03  1.525878906E-05  0.00000E+00  9.000E+00
#rwgt            1           1   3.0089233193267135E-002           9       35937           0
</event>
<event>
      5   9999  3.19816E-02  1.68990E+02 -1.00000E+00  1.14378E-01
      -1    -1     0     0     0   501  0.000000000E+00  0.000000000E+00  4.510008971E+02  4.510008971E+02  0.000000000E+00  0.00000E+00  9.000E+00
      21    -1     0     0   501   502  0.000000000E+00  0.000000000E+00 -9.224747621E+02  9.224747621E+02  0.000000000E+00  0.00000E+00  9.000E+00
      25     1     1     2     0     0  4.081873203E+02  1.210542265E+02 -1.877428151E+02  4.818125973E+02  1.250000000E+02  0.00000E+00  9.000E+00
      25     1     1     2     0     0 -3.537918123E+02  3.894162945E+01 -4.942130204E+02  6.217367662E+02  1.250000000E+02  0.00000E+00  9.000E+00
      -1     1     1     2     0   502 -5.439550803E+01 -1.599958560E+02  2.104819705E+02  2.699262957E+02  2.697398305E-06  0.00000E+00  9.000E+00
#rwgt            2           5   1.3130157826251451E-004           9       36201           0
</event>
<event>
      5   9999  3.19816E-02  6.11402E+01 -1.00000E+00  1.34268E-01
      21    -1     0     0   502   501  0.000000000E+00  0.000000000E+00  2.294802765E+02  2.294802765E+02  0.000000000E+00  0.00000E+00  9.000E+00
      21    -1     0     0   511   502  0.000000000E+00  0.000000000E+00 -1.578252423E+03  1.578252423E+03  0.000000000E+00  0.00000E+00  9.000E+00
      25     1     1     2     0     0 -7.733387415E+00 -2.209549774E+02  1.255391205E+02  2.833125096E+02  1.250000000E+02  0.00000E+00  9.000E+00
      25     1     1     2     0     0  4.638788600E+01  2.683253391E+02 -1.379065074E+03  1.411239102E+03  1.250000000E+02  0.00000E+00  9.000E+00
      21     1     1     2   511   501 -3.865449859E+01 -4.737036179E+01 -9.524619244E+01  1.131810877E+02  1.348699152E-06  0.00000E+00  9.000E+00
#rwgt            1           1   2.2638517902888462E-002           9       36235           0
</event>
<event>
      5   9999  3.19816E-02  2.68183E+02 -1.00000E+00  1.07199E-01
      -1    -1     0     0     0   501  0.000000000E+00  0.000000000E+00  1.597167539E+03  1.597167539E+03  0.000000000E+00  0.00000E+00  9.000E+00
      21    -1     0     0   501   502  0.000000000E+00  0.000000000E+00 -8.352429337E+02  8.352429337E+02  0.000000000E+00  0.00000E+00  9.000E+00
      25     1     1     2     0     0 -7.348996345E+02 -5.194985057E+02  8.151831855E+02  1.220698487E+03  1.250000000E+02  0.00000E+00  9.000E+00
      25     1     1     2     0     0  5.147304796E+02  6.726252201E+02 -2.349151701E+02  8.877963114E+02  1.250000000E+02  0.00000E+00  9.000E+00
      -1     1     1     2     0   502  2.201691550E+02 -1.531267143E+02  1.816565902E+02  3.239156745E+02  6.031565972E-06  0.00000E+00  9.000E+00
#rwgt            1           1   3.6523912597266402E-002           9       36339           0
</event>
<event>
      5   9999  3.19816E-02  1.23040E+02 -1.00000E+00  1.19909E-01
      21    -1     0     0   502   501  0.000000000E+00  0.000000000E+00  8.609244922E+02  8.609244922E+02  0.000000000E+00  0.00000E+00  9.000E+00
      21    -1     0     0   501   511  0.000000000E+00  0.000000000E+00 -2.839337631E+02  2.839337631E+02  0.000000000E+00  0.00000E+00  9.000E+00
      25     1     1     2     0     0  2.840198660E+02  4.203241906E+00 -6.822494239E+01  3.177492632E+02  1.250000000E+02  0.00000E+00  9.000E+00
      25     1     1     2     0     0 -2.275527878E+02 -1.135206901E+02  6.445294939E+02  7.040671039E+02  1.250000000E+02  0.00000E+00  9.000E+00
      21     1     1     2   502   511 -5.646707825E+01  1.093174482E+02  6.861775257E-01  1.230418881E+02  1.424503469E-06  0.00000E+00  9.000E+00
#rwgt            1           1   2.8215035640093703E-002           9       36424           0
</event>
<event>
      5   9999  3.56110E-02  1.48697E+02 -1.00000E+00  1.16544E-01
      21    -1     0     0   502   501  0.000000000E+00  0.000000000E+00  7.941720162E+02  7.941720162E+02  0.000000000E+00  0.00000E+00  9.000E+00
      21    -1     0     0   501   512  0.000000000E+00  0.000000000E+00 -1.176218841E+03  1.176218841E+03  0.000000000E+00  0.00000E+00  9.000E+00
      25     1     1     2     0     0  4.136406998E+02  2.791410633E+02  5.527027746E+02  7.550653739E+02  1.250000000E+02  0.00000E+00  9.000E+00
      25     1     1     2     0     0 -2.862474001E+02 -3.558341270E+02 -2.935112798E+02  5.570721419E+02  1.250000000E+02  0.00000E+00  9.000E+00
      21     1     1     2   502   512 -1.273932997E+02  7.669306368E+01 -6.412383198E+02  6.582533415E+02  7.629394531E-06  0.00000E+00  9.000E+00
#rwgt            1           1   3.8639710610006102E-002           9       36489           0
</event>
<event>
      5   9999  3.19816E-02  3.21215E+01 -1.00000E+00  1.51007E-01
      21    -1     0     0   502   511  0.000000000E+00  0.000000000E+00  4.465942403E+02  4.465942403E+02  0.000000000E+00  0.00000E+00  9.000E+00
      21    -1     0     0   501   502  0.000000000E+00  0.000000000E+00 -8.558180665E+02  8.558180665E+02  0.000000000E+00  0.00000E+00  9.000E+00
      25     1     1     2     0     0 -3.120860985E+02 -2.266661609E+01 -7.365972991E+02  8.100074625E+02  1.250000000E+02  0.00000E+00  9.000E+00
      25     1     1     2     0     0  2.826386902E+02  3.549797942E+01  3.372387768E+02  4.588024938E+02  1.250000000E+02  0.00000E+00  9.000E+00
      21     1     1     2   501   511  2.944740823E+01 -1.283136333E+01 -9.865303900E+00  3.360235047E+01  5.331201500E-07  0.00000E+00  9.000E+00
#rwgt            1           1   3.0950702641485781E-002           9       36535           0
</event>
<event>
      5   9999  3.19816E-02  1.05539E+02 -1.00000E+00  1.22784E-01
      21    -1     0     0   502   501  0.000000000E+00  0.000000000E+00  1.095825252E+03  1.095825252E+03  0.000000000E+00  0.00000E+00  9.000E+00
      21    -1     0     0   512   502  0.000000000E+00  0.000000000E+00 -1.296633366E+03  1.296633366E+03  0.000000000E+00  0.00000E+00  9.000E+00
      25     1     1     2     0     0 -2.505703529E+02  1.588639918E+02 -3.415708484E+02  4.693814165E+02  1.250000000E+02  0.00000E+00  9.000E+00
      25     1     1     2     0     0  3.341106735E+02 -2.233587088E+02  9.855834809E+02  1.071689718E+03  1.250000000E+02  0.00000E+00  9.000E+00
      21     1     1     2   512   501 -8.354032063E+01  6.449471695E+01 -8.448207463E+02  8.513874835E+02  1.078959322E-05  0.00000E+00  9.000E+00
#rwgt            1           1   2.9818637775386393E-002           9       36749           0
</event>
<event>
      5   9999  3.19816E-02  7.22504E+01 -1.00000E+00  1.30528E-01
      -1    -1     0     0     0   501  0.000000000E+00  0.000000000E+00  1.242213192E+03  1.242213192E+03  0.000000000E+00  0.00000E+00  9.000E+00
      21    -1     0     0   501   502  0.000000000E+00  0.000000000E+00 -4.413129348E+02  4.413129348E+02  0.000000000E+00  0.00000E+00  9.000E+00
      25     1     1     2     0     0 -5.076799076E+01 -3.722818851E+02 -3.412224468E+01  3.974424719E+02  1.250000000E+02  0.00000E+00  9.000E+00
      25     1     1     2     0     0 -8.522563921E+00  4.135705029E+02 -1.558510103E+01  4.324131015E+02  1.250000000E+02  0.00000E+00  9.000E+00
      -1     1     1     2     0   502  5.929055469E+01 -4.128861778E+01  8.506076027E+02  8.536705533E+02  0.000000000E+00  0.00000E+00  9.000E+00
#rwgt            1           1   2.8037113017318160E-002           9       36808           0
</event>
<event>
      5   9999  3.19816E-02  3.97948E+01 -1.00000E+00  1.44979E-01
      21    -1     0     0   502   501  0.000000000E+00  0.000000000E+00  3.562807479E+02  3.562807479E+02  0.000000000E+00  0.00000E+00  9.000E+00
      21    -1     0     0   501   511  0.000000000E+00  0.000000000E+00 -5.297795031E+02  5.297795031E+02  0.000000000E+00  0.00000E+00  9.000E+00
      25     1     1     2     0     0 -6.856652917E+01 -4.081524867E+01 -4.701010967E+02  4.929374144E+02  1.250000000E+02  0.00000E+00  9.000E+00
      25     1     1     2     0     0  8.545225747E+01  7.684996998E+01  3.080192053E+02  3.517226706E+02  1.250000000E+02  0.00000E+00  9.000E+00
      21     1     1     2   502   511 -1.688572830E+01 -3.603472131E+01 -1.141686385E+01  4.140016595E+01  8.085167388E-07  0.00000E+00  9.000E+00
#rwgt            1           1   3.0011747054390605E-002           9       36992           0
</event>
<event>
      5   9999  3.19816E-02  9.84006E+01 -1.00000E+00  1.24144E-01
      21    -1     0     0   502   501  0.000000000E+00  0.000000000E+00  7.602887545E+02  7.602887545E+02  0.000000000E+00  0.00000E+00  9.000E+00
      21    -1     0     0   512   502  0.000000000E+00  0.000000000E+00 -1.064838530E+03  1.064838530E+03  0.000000000E+00  0.00000E+00  9.000E+00
      25     1     1     2     0     0  8.260672487E+02 -7.014306806E+01 -2.197541913E+01  8.386984371E+02  1.250000000E+02  0.00000E+00  9.000E+00
      25     1     1     2     0     0 -7.980164864E+02 -2.417464626E+01 -1.509456807E+02  8.220853511E+02  1.250000000E+02  0.00000E+00  9.000E+00
      21     1     1     2   512   501 -2.805076235E+01  9.431771432E+01 -1.316286758E+02  1.643434964E+02  0.000000000E+00  0.00000E+00  9.000E+00
#rwgt            1           1   3.3497298515103822E-002           9       37118           0
</event>
<event>
      5   9999  3.19816E-02  1.22948E+01 -1.00000E+00  1.85927E-01
      21    -1     0     0   502   501  0.000000000E+00  0.000000000E+00  1.080980196E+03  1.080980196E+03  0.000000000E+00  0.00000E+00  9.000E+00
      21    -1     0     0   511   502  0.000000000E+00  0.000000000E+00 -2.714999772E+02  2.714999772E+02  0.000000000E+00  0.00000E+00  9.000E+00
      25     1     1     2     0     0  1.611735502E+02  3.094559801E+02  7.744673395E+02  8.585828888E+02  1.250000000E+02  0.00000E+00  9.000E+00
      25     1     1     2     0     0 -1.691648672E+02 -3.001124695E+02  1.369401282E+02  3.912311917E+02  1.250000000E+02  0.00000E+00  9.000E+00
      21     1     1     2   511   501  7.991317033E+00 -9.343510641E+00 -1.019272493E+02  1.026660922E+02  0.000000000E+00  0.00000E+00  9.000E+00
#rwgt            1           1   2.8593064161451468E-002           9       37178           0
</event>
<event>
      5   9999  3.19816E-02  1.55615E+01 -1.00000E+00  1.75893E-01
      21    -1     0     0   512   501  0.000000000E+00  0.000000000E+00  3.854879552E+02  3.854879552E+02  0.000000000E+00  0.00000E+00  9.000E+00
      21    -1     0     0   501   502  0.000000000E+00  0.000000000E+00 -2.049733358E+03  2.049733358E+03  0.000000000E+00  0.00000E+00  9.000E+00
      25     1     1     2     0     0 -5.165878240E+02  4.023947172E+02 -1.647567963E+02  6.866981070E+02  1.250000000E+02  0.00000E+00  9.000E+00
      25     1     1     2     0     0  5.199648265E+02 -4.175854082E+02 -1.551958188E+03  1.693794619E+03  1.250000000E+02  0.00000E+00  9.000E+00
      21     1     1     2   512   502 -3.377002552E+00  1.519069107E+01  5.246958164E+01  5.472858704E+01  1.784161275E-06  0.00000E+00  9.000E+00
#rwgt            1           1   2.2147774961711761E-002           9       37469           0
</event>
<event>
      5   9999  3.19816E-02  1.78342E+02 -1.00000E+00  1.13491E-01
      21    -1     0     0   502   511  0.000000000E+00  0.000000000E+00  2.220334063E+03  2.220334063E+03  0.000000000E+00  0.00000E+00  9.000E+00
      21    -1     0     0   501   502  0.000000000E+00  0.000000000E+00 -2.586944937E+03  2.586944937E+03  0.000000000E+00  0.00000E+00  9.000E+00
      25     1     1     2     0     0  5.820611762E+02 -1.576284909E+03 -1.124565621E+03  2.025769524E+03  1.250000000E+02  0.00000E+00  9.000E+00
      25     1     1     2     0     0 -7.590410284E+02  1.598283400E+03 -2.200542856E+02  1.787372932E+03  1.250000000E+02  0.00000E+00  9.000E+00
      21     1     1     2   501   511  1.769798522E+02 -2.199849079E+01  9.780090322E+02  9.941365444E+02  1.078959322E-05  0.00000E+00  9.000E+00
#rwgt            1           1   2.6360042783592941E-002           9       37777           0
</event>
<event>
      5   9999  3.19816E-02  1.75103E+01 -1.00000E+00  1.71278E-01
      21    -1     0     0   502   501  0.000000000E+00  0.000000000E+00  5.315514392E+02  5.315514392E+02  0.000000000E+00  0.00000E+00  9.000E+00
      21    -1     0     0   501   512  0.000000000E+00  0.000000000E+00 -3.253146185E+02  3.253146185E+02  0.000000000E+00  0.00000E+00  9.000E+00
      25     1     1     2     0     0 -2.411837232E+02  1.851579747E+02  2.888935539E+02  4.376500308E+02  1.250000000E+02  0.00000E+00  9.000E+00
      25     1     1     2     0     0  2.366929827E+02 -2.020826205E+02 -6.798982962E-01  3.353899459E+02  1.250000000E+02  0.00000E+00  9.000E+00
      21     1     1     2   502   512  4.490740558E+00  1.692464579E+01 -8.197683488E+01  8.382608092E+01  9.536743164E-07  0.00000E+00  9.000E+00
#rwgt            1           1   2.8811060714554519E-002           9       37902           0
</event>
<event>
      5   9999  3.19816E-02  1.33171E+01 -1.00000E+00  1.82395E-01
      21    -1     0     0   502   501  0.000000000E+00  0.000000000E+00  1.802088046E+02  1.802088046E+02  0.000000000E+00  0.00000E+00  9.000E+00
      21    -1     0     0   511   502  0.000000000E+00  0.000000000E+00 -3.086646545E+02  3.086646545E+02  0.000000000E+00  0.00000E+00  9.000E+00
      25     1     1     2     0     0 -9.166862130E+01 -2.552009954E+01  1.093492425E+02  1.914070752E+02  1.250000000E+02  0.00000E+00  9.000E+00
      25     1     1     2     0     0  1.049071630E+02  2.407568487E+01 -2.140871311E+02  2.702655197E+02  1.250000000E+02  0.00000E+00  9.000E+00
      21     1     1     2   511   501 -1.323854174E+01  1.444414669E+00 -2.371796139E+01  2.720086420E+01  3.371747881E-07  0.00000E+00  9.000E+00
#rwgt            1           1   2.7689250655576626E-002           9       38104           0
</event>
<event>
      5   9999  3.19816E-02  8.33565E+01 -1.00000E+00  1.27491E-01
       4    -1     0     0   502     0  0.000000000E+00  0.000000000E+00  5.324932773E+02  5.324932773E+02  0.000000000E+00  0.00000E+00  9.000E+00
      21    -1     0     0   501   502  0.000000000E+00  0.000000000E+00 -4.168826183E+02  4.168826183E+02  0.000000000E+00  0.00000E+00  9.000E+00
      25     1     1     2     0     0  7.300542847E+01 -1.038498725E+02  1.871668312E+01  1.791365480E+02  1.250000000E+02  0.00000E+00  9.000E+00
      25     1     1     2     0     0 -7.710925322E+00  5.203354527E+01 -3.187071151E+02  3.463613336E+02  1.250000000E+02  0.00000E+00  9.000E+00
       4     1     1     2   501     0 -6.529450315E+01  5.181632723E+01  4.156010910E+02  4.238780140E+02  5.394796609E-06  0.00000E+00  9.000E+00
#rwgt            1           1   2.8413480375719752E-002           9       38250           0
</event>
<event>
      5   9999  3.19816E-02  4.54746E+00 -1.00000E+00  2.50999E-01
      21    -1     0     0   511   501  0.000000000E+00  0.000000000E+00  2.237531270E+02  2.237531270E+02  0.000000000E+00  0.00000E+00  9.000E+00
      21    -1     0     0   501   502  0.000000000E+00  0.000000000E+00 -1.643379414E+02  1.643379414E+02  0.000000000E+00  0.00000E+00  9.000E+00
      25     1     1     2     0     0 -1.209328789E+02  1.707552578E+00 -4.807981813E+01  1.804559388E+02  1.250000000E+02  0.00000E+00  9.000E+00
      25     1     1     2     0     0  1.195829736E+02 -6.050037079E+00  1.046092473E+02  2.022493144E+02  1.250000000E+02  0.00000E+00  9.000E+00
      21     1     1     2   511   502  1.349905233E+00  4.342484501E+00  2.885756428E+00  5.385815253E+00  7.300048300E-08  0.00000E+00  9.000E+00
#rwgt            1           1   2.5485595654799267E-002           9       38335           0
</event>
<event>
      5   9999  3.19816E-02  2.11470E+01 -1.00000E+00  1.64395E-01
      21    -1     0     0   512   501  0.000000000E+00  0.000000000E+00  5.432072335E+02  5.432072335E+02  0.000000000E+00  0.00000E+00  9.000E+00
      21    -1     0     0   501   502  0.000000000E+00  0.000000000E+00 -2.265081994E+02  2.265081994E+02  0.000000000E+00  0.00000E+00  9.000E+00
      25     1     1     2     0     0 -5.525402648E+01  9.703427780E+01 -1.699616793E+02  2.387061602E+02  1.250000000E+02  0.00000E+00  9.000E+00
      25     1     1     2     0     0  4.905521280E+01 -7.681619315E+01  2.540905178E+02  2.974796341E+02  1.250000000E+02  0.00000E+00  9.000E+00
      21     1     1     2   512   502  6.198813684E+00 -2.021808465E+01  2.325701956E+02  2.335296386E+02  2.697398305E-06  0.00000E+00  9.000E+00
#rwgt            1           1   2.8149731755347393E-002           9       38583           0
</event>
<event>
      5   9999  3.19816E-02  5.15421E+02 -1.00000E+00  9.84787E-02
      21    -1     0     0   502   501  0.000000000E+00  0.000000000E+00  1.503251967E+03  1.503251967E+03  0.000000000E+00  0.00000E+00  9.000E+00
      21    -1     0     0   511   502  0.000000000E+00  0.000000000E+00 -4.800162541E+02  4.800162541E+02  0.000000000E+00  0.00000E+00  9.000E+00
      25     1     1     2     0     0  6.718511458E+02  4.162090557E+02  6.995135141E+02  1.062806707E+03  1.250000000E+02  0.00000E+00  9.000E+00
      25     1     1     2     0     0 -2.010773598E+02 -2.063743948E+02  2.465565074E+02  3.992963897E+02  1.250000000E+02  0.00000E+00  9.000E+00
      21     1     1     2   511   501 -4.707737860E+02 -2.098346610E+02  7.716569090E+01  5.211651239E+02  7.387129490E-06  0.00000E+00  9.000E+00
#rwgt            2          11   2.3779614764341452E-003           9       38790           0
</event>
<event>
      5   9999  3.19816E-02  1.14913E+02 -1.00000E+00  1.21172E-01
      21    -1     0     0   502   512  0.000000000E+00  0.000000000E+00  1.014317497E+03  1.014317497E+03  0.000000000E+00  0.00000E+00  9.000E+00
      21    -1     0     0   501   502  0.000000000E+00  0.000000000E+00 -5.098247467E+02  5.098247467E+02  0.000000000E+00  0.00000E+00  9.000E+00
      25     1     1     2     0     0 -6.242604567E+02 -2.081929423E+02  5.568186809E+01  6.721390403E+02  1.250000000E+02  0.00000E+00  9.000E+00
      25     1     1     2     0     0  5.237633102E+02  2.639183470E+02  3.211922373E+02  6.802722633E+02  1.250000000E+02  0.00000E+00  9.000E+00
      21     1     1     2   501   512  1.004971466E+02 -5.572540463E+01  1.276186444E+02  1.717309395E+02  3.015782986E-06  0.00000E+00  9.000E+00
#rwgt            1           1   2.9789224440365008E-002           9       38855           0
</event>
<event>
      5   9999  3.19816E-02  3.34295E+02 -1.00000E+00  1.04087E-01
      21    -1     0     0   511   501  0.000000000E+00  0.000000000E+00  7.692192986E+02  7.692192986E+02  0.000000000E+00  0.00000E+00  9.000E+00
      21    -1     0     0   501   502  0.000000000E+00  0.000000000E+00 -3.026957497E+02  3.026957497E+02  0.000000000E+00  0.00000E+00  9.000E+00
      25     1     1     2     0     0  2.233636748E+02 -3.166963428E+02  1.165948210E+02  4.235649384E+02  1.250000000E+02  0.00000E+00  9.000E+00
      25     1     1     2     0     0 -2.732729951E+01  4.591493031E+01 -3.314442561E+01  1.399232471E+02  1.250000000E+02  0.00000E+00  9.000E+00
      21     1     1     2   511   502 -1.960363753E+02  2.707814125E+02  3.830731535E+02  5.084268628E+02  5.394796609E-06  0.00000E+00  9.000E+00
#rwgt            1           1   2.4195424425622867E-002           9       38951           0
</event>
<event>
      5   9999  3.19816E-02  2.82278E+02 -1.00000E+00  1.06458E-01
      21    -1     0     0   502   501  0.000000000E+00  0.000000000E+00  8.578726577E+02  8.578726577E+02  0.000000000E+00  0.00000E+00  9.000E+00
      21    -1     0     0   512   502  0.000000000E+00  0.000000000E+00 -8.290837207E+02  8.290837207E+02  0.000000000E+00  0.00000E+00  9.000E+00
      25     1     1     2     0     0 -8.140655333E+01  7.591127481E+02 -7.075756092E+01  7.768595907E+02  1.250000000E+02  0.00000E+00  9.000E+00
      25     1     1     2     0     0  1.629005131E+02 -4.888543973E+02  2.544384228E+02  5.881148782E+02  1.250000000E+02  0.00000E+00  9.000E+00
      21     1     1     2   512   501 -8.149395981E+01 -2.702583508E+02 -1.548919248E+02  3.219819095E+02  5.394796609E-06  0.00000E+00  9.000E+00
#rwgt            1           1   2.3151899578454337E-002           9       38981           0
</event>
<event>
      5   9999  3.19816E-02  2.37408E+01 -1.00000E+00  1.60451E-01
      21    -1     0     0   502   501  0.000000000E+00  0.000000000E+00  2.508282682E+02  2.508282682E+02  0.000000000E+00  0.00000E+00  9.000E+00
      21    -1     0     0   511   502  0.000000000E+00  0.000000000E+00 -1.391014725E+03  1.391014725E+03  0.000000000E+00  0.00000E+00  9.000E+00
      25     1     1     2     0     0 -3.728984832E+02  4.294567153E+02 -4.857639599E+02  7.583389571E+02  1.250000000E+02  0.00000E+00  9.000E+00
      25     1     1     2     0     0  3.493056060E+02 -4.321023507E+02 -6.224318153E+02  8.436665293E+02  1.250000000E+02  0.00000E+00  9.000E+00
      21     1     1     2   511   501  2.359287727E+01  2.645635447E+00 -3.199068111E+01  3.983750648E+01  3.371747881E-07  0.00000E+00  9.000E+00
#rwgt            1           1   2.6637688066142751E-002           9       39027           0
</event>
<event>
      5   9999  3.19816E-02  6.74242E+02 -1.00000E+00  9.52981E-02
      21    -1     0     0   502   501  0.000000000E+00  0.000000000E+00  6.965221200E+02  6.965221200E+02  0.000000000E+00  0.00000E+00  9.000E+00
       2    -1     0     0   501     0  0.000000000E+00  0.000000000E+00 -1.631899672E+03  1.631899672E+03  0.000000000E+00  0.00000E+00  9.000E+00
      25     1     1     2     0     0  1.111871984E+02 -1.234729681E+02 -1.714290740E+02  2.694830131E+02  1.250000000E+02  0.00000E+00  9.000E+00
      25     1     1     2     0     0  5.609118913E+02  6.975996095E+01  4.070693093E+02  7.076856821E+02  1.250000000E+02  0.00000E+00  9.000E+00
       2     1     1     2   502     0 -6.720990898E+02  5.371300718E+01 -1.171017787E+03  1.351253097E+03  2.157918644E-05  0.00000E+00  9.000E+00
#rwgt            2          13   1.6935684437469681E-003           9       39280           0
</event>
<event>
      5   9999  3.19816E-02  6.17051E+01 -1.00000E+00  1.34056E-01
       1    -1     0     0   502     0  0.000000000E+00  0.000000000E+00  3.099607495E+03  3.099607495E+03  0.000000000E+00  0.00000E+00  9.000E+00
      21    -1     0     0   501   502  0.000000000E+00  0.000000000E+00 -1.615495894E+02  1.615495894E+02  0.000000000E+00  0.00000E+00  9.000E+00
      25     1     1     2     0     0 -2.849900374E+02  1.155865900E+02  2.933815731E+02  4.430319725E+02  1.250000000E+02  0.00000E+00  9.000E+00
      25     1     1     2     0     0  2.964541953E+02 -1.762173581E+02  3.034119787E+02  4.760477666E+02  1.250000000E+02  0.00000E+00  9.000E+00
       1     1     1     2   501     0 -1.146415785E+01  6.063076804E+01  2.341264354E+03  2.342077345E+03  3.051757812E-05  0.00000E+00  9.000E+00
#rwgt            1           1   2.9962554410652150E-002           9       39314           0
</event>
<event>
      5   9999  3.19816E-02  3.30610E+01 -1.00000E+00  1.50166E-01
      21    -1     0     0   502   501  0.000000000E+00  0.000000000E+00  3.150458099E+02  3.150458099E+02  0.000000000E+00  0.00000E+00  9.000E+00
      -3    -1     0     0     0   502  0.000000000E+00  0.000000000E+00 -3.418993497E+02  3.418993497E+02  0.000000000E+00  0.00000E+00  9.000E+00
      25     1     1     2     0     0 -7.633087522E+01 -1.746291067E+02  8.929164552E+01  2.447850596E+02  1.250000000E+02  0.00000E+00  9.000E+00
      25     1     1     2     0     0  1.020213809E+02  1.538197898E+02  6.167253881E+01  2.312950322E+02  1.250000000E+02  0.00000E+00  9.000E+00
      -3     1     1     2     0   501 -2.569050563E+01  2.080931695E+01 -1.778177241E+02  1.808650679E+02  2.697398305E-06  0.00000E+00  9.000E+00
#rwgt            1           1   2.8066476276948030E-002           9       39365           0
</event>
<event>
      5   9999  3.19816E-02  7.59402E+01 -1.00000E+00  1.29454E-01
      21    -1     0     0   511   501  0.000000000E+00  0.000000000E+00  2.298321674E+02  2.298321674E+02  0.000000000E+00  0.00000E+00  9.000E+00
      21    -1     0     0   501   502  0.000000000E+00  0.000000000E+00 -9.218668316E+02  9.218668316E+02  0.000000000E+00  0.00000E+00  9.000E+00
      25     1     1     2     0     0 -1.941461216E+02  1.053041635E+02 -3.124291580E+02  4.025154186E+02  1.250000000E+02  0.00000E+00  9.000E+00
      25     1     1     2     0     0  1.405604225E+02 -5.149438481E+01 -5.386886651E+02  5.729043393E+02  1.250000000E+02  0.00000E+00  9.000E+00
      21     1     1     2   511   502  5.358569913E+01 -5.380977865E+01  1.590831589E+02  1.762792412E+02  5.394796609E-06  0.00000E+00  9.000E+00
#rwgt            1           1   2.8172900181387125E-002           9       39461           0
</event>
<event>
      5   9999  3.19816E-02  2.28523E+02 -1.00000E+00  1.09580E-01
       1    -1     0     0   502     0  0.000000000E+00  0.000000000E+00  1.601615405E+03  1.601615405E+03  0.000000000E+00  0.00000E+00  9.000E+00
      21    -1     0     0   501   502  0.000000000E+00  0.000000000E+00 -3.545042090E+02  3.545042090E+02  0.000000000E+00  0.00000E+00  9.000E+00
      25     1     1     2     0     0  3.256363768E+02 -7.414144350E+01 -2.045838419E+02  4.111150106E+02  1.250000000E+02  0.00000E+00  9.000E+00
      25     1     1     2     0     0 -1.063628163E+02  9.783885635E+00  1.473260898E+02  2.207685436E+02  1.250000000E+02  0.00000E+00  9.000E+00
       1     1     1     2   501     0 -2.192735605E+02  6.435755786E+01  1.304368948E+03  1.324236060E+03  2.157918644E-05  0.00000E+00  9.000E+00
#rwgt            1           1   3.2263450685339666E-002           9       39519           0
</event>
<event>
      5   9999  3.19816E-02  3.42086E+01 -1.00000E+00  1.49183E-01
      21    -1     0     0   502   501  0.000000000E+00  0.000000000E+00  4.400838373E+02  4.400838373E+02  0.000000000E+00  0.00000E+00  9.000E+00
      21    -1     0     0   511   502  0.000000000E+00  0.000000000E+00 -4.042064251E+02  4.042064251E+02  0.000000000E+00  0.00000E+00  9.000E+00
      25     1     1     2     0     0 -2.521106372E+02  6.306414398E+01  5.030482341E+01  2.927327022E+02  1.250000000E+02  0.00000E+00  9.000E+00
      25     1     1     2     0     0  2.205204599E+02 -4.993832325E+01  2.047961564E+02  3.296810202E+02  1.250000000E+02  0.00000E+00  9.000E+00
      21     1     1     2   511   501  3.159017729E+01 -1.312582073E+01 -2.192235676E+02  2.218765402E+02  2.697398305E-06  0.00000E+00  9.000E+00
#rwgt            1           1   2.8599108665714291E-002           9       39593           0
</event>
<event>
      5   9999  3.19816E-02  4.63590E+01 -1.00000E+00  1.40975E-01
      21    -1     0     0   512   501  0.000000000E+00  0.000000000E+00  1.486553426E+03  1.486553426E+03  0.000000000E+00  0.00000E+00  9.000E+00
      21    -1     0     0   501   502  0.000000000E+00  0.000000000E+00 -1.635841237E+02  1.635841237E+02  0.000000000E+00  0.00000E+00  9.000E+00
      25     1     1     2     0     0 -3.748824676E+02  1.636932382E+02  5.622115419E+02  7.064270370E+02  1.250000000E+02  0.00000E+00  9.000E+00
      25     1     1     2     0     0  3.741341579E+02 -1.173402640E+02  3.800348011E+02  5.601754687E+02  1.250000000E+02  0.00000E+00  9.000E+00
      21     1     1     2   512   502  7.483097029E-01 -4.635297422E+01  3.807229588E+02  3.835350435E+02  7.629394531E-06  0.00000E+00  9.000E+00
#rwgt            1           1   2.5974531454176001E-002           9       39686           0
</event>
<event>
      5   9999  3.19816E-02  4.18224E+01 -1.00000E+00  1.43650E-01
      21    -1     0     0   502   511  0.000000000E+00  0.000000000E+00  2.292372115E+02  2.292372115E+02  0.000000000E+00  0.00000E+00  9.000E+00
      21    -1     0     0   501   502  0.000000000E+00  0.000000000E+00 -2.303411444E+02  2.303411444E+02  0.000000000E+00  0.00000E+00  9.000E+00
      25     1     1     2     0     0 -9.642326147E+01 -9.869617931E+01 -1.225610608E+02  2.229004145E+02  1.250000000E+02  0.00000E+00  9.000E+00
      25     1     1     2     0     0  6.028595096E+01  7.764361846E+01  8.088922882E+01  1.784124287E+02  1.250000000E+02  0.00000E+00  9.000E+00
      21     1     1     2   501   511  3.613731052E+01  2.105256085E+01  4.056789914E+01  5.826551270E+01  4.768371582E-07  0.00000E+00  9.000E+00
#rwgt            1           1   2.5270253162461377E-002           9       39789           0
</event>
<event>
      5   9999  3.19816E-02  1.50626E+02 -1.00000E+00  1.16322E-01
      21    -1     0     0   502   501  0.000000000E+00  0.000000000E+00  2.052207306E+02  2.052207306E+02  0.000000000E+00  0.00000E+00  9.000E+00
       2    -1     0     0   501     0  0.000000000E+00  0.000000000E+00 -2.097166971E+03  2.097166971E+03  0.000000000E+00  0.00000E+00  9.000E+00
      25     1     1     2     0     0 -2.129434748E+02  4.856399555E+02 -5.844671836E+02  7.990106248E+02  1.250000000E+02  0.00000E+00  9.000E+00
      25     1     1     2     0     0  3.595109848E+02 -4.509091098E+02 -1.076675914E+03  1.227771639E+03  1.250000000E+02  0.00000E+00  9.000E+00
       2     1     1     2   502     0 -1.465675101E+02 -3.473084563E+01 -2.308031430E+02  2.756054380E+02  0.000000000E+00  0.00000E+00  9.000E+00
#rwgt            1           1   2.9168164165523671E-002           9       39875           0
</event>
<event>
      5   9999  3.19816E-02  9.32922E+00 -1.00000E+00  1.99309E-01
      21    -1     0     0   502   501  0.000000000E+00  0.000000000E+00  5.948886858E+02  5.948886858E+02  0.000000000E+00  0.00000E+00  9.000E+00
      21    -1     0     0   511   502  0.000000000E+00  0.000000000E+00 -8.668251137E+02  8.668251137E+02  0.000000000E+00  0.00000E+00  9.000E+00
      25     1     1     2     0     0 -5.797875251E+02 -1.575376228E+01  2.618239852E+02  6.485202807E+02  1.250000000E+02  0.00000E+00  9.000E+00
      25     1     1     2     0     0  5.764178009E+02  7.054377307E+00 -4.852844728E+02  7.638280336E+02  1.250000000E+02  0.00000E+00  9.000E+00
      21     1     1     2   511   501  3.369724190E+00  8.699384974E+00 -4.847594024E+01  4.936548513E+01  0.000000000E+00  0.00000E+00  9.000E+00
#rwgt            1           1   3.4577031949119257E-002           9       39956           0
</event>
<event>
      5   9999  3.19816E-02  1.25619E+02 -1.00000E+00  1.19531E-01
      21    -1     0     0   502   501  0.000000000E+00  0.000000000E+00  3.430777110E+02  3.430777110E+02  0.000000000E+00  0.00000E+00  9.000E+00
      21    -1     0     0   501   512  0.000000000E+00  0.000000000E+00 -1.147607202E+03  1.147607202E+03  0.000000000E+00  0.00000E+00  9.000E+00
      25     1     1     2     0     0 -2.731068124E+02  2.827819153E+02  1.141326590E+02  4.280236050E+02  1.250000000E+02  0.00000E+00  9.000E+00
      25     1     1     2     0     0  1.485716317E+02 -2.992473232E+02 -4.329879588E+02  5.610045122E+02  1.250000000E+02  0.00000E+00  9.000E+00
      21     1     1     2   502   512  1.245351807E+02  1.646540788E+01 -4.856741906E+02  5.016567953E+02  9.344061824E-06  0.00000E+00  9.000E+00
#rwgt            1           1   3.1269657051720974E-002           9       40297           0
</event>
<event>
      5   9999  3.19816E-02  6.14182E+01 -1.00000E+00  1.34163E-01
      21    -1     0     0   502   501  0.000000000E+00  0.000000000E+00  6.227941332E+02  6.227941332E+02  0.000000000E+00  0.00000E+00  9.000E+00
      21    -1     0     0   501   511  0.000000000E+00  0.000000000E+00 -5.662719493E+02  5.662719493E+02  0.000000000E+00  0.00000E+00  9.000E+00
      25     1     1     2     0     0  1.701996945E+02 -4.009610319E+02 -9.015332770E+01  4.620501137E+02  1.250000000E+02  0.00000E+00  9.000E+00
      25     1     1     2     0     0 -1.629519918E+02  4.619500659E+02  2.816619536E+02  5.787138076E+02  1.250000000E+02  0.00000E+00  9.000E+00
      21     1     1     2   502   511 -7.247702685E+00 -6.098903405E+01 -1.349864420E+02  1.483021611E+02  1.907348633E-06  0.00000E+00  9.000E+00
#rwgt            1           1   2.5104064970187658E-002           9       40352           0
</event>
<event>
      5   9999  3.19816E-02  3.00960E+01 -1.00000E+00  1.52944E-01
      21    -1     0     0   502   512  0.000000000E+00  0.000000000E+00  5.114776112E+02  5.114776112E+02  0.000000000E+00  0.00000E+00  9.000E+00
      21    -1     0     0   501   502  0.000000000E+00  0.000000000E+00 -1.724680084E+02  1.724680084E+02  0.000000000E+00  0.00000E+00  9.000E+00
      25     1     1     2     0     0 -5.042238458E+01 -1.742381405E+01  1.782882831E+02  2.241823322E+02  1.250000000E+02  0.00000E+00  9.000E+00
      25     1     1     2     0     0  6.442447862E+01 -9.216588863E+00 -1.153136103E+02  1.820925250E+02  1.250000000E+02  0.00000E+00  9.000E+00
      21     1     1     2   501   512 -1.400209404E+01  2.664040291E+01  2.760349300E+02  2.776707624E+02  3.814697266E-06  0.00000E+00  9.000E+00
#rwgt            1           1   3.0960545819134041E-002           9       40550           0
</event>
<event>
      5   9999  3.19816E-02  2.21712E+01 -1.00000E+00  1.62759E-01
      21    -1     0     0   502   501  0.000000000E+00  0.000000000E+00  2.903845716E+02  2.903845716E+02  0.000000000E+00  0.00000E+00  9.000E+00
      21    -1     0     0   511   502  0.000000000E+00  0.000000000E+00 -1.577817994E+03  1.577817994E+03  0.000000000E+00  0.00000E+00  9.000E+00
      25     1     1     2     0     0 -2.703173430E+02 -4.253364036E+02 -5.137471456E+01  5.217728274E+02  1.250000000E+02  0.00000E+00  9.000E+00
      25     1     1     2     0     0  2.830751776E+02  4.072035149E+02 -1.175521950E+03  1.281960653E+03  1.250000000E+02  0.00000E+00  9.000E+00
      21     1     1     2   511   501 -1.275783462E+01  1.813288868E+01 -6.053675732E+01  6.446908549E+01  9.536743164E-07  0.00000E+00  9.000E+00
#rwgt            1           1   2.3599658028934246E-002           9       40638           0
</event>
<event>
      5   9999  3.19816E-02  4.81159E+01 -1.00000E+00  1.40034E-01
      21    -1     0     0   502   501  0.000000000E+00  0.000000000E+00  3.467542045E+02  3.467542045E+02  0.000000000E+00  0.00000E+00  9.000E+00
      21    -1     0     0   501   512  0.000000000E+00  0.000000000E+00 -1.265779680E+02  1.265779680E+02  0.000000000E+00  0.00000E+00  9.000E+00
      25     1     1     2     0     0  4.654701018E+01  6.306340960E+01  2.459891032E+00  1.475624236E+02  1.250000000E+02  0.00000E+00  9.000E+00
      25     1     1     2     0     0 -9.396244383E+01 -5.488305366E+01  2.224752695E+02  2.774190620E+02  1.250000000E+02  0.00000E+00  9.000E+00
      21     1     1     2   502   512  4.741543365E+01 -8.180355937E+00 -4.758924064E+00  4.835068696E+01  9.176018428E-07  0.00000E+00  9.000E+00
#rwgt            1           1   2.7182053491550697E-002           9       40862           0
</event>
<event>
      5   9999  3.19816E-02  2.03975E+01 -1.00000E+00  1.65667E-01
      21    -1     0     0   502   501  0.000000000E+00  0.000000000E+00  1.967996164E+02  1.967996164E+02  0.000000000E+00  0.00000E+00  9.000E+00
      21    -1     0     0   501   511  0.000000000E+00  0.000000000E+00 -1.067576466E+03  1.067576466E+03  0.000000000E+00  0.00000E+00  9.000E+00
      25     1     1     2     0     0 -2.382142249E+02 -5.759562076E+01 -7.197641558E+01  2.843745362E+02  1.250000000E+02  0.00000E+00  9.000E+00
      25     1     1     2     0     0  2.197466382E+02  4.893503605E+01 -9.281329165E+01  2.737198017E+02  1.250000000E+02  0.00000E+00  9.000E+00
      21     1     1     2   502   511  1.846758670E+01  8.660584713E+00 -7.059871427E+02  7.062817449E+02  0.000000000E+00  0.00000E+00  9.000E+00
#rwgt            1           1   2.9034211227497220E-002           9       40945           0
</event>
<event>
      5   9999  3.19816E-02  3.47455E+01 -1.00000E+00  1.48738E-01
      21    -1     0     0   502   501  0.000000000E+00  0.000000000E+00  5.346771974E+02  5.346771974E+02  0.000000000E+00  0.00000E+00  9.000E+00
      21    -1     0     0   512   502  0.000000000E+00  0.000000000E+00 -4.931935419E+02  4.931935419E+02  0.000000000E+00  0.00000E+00  9.000E+00
      25     1     1     2     0     0 -6.255109497E+01  2.750046389E+02  3.715276064E+02  4.829057395E+02  1.250000000E+02  0.00000E+00  9.000E+00
      25     1     1     2     0     0  2.998032626E+01 -2.629051982E+02 -9.546309457E+01  3.078248944E+02  1.250000000E+02  0.00000E+00  9.000E+00
      21     1     1     2   512   501  3.257076872E+01 -1.209944078E+01 -2.345808564E+02  2.371401054E+02  2.697398305E-06  0.00000E+00  9.000E+00
#rwgt            1           1   2.6648474079380851E-002           9       41139           0
</event>
<event>
      5   9999  3.19816E-02  1.87206E+01 -1.00000E+00  1.68773E-01
      21    -1     0     0   502   511  0.000000000E+00  0.000000000E+00  1.551254296E+03  1.551254296E+03  0.000000000E+00  0.00000E+00  9.000E+00
      21    -1     0     0   501   502  0.000000000E+00  0.000000000E+00 -2.021761961E+02  2.021761961E+02  0.000000000E+00  0.00000E+00  9.000E+00
      25     1     1     2     0     0 -3.251856670E+02 -3.762233555E+02  3.589533581E+02  6.259091344E+02  1.250000000E+02  0.00000E+00  9.000E+00
      25     1     1     2     0     0  3.431315683E+02  3.708935179E+02  9.607627888E+02  1.092699140E+03  1.250000000E+02  0.00000E+00  9.000E+00
      21     1     1     2   501   511 -1.794590123E+01  5.329837575E+00  2.936195281E+01  3.482221722E+01  6.743495762E-07  0.00000E+00  9.000E+00
#rwgt            1           1   2.8749916643963761E-002           9       41272           0
</event>
<event>
      5   9999  3.19816E-02  2.68810E+02 -1.00000E+00  1.07165E-01
       1    -1     0     0   502     0  0.000000000E+00  0.000000000E+00  1.549475717E+03  1.549475717E+03  0.000000000E+00  0.00000E+00  9.000E+00
      21    -1     0     0   501   502  0.000000000E+00  0.000000000E+00 -1.121384646E+03  1.121384646E+03  0.000000000E+00  0.00000E+00  9.000E+00
      25     1     1     2     0     0  7.187970081E+02 -4.042050062E+02 -4.870987999E+02  9.658887445E+02  1.250000000E+02  0.00000E+00  9.000E+00
      25     1     1     2     0     0 -4.546161630E+02  4.538784422E+02 -9.348304084E+01  6.610942254E+02  1.250000000E+02  0.00000E+00  9.000E+00
       1     1     1     2   501     0 -2.641808451E+02 -4.967343601E+01  1.008672912E+03  1.043877393E+03  1.078959322E-05  0.00000E+00  9.000E+00
#rwgt            2          17   1.0924339613696799E-003           9       41571           0
</event>
<event>
      5   9999  3.19816E-02  6.32375E+01 -1.00000E+00  1.33495E-01
      21    -1     0     0   502   501  0.000000000E+00  0.000000000E+00  1.237475160E+02  1.237475160E+02  0.000000000E+00  0.00000E+00  9.000E+00
      21    -1     0     0   501   511  0.000000000E+00  0.000000000E+00 -2.682504505E+03  2.682504505E+03  0.000000000E+00  0.00000E+00  9.000E+00
      25     1     1     2     0     0 -1.289324039E+02 -2.500237714E+02 -1.239433623E+02  3.318469649E+02  1.250000000E+02  0.00000E+00  9.000E+00
      25     1     1     2     0     0  1.197605578E+02  3.125925966E+02 -1.715614581E+03  1.752431200E+03  1.250000000E+02  0.00000E+00  9.000E+00
      21     1     1     2   502   511  9.171846155E+00 -6.256882522E+01 -7.191990458E+02  7.219738556E+02  7.629394531E-06  0.00000E+00  9.000E+00
#rwgt            1           1   2.6873477105296941E-002           9       41605           0
</event>
<event>
      5   9999  3.19816E-02  5.06531E+01 -1.00000E+00  1.38755E-01
      21    -1     0     0   502   501  0.000000000E+00  0.000000000E+00  8.801688904E+02  8.801688904E+02  0.000000000E+00  0.00000E+00  9.000E+00
      21    -1     0     0   512   502  0.000000000E+00  0.000000000E+00 -8.768406502E+02  8.768406502E+02  0.000000000E+00  0.00000E+00  9.000E+00
      25     1     1     2     0     0  8.087945607E+02  1.748202488E+02  2.526687019E+01  8.372420054E+02  1.250000000E+02  0.00000E+00  9.000E+00
      25     1     1     2     0     0 -8.262005989E+02 -2.223887481E+02 -3.106000391E-01  8.646902806E+02  1.250000000E+02  0.00000E+00  9.000E+00
      21     1     1     2   512   501  1.740603822E+01  4.756849930E+01 -2.162802994E+01  5.507725457E+01  9.536743164E-07  0.00000E+00  9.000E+00
#rwgt            1           1   3.5830449655694631E-002           9       41692           0
</event>
<event>
      5   9999  3.19816E-02  5.29254E+01 -1.00000E+00  1.37681E-01
      21    -1     0     0   502   501  0.000000000E+00  0.000000000E+00  1.568196351E+02  1.568196351E+02  0.000000000E+00  0.00000E+00  9.000E+00
      21    -1     0     0   501   511  0.000000000E+00  0.000000000E+00 -5.660707278E+02  5.660707278E+02  0.000000000E+00  0.00000E+00  9.000E+00
      25     1     1     2     0     0 -1.423973589E+02  8.061791749E+01 -3.089224075E+02  3.712604346E+02  1.250000000E+02  0.00000E+00  9.000E+00
      25     1     1     2     0     0  1.948051012E+02 -7.323371810E+01 -5.265608867E+00  2.428269580E+02  1.250000000E+02  0.00000E+00  9.000E+00
      21     1     1     2   502   511 -5.240774228E+01 -7.384199396E+00 -9.506307638E+01  1.088029703E+02  0.000000000E+00  0.00000E+00  9.000E+00
#rwgt            1           1   2.6183626726516071E-002           9       41880           0
</event>
<event>
      5   9999  3.19816E-02  5.26070E+01 -1.00000E+00  1.37828E-01
      21    -1     0     0   502   501  0.000000000E+00  0.000000000E+00  8.035038363E+01  8.035038363E+01  0.000000000E+00  0.00000E+00  9.000E+00
      21    -1     0     0   501   512  0.000000000E+00  0.000000000E+00 -1.399084361E+03  1.399084361E+03  0.000000000E+00  0.00000E+00  9.000E+00
      25     1     1     2     0     0  2.715947136E+01 -3.723956619E+01 -3.162780864E+02  3.431927303E+02  1.250000000E+02  0.00000E+00  9.000E+00
      25     1     1     2     0     0 -2.116099538E+01 -1.502432369E+01  4.662336573E+00  1.277507550E+02  1.250000000E+02  0.00000E+00  9.000E+00
      21     1     1     2   502   512 -5.998475982E+00  5.226388988E+01 -1.007118228E+03  1.008491259E+03  0.000000000E+00  0.00000E+00  9.000E+00
#rwgt            1           1   3.3664723846296936E-002           9       41978           0
</event>
<event>
      5   9999  3.19816E-02  6.76667E+01 -1.00000E+00  1.31971E-01
      21    -1     0     0   502   501  0.000000000E+00  0.000000000E+00  1.436564906E+03  1.436564906E+03  0.000000000E+00  0.00000E+00  9.000E+00
      21    -1     0     0   511   502  0.000000000E+00  0.000000000E+00 -7.485460506E+01  7.485460506E+01  0.000000000E+00  0.00000E+00  9.000E+00
      25     1     1     2     0     0 -1.533322642E+02  8.674612836E+01  4.048181834E+02  4.588446748E+02  1.250000000E+02  0.00000E+00  9.000E+00
      25     1     1     2     0     0  1.104343836E+02 -1.390773305E+02  9.605647314E+02  9.848085398E+02  1.250000000E+02  0.00000E+00  9.000E+00
      21     1     1     2   511   501  4.289788059E+01  5.233120209E+01 -3.672613584E+00  6.776629665E+01  2.014689896E-06  0.00000E+00  9.000E+00
#rwgt            1           1   2.6990172918127081E-002           9       42036           0
</event>
<event>
      5   9999  3.19816E-02  3.08764E+01 -1.00000E+00  1.52176E-01
      21    -1     0     0   502   512  0.000000000E+00  0.000000000E+00  1.426465374E+02  1.426465374E+02  0.000000000E+00  0.00000E+00  9.000E+00
      21    -1     0     0   501   502  0.000000000E+00  0.000000000E+00 -8.716780782E+02  8.716780782E+02  0.000000000E+00  0.00000E+00  9.000E+00
      25     1     1     2     0     0 -7.837720371E+01  1.599025703E+02 -6.698463575E+02  7.042946547E+02  1.250000000E+02  0.00000E+00  9.000E+00
      25     1     1     2     0     0  6.007560360E+01 -1.350349059E+02 -1.297326228E+02  2.330215813E+02  1.250000000E+02  0.00000E+00  9.000E+00
      21     1     1     2   501   512  1.830160010E+01 -2.486766440E+01  7.054743952E+01  7.700837956E+01  2.861022949E-06  0.00000E+00  9.000E+00
#rwgt            1           1   2.9958456976306513E-002           9       42105           0
</event>
<event>
      5   9999  3.19816E-02  1.84978E+01 -1.00000E+00  1.69216E-01
      21    -1     0     0   502   501  0.000000000E+00  0.000000000E+00  6.090989311E+02  6.090989311E+02  0.000000000E+00  0.00000E+00  9.000E+00
      21    -1     0     0   511   502  0.000000000E+00  0.000000000E+00 -2.146210713E+02  2.146210713E+02  0.000000000E+00  0.00000E+00  9.000E+00
      25     1     1     2     0     0  1.199209888E+02  3.134695181E+02  1.558172396E+02  3.905741856E+02  1.250000000E+02  0.00000E+00  9.000E+00
      25     1     1     2     0     0 -1.127324008E+02 -2.964257123E+02  2.356455712E+02  4.144039483E+02  1.250000000E+02  0.00000E+00  9.000E+00
      21     1     1     2   511   501 -7.188587983E+00 -1.704380577E+01  3.015048971E+00  1.874186844E+01  4.860611686E-07  0.00000E+00  9.000E+00
#rwgt            1           1   2.8979754263237290E-002           9       42205           0
</event>
<event>
      5   9999  3.19816E-02  1.04750E+02 -1.00000E+00  1.22928E-01
      21    -1     0     0   502   501  0.000000000E+00  0.000000000E+00  1.006640645E+03  1.006640645E+03  0.000000000E+00  0.00000E+00  9.000E+00
      21    -1     0     0   501   512  0.000000000E+00  0.000000000E+00 -6.804676081E+02  6.804676081E+02  0.000000000E+00  0.00000E+00  9.000E+00
      25     1     1     2     0     0  6.836969823E+02  3.462899393E+02  3.908525498E+02  8.693382549E+02  1.250000000E+02  0.00000E+00  9.000E+00
      25     1     1     2     0     0 -5.854185016E+02 -3.825370953E+02 -5.951334944E+01  7.128929022E+02  1.250000000E+02  0.00000E+00  9.000E+00
      21     1     1     2   502   512 -9.827848071E+01  3.624715600E+01 -5.166163074E+00  1.048770963E+02  2.678895599E-06  0.00000E+00  9.000E+00
#rwgt            2          11   1.2346629407986545E-002           9       42441           0
</event>
<event>
      5   9999  3.19816E-02  3.14223E+02 -1.00000E+00  1.04942E-01
      21    -1     0     0   502   501  0.000000000E+00  0.000000000E+00  4.862783773E+02  4.862783773E+02  0.000000000E+00  0.00000E+00  9.000E+00
      21    -1     0     0   501   511  0.000000000E+00  0.000000000E+00 -5.493196917E+02  5.493196917E+02  0.000000000E+00  0.00000E+00  9.000E+00
      25     1     1     2     0     0  2.130381849E+02  1.337579816E+02 -2.108835600E+02  3.512454152E+02  1.250000000E+02  0.00000E+00  9.000E+00
      25     1     1     2     0     0 -5.282612131E+01  1.365534986E+02  2.830167692E+02  3.422878156E+02  1.250000000E+02  0.00000E+00  9.000E+00
      21     1     1     2   502   511 -1.602120636E+02 -2.703114801E+02 -1.351745236E+02  3.420648381E+02  7.864199878E-06  0.00000E+00  9.000E+00
#rwgt            1           1   2.7841568229625739E-002           9       42491           0
</event>
<event>
      5   9999  3.19816E-02  3.06655E+01 -1.00000E+00  1.52381E-01
      21    -1     0     0   502   512  0.000000000E+00  0.000000000E+00  3.969709158E+01  3.969709158E+01  0.000000000E+00  0.00000E+00  9.000E+00
      21    -1     0     0   501   502  0.000000000E+00  0.000000000E+00 -8.333746640E+02  8.333746640E+02  0.000000000E+00  0.00000E+00  9.000E+00
      25     1     1     2     0     0  5.748636999E+01  3.803490824E+01 -1.897169315E+02  2.374212524E+02  1.250000000E+02  0.00000E+00  9.000E+00
      25     1     1     2     0     0 -8.345259308E+01 -2.172141524E+01 -5.700499859E+02  5.899306243E+02  1.250000000E+02  0.00000E+00  9.000E+00
      21     1     1     2   501   512  2.596622309E+01 -1.631349301E+01 -3.391065507E+01  4.571987886E+01  0.000000000E+00  0.00000E+00  9.000E+00
#rwgt            1           1   2.6747423454024481E-002           9       42546           0
</event>
<event>
      5   9999  3.19816E-02  6.90761E+01 -1.00000E+00  1.31514E-01
      21    -1     0     0   502   501  0.000000000E+00  0.000000000E+00  5.318809657E+02  5.318809657E+02  0.000000000E+00  0.00000E+00  9.000E+00
      21    -1     0     0   501   511  0.000000000E+00  0.000000000E+00 -5.338959383E+02  5.338959383E+02  0.000000000E+00  0.00000E+00  9.000E+00
      25     1     1     2     0     0 -3.330329722E+02  3.184550948E+02 -8.662897217E+00  4.775192706E+02  1.250000000E+02  0.00000E+00  9.000E+00
      25     1     1     2     0     0  3.850994191E+02 -2.730613925E+02  7.143871038E+01  4.935509863E+02  1.250000000E+02  0.00000E+00  9.000E+00
      21     1     1     2   502   511 -5.206644689E+01 -4.539370229E+01 -6.479078570E+01  9.470664713E+01  1.907348633E-06  0.00000E+00  9.000E+00
#rwgt            1           1   2.8283973640529363E-002           9       42686           0
</event>
<event>
      5   9999  3.19816E-02  4.23965E+01 -1.00000E+00  1.43290E-01
       2    -1     0     0   502     0  0.000000000E+00  0.000000000E+00  6.853531232E+02  6.853531232E+02  0.000000000E+00  0.00000E+00  9.000E+00
      21    -1     0     0   501   502  0.000000000E+00  0.000000000E+00 -3.003874005E+02  3.003874005E+02  0.000000000E+00  0.00000E+00  9.000E+00
      25     1     1     2     0     0  3.101501424E+00 -1.476686258E+02 -1.567353776E+02  2.490112868E+02  1.250000000E+02  0.00000E+00  9.000E+00
      25     1     1     2     0     0 -1.720858475E+01  1.876492931E+02  3.566738511E+01  2.289225960E+02  1.250000000E+02  0.00000E+00  9.000E+00
       2     1     1     2   501     0  1.410708333E+01 -3.998066731E+01  5.060337153E+02  5.078066409E+02  5.394796609E-06  0.00000E+00  9.000E+00
#rwgt            1           1   2.5973384914250337E-002           9       42783           0
</event>
<event>
      5   9999  3.19816E-02  1.50598E+02 -1.00000E+00  1.16325E-01
      21    -1     0     0   511   501  0.000000000E+00  0.000000000E+00  6.952691752E+01  6.952691752E+01  0.000000000E+00  0.00000E+00  9.000E+00
      21    -1     0     0   501   502  0.000000000E+00  0.000000000E+00 -1.485974810E+03  1.485974810E+03  0.000000000E+00  0.00000E+00  9.000E+00
      25     1     1     2     0     0 -2.156878016E+02  1.075744677E+02 -4.062163414E+02  4.886002558E+02  1.250000000E+02  0.00000E+00  9.000E+00
      25     1     1     2     0     0  7.302763970E+01 -5.932605404E+01 -7.507947470E+02  7.669226617E+02  1.250000000E+02  0.00000E+00  9.000E+00
      21     1     1     2   511   502  1.426601619E+02 -4.824841367E+01 -2.594368041E+02  2.999788101E+02  6.607249480E-06  0.00000E+00  9.000E+00
#rwgt            2          11   3.3143479757251804E-003           9       42946           0
</event>
<event>
      5   9999  3.19816E-02  4.41573E+01 -1.00000E+00  1.42226E-01
      21    -1     0     0   502   501  0.000000000E+00  0.000000000E+00  2.577089882E+02  2.577089882E+02  0.000000000E+00  0.00000E+00  9.000E+00
       2    -1     0     0   501     0  0.000000000E+00  0.000000000E+00 -1.390408614E+03  1.390408614E+03  0.000000000E+00  0.00000E+00  9.000E+00
      25     1     1     2     0     0  1.623094993E+02  1.221977391E+01  1.780567658E+02  2.717037142E+02  1.250000000E+02  0.00000E+00  9.000E+00
      25     1     1     2     0     0 -1.413636439E+02 -5.109311230E+01 -2.628675316E+02  3.275950627E+02  1.250000000E+02  0.00000E+00  9.000E+00
       2     1     1     2   502     0 -2.094585538E+01  3.887333840E+01 -1.047888860E+03  1.048818825E+03  2.157918644E-05  0.00000E+00  9.000E+00
#rwgt            1           1   2.7662310420016864E-002           9       42966           0
</event>
<event>
      5   9999  3.19816E-02  3.11613E+02 -1.00000E+00  1.05059E-01
      21    -1     0     0   502   511  0.000000000E+00  0.000000000E+00  1.538728675E+02  1.538728675E+02  0.000000000E+00  0.00000E+00  9.000E+00
      21    -1     0     0   501   502  0.000000000E+00  0.000000000E+00 -3.737198293E+03  3.737198293E+03  0.000000000E+00  0.00000E+00  9.000E+00
      25     1     1     2     0     0 -5.178308960E+02  1.656253951E+02 -2.383798638E+03  2.448203741E+03  1.250000000E+02  0.00000E+00  9.000E+00
      25     1     1     2     0     0  3.382825165E+02  8.906054202E+01 -1.014712364E+03  1.080570693E+03  1.250000000E+02  0.00000E+00  9.000E+00
      21     1     1     2   501   511  1.795483795E+02 -2.546859371E+02 -1.848144233E+02  3.622967267E+02  5.394796609E-06  0.00000E+00  9.000E+00
#rwgt            2          11   2.8955455741744478E-003           9       43053           0
</event>
<event>
      5   9999  3.19816E-02  4.21095E+01 -1.00000E+00  1.43469E-01
      21    -1     0     0   502   512  0.000000000E+00  0.000000000E+00  3.137860276E+02  3.137860276E+02  0.000000000E+00  0.00000E+00  9.000E+00
      21    -1     0     0   501   502  0.000000000E+00  0.000000000E+00 -3.525330099E+02  3.525330099E+02  0.000000000E+00  0.00000E+00  9.000E+00
      25     1     1     2     0     0 -1.342185451E+02  2.922235479E+00 -1.746266403E+02  2.532639351E+02  1.250000000E+02  0.00000E+00  9.000E+00
      25     1     1     2     0     0  1.732526312E+02  1.287495807E+01 -5.221576446E+01  2.203037104E+02  1.250000000E+02  0.00000E+00  9.000E+00
      21     1     1     2   501   512 -3.903408610E+01 -1.579719355E+01  1.880954224E+02  1.927513921E+02  3.814697266E-06  0.00000E+00  9.000E+00
#rwgt            1           1   2.5760750484569220E-002           9       43073           0
</event>
<event>
      5   9999  3.19816E-02  4.42140E+01 -1.00000E+00  1.42193E-01
      21    -1     0     0   502   501  0.000000000E+00  0.000000000E+00  5.946554311E+02  5.946554311E+02  0.000000000E+00  0.00000E+00  9.000E+00
      21    -1     0     0   511   502  0.000000000E+00  0.000000000E+00 -1.941380660E+02  1.941380660E+02  0.000000000E+00  0.00000E+00  9.000E+00
      25     1     1     2     0     0 -1.885484223E+02 -1.644695946E+02  2.720865878E+02  3.902010589E+02  1.250000000E+02  0.00000E+00  9.000E+00
      25     1     1     2     0     0  2.307685236E+02  1.513415678E+02  1.615598015E+02  3.433437797E+02  1.250000000E+02  0.00000E+00  9.000E+00
      21     1     1     2   511   501 -4.222010125E+01  1.312802680E+01 -3.312902410E+01  5.524865858E+01  4.768371582E-07  0.00000E+00  9.000E+00
#rwgt            1           1   2.7941250319857391E-002           9       43183           0
</event>
<event>
      5   9999  3.19816E-02  1.20758E+02 -1.00000E+00  1.20252E-01
      21    -1     0     0   512   501  0.000000000E+00  0.000000000E+00  3.896234187E+02  3.896234187E+02  0.000000000E+00  0.00000E+00  9.000E+00
      21    -1     0     0   501   502  0.000000000E+00  0.000000000E+00 -7.740047110E+02  7.740047110E+02  0.000000000E+00  0.00000E+00  9.000E+00
      25     1     1     2     0     0  1.067515808E+02 -1.408299049E+01  3.093288017E+02  3.505760092E+02  1.250000000E+02  0.00000E+00  9.000E+00
      25     1     1     2     0     0 -6.114877423E+01  1.258993174E+02 -6.621645563E+02  6.882417528E+02  1.250000000E+02  0.00000E+00  9.000E+00
      21     1     1     2   512   502 -4.560280658E+01 -1.118163269E+02 -3.154553781E+01  1.248103677E+02  4.768371582E-07  0.00000E+00  9.000E+00
#rwgt            1           1   2.2000246978782202E-002           9       43308           0
</event>
<event>
      5   9999  3.19816E-02  1.24231E+02 -1.00000E+00  1.19733E-01
      21    -1     0     0   502   501  0.000000000E+00  0.000000000E+00  2.846607685E+02  2.846607685E+02  0.000000000E+00  0.00000E+00  9.000E+00
       2    -1     0     0   501     0  0.000000000E+00  0.000000000E+00 -2.320723705E+03  2.320723705E+03  0.000000000E+00  0.00000E+00  9.000E+00
      25     1     1     2     0     0 -5.613414449E+02 -3.600019802E+02 -1.067917880E+03  1.265219049E+03  1.250000000E+02  0.00000E+00  9.000E+00
      25     1     1     2     0     0  6.719886215E+02  4.164879141E+02 -8.061241332E+02  1.135998243E+03  1.250000000E+02  0.00000E+00  9.000E+00
       2     1     1     2   502     0 -1.106471766E+02 -5.648593395E+01 -1.620209230E+02  2.041671813E+02  0.000000000E+00  0.00000E+00  9.000E+00
#rwgt            1           1   2.5635304113677777E-002           9       43380           0
</event>
<event>
      5   9999  3.19816E-02  2.07689E+01 -1.00000E+00  1.65029E-01
      21    -1     0     0   502   501  0.000000000E+00  0.000000000E+00  1.975393380E+02  1.975393380E+02  0.000000000E+00  0.00000E+00  9.000E+00
      21    -1     0     0   511   502  0.000000000E+00  0.000000000E+00 -5.776732747E+02  5.776732747E+02  0.000000000E+00  0.00000E+00  9.000E+00
      25     1     1     2     0     0 -1.529727518E+01  1.293495369E+02  1.287694714E+02  2.217473474E+02  1.250000000E+02  0.00000E+00  9.000E+00
      25     1     1     2     0     0  1.659761130E+01 -1.500776662E+02 -4.726313300E+02  5.116680180E+02  1.250000000E+02  0.00000E+00  9.000E+00
      21     1     1     2   511   501 -1.300336119E+00  2.072812936E+01 -3.627207821E+01  4.179724726E+01  4.768371582E-07  0.00000E+00  9.000E+00
#rwgt            1           1   2.8608026048945533E-002           9       43461           0
</event>
<event>
      5   9999  3.19816E-02  1.89977E+01 -1.00000E+00  1.68233E-01
      21    -1     0     0   512   501  0.000000000E+00  0.000000000E+00  3.376031930E+02  3.376031930E+02  0.000000000E+00  0.00000E+00  9.000E+00
      21    -1     0     0   501   502  0.000000000E+00  0.000000000E+00 -8.538921809E+02  8.538921809E+02  0.000000000E+00  0.00000E+00  9.000E+00
      25     1     1     2     0     0  7.375014346E+01  8.596874512E+01  1.546491048E+02  2.288472294E+02  1.250000000E+02  0.00000E+00  9.000E+00
      25     1     1     2     0     0 -8.020897832E+01 -1.038348219E+02 -8.060689407E+02  8.261884093E+02  1.250000000E+02  0.00000E+00  9.000E+00
      21     1     1     2   512   502  6.458834854E+00  1.786607676E+01  1.351308480E+02  1.364597352E+02  0.000000000E+00  0.00000E+00  9.000E+00
#rwgt            1           1   2.7875186718255503E-002           9       43639           0
</event>
<event>
      5   9999  3.19816E-02  6.17072E+02 -1.00000E+00  9.63239E-02
      21    -1     0     0   502   501  0.000000000E+00  0.000000000E+00  5.308582784E+02  5.308582784E+02  0.000000000E+00  0.00000E+00  9.000E+00
       1    -1     0     0   501     0  0.000000000E+00  0.000000000E+00 -1.367250909E+03  1.367250909E+03  0.000000000E+00  0.00000E+00  9.000E+00
      25     1     1     2     0     0  1.838917528E+02 -6.520072274E+02 -2.557841736E+02  7.348334129E+02  1.250000000E+02  0.00000E+00  9.000E+00
      25     1     1     2     0     0  8.251070457E+01  9.540367972E+01  1.315261410E+02  2.209841719E+02  1.250000000E+02  0.00000E+00  9.000E+00
       1     1     1     2   502     0 -2.664024573E+02  5.566035477E+02 -7.121345979E+02  9.422916024E+02  1.705984480E-05  0.00000E+00  9.000E+00
#rwgt            1           1   2.9170662449148153E-002           9       43878           0
</event>
<event>
      5   9999  3.19816E-02  2.54015E+02 -1.00000E+00  1.07994E-01
      21    -1     0     0   502   501  0.000000000E+00  0.000000000E+00  1.138617229E+03  1.138617229E+03  0.000000000E+00  0.00000E+00  9.000E+00
      21    -1     0     0   511   502  0.000000000E+00  0.000000000E+00 -1.408338003E+03  1.408338003E+03  0.000000000E+00  0.00000E+00  9.000E+00
      25     1     1     2     0     0  3.207947215E+02 -5.642916608E+02  6.917906435E+02  9.568352137E+02  1.250000000E+02  0.00000E+00  9.000E+00
      25     1     1     2     0     0 -3.000427998E+02  8.174573971E+02 -3.852684355E+02  9.603744297E+02  1.250000000E+02  0.00000E+00  9.000E+00
      21     1     1     2   511   501 -2.075192164E+01 -2.531657363E+02 -5.762429816E+02  6.297455884E+02  0.000000000E+00  0.00000E+00  9.000E+00
#rwgt            2          11   3.1055168177096621E-003           9       43952           0
</event>
<event>
      5   9999  3.19816E-02  8.15745E+01 -1.00000E+00  1.27941E-01
      21    -1     0     0   502   512  0.000000000E+00  0.000000000E+00  6.497456904E+02  6.497456904E+02  0.000000000E+00  0.00000E+00  9.000E+00
      21    -1     0     0   501   502  0.000000000E+00  0.000000000E+00 -2.611773617E+02  2.611773617E+02  0.000000000E+00  0.00000E+00  9.000E+00
      25     1     1     2     0     0  6.081205463E+01 -2.737094001E+02  7.630137749E+01  3.163255315E+02  1.250000000E+02  0.00000E+00  9.000E+00
      25     1     1     2     0     0  1.039255491E+01  3.135126758E+02  7.804260308E+01  3.465744523E+02  1.250000000E+02  0.00000E+00  9.000E+00
      21     1     1     2   501   512 -7.120460954E+01 -3.980327574E+01  2.342243481E+02  2.480230683E+02  0.000000000E+00  0.00000E+00  9.000E+00
#rwgt            1           1   2.8456182501328042E-002           9       43972           0
</event>
<event>
      5   9999  3.19816E-02  4.51314E+01 -1.00000E+00  1.41662E-01
      21    -1     0     0   502   511  0.000000000E+00  0.000000000E+00  6.031054712E+02  6.031054712E+02  0.000000000E+00  0.00000E+00  9.000E+00
      21    -1     0     0   501   502  0.000000000E+00  0.000000000E+00 -9.705982301E+01  9.705982301E+01  0.000000000E+00  0.00000E+00  9.000E+00
      25     1     1     2     0     0 -1.581088561E+02  9.585125090E+00  7.087151884E+01  2.138645767E+02  1.250000000E+02  0.00000E+00  9.000E+00
      25     1     1     2     0     0  1.155625874E+02  5.470067898E+00  3.662281727E+02  4.038969024E+02  1.250000000E+02  0.00000E+00  9.000E+00
      21     1     1     2   501   511  4.254626868E+01 -1.505519299E+01  6.894595659E+01  8.240381511E+01  9.536743164E-07  0.00000E+00  9.000E+00
#rwgt            1           1   2.7242892799502465E-002           9       44090           0
</event>
<event>
      5   9999  3.19816E-02  4.12754E+01 -1.00000E+00  1.44000E-01
      21    -1     0     0   502   501  0.000000000E+00  0.000000000E+00  4.920017602E+02  4.920017602E+02  0.000000000E+00  0.00000E+00  9.000E+00
       2    -1     0     0   501     0  0.000000000E+00  0.000000000E+00 -2.980254591E+02  2.980254591E+02  0.000000000E+00  0.00000E+00  9.000E+00
      25     1     1     2     0     0  6.081114272E+01 -2.434450780E+02 -3.571626336E+01  2.826024638E+02  1.250000000E+02  0.00000E+00  9.000E+00
      25     1     1     2     0     0 -2.451238798E+01  2.630935564E+02  3.044315141E+02  4.220457598E+02  1.250000000E+02  0.00000E+00  9.000E+00
       2     1     1     2   502     0 -3.629875474E+01 -1.964847835E+01 -7.473894970E+01  8.537899566E+01  1.348699152E-06  0.00000E+00  9.000E+00
#rwgt            1           1   3.2006610457090912E-002           9       44166           0
</event>
<event>
      5   9999  3.19816E-02  2.08528E+02 -1.00000E+00  1.10992E-01
      21    -1     0     0   511   501  0.000000000E+00  0.000000000E+00  9.183817323E+02  9.183817323E+02  0.000000000E+00  0.00000E+00  9.000E+00
      21    -1     0     0   501   502  0.000000000E+00  0.000000000E+00 -2.891898957E+02  2.891898957E+02  0.000000000E+00  0.00000E+00  9.000E+00
      25     1     1     2     0     0 -1.144957011E+02  2.755736873E+02  1.752242493E+02  3.679383919E+02  1.250000000E+02  0.00000E+00  9.000E+00
      25     1     1     2     0     0  6.028169609E+01 -4.769306276E+02  2.981837370E+02  5.793403554E+02  1.250000000E+02  0.00000E+00  9.000E+00
      21     1     1     2   511   502  5.421400501E+01  2.013569403E+02  1.557838503E+02  2.602928807E+02  3.303624740E-06  0.00000E+00  9.000E+00
#rwgt            1           1   2.5270091406172382E-002           9       44257           0
</event>
<event>
      5   9999  3.19816E-02  2.52790E+01 -1.00000E+00  1.58391E-01
      21    -1     0     0   502   512  0.000000000E+00  0.000000000E+00  1.031545702E+03  1.031545702E+03  0.000000000E+00  0.00000E+00  9.000E+00
      21    -1     0     0   501   502  0.000000000E+00  0.000000000E+00 -8.788670248E+02  8.788670248E+02  0.000000000E+00  0.00000E+00  9.000E+00
      25     1     1     2     0     0 -7.852423113E+02 -1.990734150E+00 -4.094064334E+02  8.943422601E+02  1.250000000E+02  0.00000E+00  9.000E+00
      25     1     1     2     0     0  8.102516136E+02 -1.692034672E+00  5.346652459E+02  9.787760037E+02  1.250000000E+02  0.00000E+00  9.000E+00
      21     1     1     2   501   512 -2.500930228E+01  3.682768822E+00  2.741986489E+01  3.729446309E+01  3.371747881E-07  0.00000E+00  9.000E+00
#rwgt            1           1   2.8039379612257984E-002           9       44305           0
</event>
<event>
      5   9999  3.19816E-02  2.17342E+02 -1.00000E+00  1.10349E-01
      21    -1     0     0   502   501  0.000000000E+00  0.000000000E+00  4.310916299E+02  4.310916299E+02  0.000000000E+00  0.00000E+00  9.000E+00
      21    -1     0     0   511   502  0.000000000E+00  0.000000000E+00 -8.845038705E+02  8.845038705E+02  0.000000000E+00  0.00000E+00  9.000E+00
      25     1     1     2     0     0 -5.446941598E+02 -4.810438245E+01 -3.565755513E+02  6.646629846E+02  1.250000000E+02  0.00000E+00  9.000E+00
      25     1     1     2     0     0  3.790191527E+02 -9.257020958E+01  7.678468308E+00  4.097666661E+02  1.250000000E+02  0.00000E+00  9.000E+00
      21     1     1     2   511   501  1.656750072E+02  1.406745920E+02 -1.045151577E+02  2.411658496E+02  1.348699152E-06  0.00000E+00  9.000E+00
#rwgt            1           1   3.0256957015038201E-002           9       44506           0
</event>
<event>
      5   9999  3.19816E-02  7.95424E+01 -1.00000E+00  1.28470E-01
      21    -1     0     0   502   501  0.000000000E+00  0.000000000E+00  1.643890517E+03  1.643890517E+03  0.000000000E+00  0.00000E+00  9.000E+00
      21    -1     0     0   512   502  0.000000000E+00  0.000000000E+00 -4.989362196E+01  4.989362196E+01  0.000000000E+00  0.00000E+00  9.000E+00
      25     1     1     2     0     0 -7.123057413E+01 -9.031900386E+01  1.034259823E+03  1.048117216E+03  1.250000000E+02  0.00000E+00  9.000E+00
      25     1     1     2     0     0  1.507416569E+02  8.808847371E+01  5.059943764E+02  5.496707517E+02  1.250000000E+02  0.00000E+00  9.000E+00
      21     1     1     2   512   501 -7.951108275E+01  2.230530154E+00  5.374269556E+01  9.599617113E+01  1.507891493E-06  0.00000E+00  9.000E+00
#rwgt            1           1   3.1872078093440517E-002           9       44557           0
</event>
<event>
      5   9999  3.19816E-02  1.62985E+02 -1.00000E+00  1.14982E-01
      21    -1     0     0   511   501  0.000000000E+00  0.000000000E+00  7.896863802E+02  7.896863802E+02  0.000000000E+00  0.00000E+00  9.000E+00
      21    -1     0     0   501   502  0.000000000E+00  0.000000000E+00 -4.681324626E+02  4.681324626E+02  0.000000000E+00  0.00000E+00  9.000E+00
      25     1     1     2     0     0  1.754673789E+02 -4.720358582E+02  9.879417506E+01  5.281968776E+02  1.250000000E+02  0.00000E+00  9.000E+00
      25     1     1     2     0     0 -1.256871424E+01  4.773303566E+02  5.651637276E+01  4.968111737E+02  1.250000000E+02  0.00000E+00  9.000E+00
      21     1     1     2   511   502 -1.628986646E+02 -5.294498360E+00  1.662433697E+02  2.328107915E+02  3.814697266E-06  0.00000E+00  9.000E+00
#rwgt            1           1   3.1352653740313381E-002           9       44641           0
</event>
<event>
      5   9999  3.19816E-02  5.22776E+01 -1.00000E+00  1.37981E-01
      21    -1     0     0   502   501  0.000000000E+00  0.000000000E+00  1.451462383E+03  1.451462383E+03  0.000000000E+00  0.00000E+00  9.000E+00
      21    -1     0     0   512   502  0.000000000E+00  0.000000000E+00 -1.803833838E+02  1.803833838E+02  0.000000000E+00  0.00000E+00  9.000E+00
      25     1     1     2     0     0 -9.024589779E+01 -4.144160223E+02  3.536635584E+02  5.662047988E+02  1.250000000E+02  0.00000E+00  9.000E+00
      25     1     1     2     0     0  1.322122783E+02  3.832428341E+02  9.202035843E+02  1.013289096E+03  1.250000000E+02  0.00000E+00  9.000E+00
      21     1     1     2   512   501 -4.196638049E+01  3.117318819E+01 -2.788143053E+00  5.235187193E+01  5.196212463E-07  0.00000E+00  9.000E+00
#rwgt            1           1   2.5952947381168778E-002           9       44712           0
</event>
<event>
      5   9999  3.19816E-02  2.50214E+02 -1.00000E+00  1.08218E-01
       1    -1     0     0   502     0  0.000000000E+00  0.000000000E+00  2.326514089E+03  2.326514089E+03  0.000000000E+00  0.00000E+00  9.000E+00
      21    -1     0     0   501   502  0.000000000E+00  0.000000000E+00 -2.148120127E+02  2.148120127E+02  0.000000000E+00  0.00000E+00  9.000E+00
      25     1     1     2     0     0  4.410904614E+02  2.609321681E+01  1.158787921E+02  4.735974510E+02  1.250000000E+02  0.00000E+00  9.000E+00
      25     1     1     2     0     0 -2.054526806E+02  5.805944031E+01  5.893400196E+02  6.391622339E+02  1.250000000E+02  0.00000E+00  9.000E+00
       1     1     1     2   501     0 -2.356377808E+02 -8.415265712E+01  1.406483265E+03  1.428566417E+03  1.525878906E-05  0.00000E+00  9.000E+00
#rwgt            1           1   3.0171841094759885E-002           9       44838           0
</event>
<event>
      5   9999  3.19816E-02  1.74708E+02 -1.00000E+00  1.13828E-01
      21    -1     0     0   502   501  0.000000000E+00  0.000000000E+00  1.824143521E+03  1.824143521E+03  0.000000000E+00  0.00000E+00  9.000E+00
      21    -1     0     0   501   511  0.000000000E+00  0.000000000E+00 -2.840297082E+02  2.840297082E+02  0.000000000E+00  0.00000E+00  9.000E+00
      25     1     1     2     0     0  4.806630026E+02 -2.371321488E+02  1.284461089E+03  1.397402543E+03  1.250000000E+02  0.00000E+00  9.000E+00
      25     1     1     2     0     0 -3.284265351E+02  1.514171639E+02  3.444050204E+02  5.148115816E+02  1.250000000E+02  0.00000E+00  9.000E+00
      21     1     1     2   502   511 -1.522364675E+02  8.571498488E+01 -8.875229636E+01  1.959591049E+02  3.015782986E-06  0.00000E+00  9.000E+00
#rwgt            1           1   2.7254461982821606E-002           9       44905           0
</event>
<event>
      5   9999  3.19816E-02  1.66795E+01 -1.00000E+00  1.73149E-01
      21    -1     0     0   502   501  0.000000000E+00  0.000000000E+00  3.139001172E+02  3.139001172E+02  0.000000000E+00  0.00000E+00  9.000E+00
      21    -1     0     0   512   502  0.000000000E+00  0.000000000E+00 -2.451322865E+03  2.451322865E+03  0.000000000E+00  0.00000E+00  9.000E+00
      25     1     1     2     0     0  6.133811233E+02  3.987527029E+02 -3.675522552E+02  8.282268897E+02  1.250000000E+02  0.00000E+00  9.000E+00
      25     1     1     2     0     0 -6.296772016E+02 -3.951967903E+02 -1.627071682E+03  1.793226461E+03  1.250000000E+02  0.00000E+00  9.000E+00
      21     1     1     2   512   501  1.629607831E+01 -3.555912614E+00 -1.427988112E+02  1.437696322E+02  0.000000000E+00  0.00000E+00  9.000E+00
#rwgt            1           1   2.9921237073588968E-002           9       45002           0
</event>
<event>
      5   9999  3.19816E-02  1.23958E+02 -1.00000E+00  1.19773E-01
      21    -1     0     0   502   501  0.000000000E+00  0.000000000E+00  8.066848424E+02  8.066848424E+02  0.000000000E+00  0.00000E+00  9.000E+00
      21    -1     0     0   511   502  0.000000000E+00  0.000000000E+00 -6.852535001E+02  6.852535001E+02  0.000000000E+00  0.00000E+00  9.000E+00
      25     1     1     2     0     0  1.485584591E+02  3.523134764E+02 -1.775685350E+02  4.397158014E+02  1.250000000E+02  0.00000E+00  9.000E+00
      25     1     1     2     0     0 -6.809080282E+01 -2.580232921E+02  6.317692532E+02  6.971153176E+02  1.250000000E+02  0.00000E+00  9.000E+00
      21     1     1     2   511   501 -8.046765629E+01 -9.429018427E+01 -3.327693760E+02  3.551072235E+02  3.814697266E-06  0.00000E+00  9.000E+00
#rwgt            1           1   2.7534645461453740E-002           9       45222           0
</event>
<event>
      5   9999  3.19816E-02  4.49818E+02 -1.00000E+00  1.00175E-01
      21    -1     0     0   502   512  0.000000000E+00  0.000000000E+00  2.031258946E+03  2.031258946E+03  0.000000000E+00  0.00000E+00  9.000E+00
      21    -1     0     0   501   502  0.000000000E+00  0.000000000E+00 -3.443757704E+02  3.443757704E+02  0.000000000E+00  0.00000E+00  9.000E+00
      25     1     1     2     0     0  8.900105224E+01  5.658704667E+00  5.543150171E+01  1.632509100E+02  1.250000000E+02  0.00000E+00  9.000E+00
      25     1     1     2     0     0 -1.484268068E+02 -4.515343937E+02 -2.876727904E+01  4.923072029E+02  1.250000000E+02  0.00000E+00  9.000E+00
      21     1     1     2   501   512  5.942575459E+01  4.458756890E+02  1.660218952E+03  1.720076603E+03  0.000000000E+00  0.00000E+00  9.000E+00
#rwgt            2          11   2.1200930377780983E-003           9       45381           0
</event>
<event>
      5   9999  3.19816E-02  2.16243E+02 -1.00000E+00  1.10427E-01
       1    -1     0     0   502     0  0.000000000E+00  0.000000000E+00  1.824042340E+03  1.824042340E+03  0.000000000E+00  0.00000E+00  9.000E+00
      21    -1     0     0   501   502  0.000000000E+00  0.000000000E+00 -1.293051946E+02  1.293051946E+02  0.000000000E+00  0.00000E+00  9.000E+00
      25     1     1     2     0     0 -5.212751488E+01 -2.773640136E+02  3.027243442E+02  4.323367928E+02  1.250000000E+02  0.00000E+00  9.000E+00
      25     1     1     2     0     0  2.621668815E+02  2.259387129E+02  6.370420453E+02  7.356815501E+02  1.250000000E+02  0.00000E+00  9.000E+00
       1     1     1     2   501     0 -2.100393666E+02  5.142530065E+01  7.549707560E+02  7.853291918E+02  0.000000000E+00  0.00000E+00  9.000E+00
#rwgt            1           1   2.6372294571340233E-002           9       45416           0
</event>
<event>
      5   9999  3.19816E-02  6.99702E+00 -1.00000E+00  2.15580E-01
      21    -1     0     0   502   501  0.000000000E+00  0.000000000E+00  2.179762976E+03  2.179762976E+03  0.000000000E+00  0.00000E+00  9.000E+00
       2    -1     0     0   501     0  0.000000000E+00  0.000000000E+00 -6.973098392E+02  6.973098392E+02  0.000000000E+00  0.00000E+00  9.000E+00
      25     1     1     2     0     0 -7.201531913E+02  1.406653525E+02  4.490681609E+02  8.693069501E+02  1.250000000E+02  0.00000E+00  9.000E+00
      25     1     1     2     0     0  7.262120493E+02 -1.371655673E+02  1.428172352E+03  1.612916489E+03  1.250000000E+02  0.00000E+00  9.000E+00
       2     1     1     2   502     0 -6.058857955E+00 -3.499785269E+00 -3.947873757E+02  3.948493767E+02  7.629394531E-06  0.00000E+00  9.000E+00
#rwgt            1           1   2.9847400645462884E-002           9       45475           0
</event>
<event>
      5   9999  3.19816E-02  4.78151E+01 -1.00000E+00  1.40192E-01
      21    -1     0     0   502   501  0.000000000E+00  0.000000000E+00  1.039423833E+03  1.039423833E+03  0.000000000E+00  0.00000E+00  9.000E+00
      21    -1     0     0   511   502  0.000000000E+00  0.000000000E+00 -1.948232281E+02  1.948232281E+02  0.000000000E+00  0.00000E+00  9.000E+00
      25     1     1     2     0     0 -1.495583679E+02 -3.261071995E+02  6.000628959E+02  7.102211557E+02  1.250000000E+02  0.00000E+00  9.000E+00
      25     1     1     2     0     0  1.956013944E+02  3.390037857E+02  2.404149237E+02  4.760334104E+02  1.250000000E+02  0.00000E+00  9.000E+00
      21     1     1     2   511   501 -4.604302648E+01 -1.289658619E+01  4.122785391E+00  4.799249506E+01  5.623090942E-07  0.00000E+00  9.000E+00
#rwgt            1           1   2.8738857737753098E-002           9       45877           0
</event>
<event>
      5   9999  3.19816E-02  3.26678E+02 -1.00000E+00  1.04404E-01
      21    -1     0     0   502   501  0.000000000E+00  0.000000000E+00  7.697268529E+02  7.697268529E+02  0.000000000E+00  0.00000E+00  9.000E+00
       2    -1     0     0   501     0  0.000000000E+00  0.000000000E+00 -1.308296587E+03  1.308296587E+03  0.000000000E+00  0.00000E+00  9.000E+00
      25     1     1     2     0     0 -2.290013380E+02 -8.178440737E+02 -2.000241405E+02  8.814449492E+02  1.250000000E+02  0.00000E+00  9.000E+00
      25     1     1     2     0     0  1.272920123E+02  5.074023989E+02  1.940412680E+02  5.717844563E+02  1.250000000E+02  0.00000E+00  9.000E+00
       2     1     1     2   502     0  1.017093257E+02  3.104416749E+02 -5.325868615E+02  6.247940344E+02  1.078959322E-05  0.00000E+00  9.000E+00
#rwgt            1           1   3.0512619445196360E-002           9       46024           0
</event>
<event>
      5   9999  3.19816E-02  5.87124E+01 -1.00000E+00  1.35209E-01
      21    -1     0     0   502   511  0.000000000E+00  0.000000000E+00  1.091536388E+03  1.091536388E+03  0.000000000E+00  0.00000E+00  9.000E+00
      21    -1     0     0   501   502  0.000000000E+00  0.000000000E+00 -7.796180640E+02  7.796180640E+02  0.000000000E+00  0.00000E+00  9.000E+00
      25     1     1     2     0     0  1.045661366E+02 -2.159598924E+02 -6.750378657E+02  7.272371499E+02  1.250000000E+02  0.00000E+00  9.000E+00
      25     1     1     2     0     0 -1.468033849E+02  2.567418144E+02  2.560996225E+02  4.107062329E+02  1.250000000E+02  0.00000E+00  9.000E+00
      21     1     1     2   501   511  4.223724828E+01 -4.078192197E+01  7.308565673E+02  7.332110694E+02  1.525878906E-05  0.00000E+00  9.000E+00
#rwgt            1           1   3.0118082828694111E-002           9       46065           0
</event>
<event>
      5   9999  3.19816E-02  5.42075E+01 -1.00000E+00  1.37103E-01
      21    -1     0     0   502   501  0.000000000E+00  0.000000000E+00  1.055396325E+03  1.055396325E+03  0.000000000E+00  0.00000E+00  9.000E+00
      21    -1     0     0   501   512  0.000000000E+00  0.000000000E+00 -1.010975173E+02  1.010975173E+02  0.000000000E+00  0.00000E+00  9.000E+00
      25     1     1     2     0     0 -2.327140498E+02  1.828495602E+01  1.967609711E+02  3.298939956E+02  1.250000000E+02  0.00000E+00  9.000E+00
      25     1     1     2     0     0  1.860943047E+02 -4.594462807E+01  7.315080696E+02  7.664666040E+02  1.250000000E+02  0.00000E+00  9.000E+00
      21     1     1     2   502   512  4.661974507E+01  2.765967205E+01  2.602976668E+01  6.013324240E+01  8.920806376E-07  0.00000E+00  9.000E+00
#rwgt            1           1   2.9293010164139929E-002           9       46172           0
</event>
<event>
      5   9999  3.19816E-02  1.88808E+02 -1.00000E+00  1.12566E-01
      21    -1     0     0   502   511  0.000000000E+00  0.000000000E+00  2.812784020E+02  2.812784020E+02  0.000000000E+00  0.00000E+00  9.000E+00
      21    -1     0     0   501   502  0.000000000E+00  0.000000000E+00 -4.515921194E+02  4.515921194E+02  0.000000000E+00  0.00000E+00  9.000E+00
      25     1     1     2     0     0 -1.370337767E+02  2.733195331E+00 -2.882669766E+02  3.427952393E+02  1.250000000E+02  0.00000E+00  9.000E+00
      25     1     1     2     0     0  6.225289090E+00  1.334198166E+02  5.418868914E+01  1.907905022E+02  1.250000000E+02  0.00000E+00  9.000E+00
      21     1     1     2   501   511  1.308084876E+02 -1.361530119E+02  6.376457009E+01  1.992847799E+02  4.046097457E-06  0.00000E+00  9.000E+00
#rwgt            1           1   2.6817962435555145E-002           9       46284           0
</event>
<event>
      5   9999  3.19816E-02  3.33767E+01 -1.00000E+00  1.49891E-01
      21    -1     0     0   502   512  0.000000000E+00  0.000000000E+00  9.757296196E+02  9.757296196E+02  0.000000000E+00  0.00000E+00  9.000E+00
      21    -1     0     0   501   502  0.000000000E+00  0.000000000E+00 -2.433122736E+02  2.433122736E+02  0.000000000E+00  0.00000E+00  9.000E+00
      25     1     1     2     0     0  1.011420739E+02  3.220701446E+02  1.447414421E+02  3.879870903E+02  1.250000000E+02  0.00000E+00  9.000E+00
      25     1     1     2     0     0 -1.005173164E+02 -2.886993309E+02  1.040367518E+02  3.462653322E+02  1.250000000E+02  0.00000E+00  9.000E+00
      21     1     1     2   501   512 -6.247575189E-01 -3.337081371E+01  4.836391521E+02  4.847894708E+02  7.629394531E-06  0.00000E+00  9.000E+00
#rwgt            1           1   2.9032501349349805E-002           9       46327           0
</event>
<event>
      5   9999  3.19816E-02  7.39308E+01 -1.00000E+00  1.30030E-01
      21    -1     0     0   502   501  0.000000000E+00  0.000000000E+00  4.535785249E+02  4.535785249E+02  0.000000000E+00  0.00000E+00  9.000E+00
      21    -1     0     0   511   502  0.000000000E+00  0.000000000E+00 -3.065793564E+02  3.065793564E+02  0.000000000E+00  0.00000E+00  9.000E+00
      25     1     1     2     0     0  4.406702930E+01 -1.018074416E+02  3.354998984E+02  3.748224113E+02  1.250000000E+02  0.00000E+00  9.000E+00
      25     1     1     2     0     0 -2.751001365E+01  1.738604106E+02 -4.016386760E+01  2.195959460E+02  1.250000000E+02  0.00000E+00  9.000E+00
      21     1     1     2   511   501 -1.655701565E+01 -7.205296900E+01 -1.483368623E+02  1.657395240E+02  1.907348633E-06  0.00000E+00  9.000E+00
#rwgt            1           1   2.7469761025759001E-002           9       46417           0
</event>
<event>
      5   9999  3.19816E-02  2.14661E+01 -1.00000E+00  1.63873E-01
      21    -1     0     0   502   512  0.000000000E+00  0.000000000E+00  1.026293210E+03  1.026293210E+03  0.000000000E+00  0.00000E+00  9.000E+00
      21    -1     0     0   501   502  0.000000000E+00  0.000000000E+00 -3.220566273E+02  3.220566273E+02  0.000000000E+00  0.00000E+00  9.000E+00
      25     1     1     2     0     0  3.665925264E+02 -1.780944079E+02  5.020567617E+02  6.586301622E+02  1.250000000E+02  0.00000E+00  9.000E+00
      25     1     1     2     0     0 -3.647581665E+02  1.994819817E+02 -4.966738267E+01  4.369593001E+02  1.250000000E+02  0.00000E+00  9.000E+00
      21     1     1     2   501   512 -1.834359980E+00 -2.138757381E+01  2.518472039E+02  2.527603752E+02  2.697398305E-06  0.00000E+00  9.000E+00
#rwgt            1           1   2.3995534964942968E-002           9       46521           0
</event>
<event>
      5   9999  3.19816E-02  3.33186E+00 -1.00000E+00  2.83693E-01
      21    -1     0     0   502   501  0.000000000E+00  0.000000000E+00  7.320793412E+02  7.320793412E+02  0.000000000E+00  0.00000E+00  9.000E+00
      21    -1     0     0   511   502  0.000000000E+00  0.000000000E+00 -6.699984397E+01  6.699984397E+01  0.000000000E+00  0.00000E+00  9.000E+00
      25     1     1     2     0     0  1.426696822E+02  6.115537080E+01  4.472940385E+02  4.896851789E+02  1.250000000E+02  0.00000E+00  9.000E+00
      25     1     1     2     0     0 -1.451993225E+02 -5.898690550E+01  2.250582782E+02  3.013943046E+02  1.250000000E+02  0.00000E+00  9.000E+00
      21     1     1     2   511   501  2.529640233E+00 -2.168465297E+00 -7.272819520E+00  7.999701571E+00  2.064765462E-07  0.00000E+00  9.000E+00
#rwgt            1           1   2.8132990166436021E-002           9       46667           0
</event>
<event>
      5   9999  3.19816E-02  4.78755E+01 -1.00000E+00  1.40160E-01
      21    -1     0     0   512   501  0.000000000E+00  0.000000000E+00  4.483882245E+03  4.483882245E+03  0.000000000E+00  0.00000E+00  9.000E+00
      21    -1     0     0   501   502  0.000000000E+00  0.000000000E+00 -7.939392291E+02  7.939392291E+02  0.000000000E+00  0.00000E+00  9.000E+00
      25     1     1     2     0     0  6.455290647E+02  8.096722661E+02  1.502690849E+01  1.043133625E+03  1.250000000E+02  0.00000E+00  9.000E+00
      25     1     1     2     0     0 -6.247821900E+02 -7.665256143E+02  6.083442127E+02  1.167742259E+03  1.250000000E+02  0.00000E+00  9.000E+00
      21     1     1     2   512   502 -2.074687473E+01 -4.314665173E+01  3.066571895E+03  3.066945590E+03  4.315837288E-05  0.00000E+00  9.000E+00
#rwgt            1           1   3.0864835248247686E-002           9       47010           0
</event>
<event>
      5   9999  3.19816E-02  4.78406E+01 -1.00000E+00  1.40178E-01
      21    -1     0     0   502   501  0.000000000E+00  0.000000000E+00  7.675163241E+01  7.675163241E+01  0.000000000E+00  0.00000E+00  9.000E+00
      21    -1     0     0   501   511  0.000000000E+00  0.000000000E+00 -1.529755108E+03  1.529755108E+03  0.000000000E+00  0.00000E+00  9.000E+00
      25     1     1     2     0     0  7.947016435E+01 -2.024138640E+02 -8.894493163E+02  9.241384991E+02  1.250000000E+02  0.00000E+00  9.000E+00
      25     1     1     2     0     0 -1.272949926E+02  2.036403856E+02 -2.610089656E+02  3.760639598E+02  1.250000000E+02  0.00000E+00  9.000E+00
      21     1     1     2   502   511  4.782482829E+01 -1.226521633E+00 -3.025451935E+02  3.063042812E+02  3.814697266E-06  0.00000E+00  9.000E+00
#rwgt            1           1   3.1932330249717068E-002           9       47180           0
</event>
<event>
      5   9999  3.19816E-02  2.21437E+02 -1.00000E+00  1.10062E-01
      21    -1     0     0   512   501  0.000000000E+00  0.000000000E+00  2.724099963E+02  2.724099963E+02  0.000000000E+00  0.00000E+00  9.000E+00
      21    -1     0     0   501   502  0.000000000E+00  0.000000000E+00 -1.210647128E+03  1.210647128E+03  0.000000000E+00  0.00000E+00  9.000E+00
      25     1     1     2     0     0  3.181023461E+02 -9.131083561E+01 -5.028956846E+02  6.148624569E+02  1.250000000E+02  0.00000E+00  9.000E+00
      25     1     1     2     0     0 -4.536840077E+02 -8.376581440E+01 -4.356886525E+02  6.467576768E+02  1.250000000E+02  0.00000E+00  9.000E+00
      21     1     1     2   512   502  1.355816616E+02  1.750766500E+02  3.472052982E-01  2.214369908E+02  2.917071198E-06  0.00000E+00  9.000E+00
#rwgt            1           1   2.6850630576865438E-002           9       47308           0
</event>
<event>
      5   9999  3.19816E-02  2.36691E+01 -1.00000E+00  1.60551E-01
      21    -1     0     0   502   501  0.000000000E+00  0.000000000E+00  6.709071802E+01  6.709071802E+01  0.000000000E+00  0.00000E+00  9.000E+00
      21    -1     0     0   511   502  0.000000000E+00  0.000000000E+00 -1.182424271E+03  1.182424271E+03  0.000000000E+00  0.00000E+00  9.000E+00
      25     1     1     2     0     0  1.627022017E+02 -1.517808539E+02 -6.824373457E+02  7.285980819E+02  1.250000000E+02  0.00000E+00  9.000E+00
      25     1     1     2     0     0 -1.503926968E+02  1.719972899E+02 -3.603712083E+02  4.446273032E+02  1.250000000E+02  0.00000E+00  9.000E+00
      21     1     1     2   511   501 -1.230950494E+01 -2.021643600E+01 -7.252499871E+01  7.628960371E+01  9.536743164E-07  0.00000E+00  9.000E+00
#rwgt            1           1   3.3450730616722026E-002           9       47354           0
</event>
<event>
      5   9999  3.19816E-02  2.89118E+01 -1.00000E+00  1.54163E-01
      21    -1     0     0   502   501  0.000000000E+00  0.000000000E+00  1.218125143E+02  1.218125143E+02  0.000000000E+00  0.00000E+00  9.000E+00
      21    -1     0     0   512   502  0.000000000E+00  0.000000000E+00 -5.230200124E+02  5.230200124E+02  0.000000000E+00  0.00000E+00  9.000E+00
      25     1     1     2     0     0 -1.257437605E+02 -1.082514921E+02 -5.323409204E+01  2.144498715E+02  1.250000000E+02  0.00000E+00  9.000E+00
      25     1     1     2     0     0  1.522339338E+02  9.666873944E+01 -2.744560009E+02  3.513845646E+02  1.250000000E+02  0.00000E+00  9.000E+00
      21     1     1     2   512   501 -2.649017339E+01  1.158275265E+01 -7.351740518E+01  7.899809054E+01  9.536743164E-07  0.00000E+00  9.000E+00
#rwgt            1           1   2.7458800283142955E-002           9       47505           0
</event>
<event>
      5   9999  3.19816E-02  1.15445E+02 -1.00000E+00  1.21086E-01
      21    -1     0     0   502   501  0.000000000E+00  0.000000000E+00  3.127971953E+02  3.127971953E+02  0.000000000E+00  0.00000E+00  9.000E+00
      21    -1     0     0   501   511  0.000000000E+00  0.000000000E+00 -6.556212959E+02  6.556212959E+02  0.000000000E+00  0.00000E+00  9.000E+00
      25     1     1     2     0     0  1.515708152E+02 -3.799167719E+02 -1.059523797E+02  4.406374614E+02  1.250000000E+02  0.00000E+00  9.000E+00
      25     1     1     2     0     0 -4.744815173E+01  3.300558085E+02 -1.832065297E+02  4.004719670E+02  1.250000000E+02  0.00000E+00  9.000E+00
      21     1     1     2   502   511 -1.041226635E+02  4.986096336E+01 -5.366519111E+01  1.273090627E+02  0.000000000E+00  0.00000E+00  9.000E+00
#rwgt            1           1   2.9859198306024404E-002           9       47617           0
</event>
<event>
      5   9999  3.19816E-02  8.64234E+01 -1.00000E+00  1.26747E-01
      21    -1     0     0   502   501  0.000000000E+00  0.000000000E+00  1.312510793E+02  1.312510793E+02  0.000000000E+00  0.00000E+00  9.000E+00
       1    -1     0     0   501     0  0.000000000E+00  0.000000000E+00 -2.398814464E+03  2.398814464E+03  0.000000000E+00  0.00000E+00  9.000E+00
      25     1     1     2     0     0  9.475464366E+00 -1.635877290E+02 -8.257342565E+01  2.220227469E+02  1.250000000E+02  0.00000E+00  9.000E+00
      25     1     1     2     0     0 -8.984986574E+01  1.953517459E+02 -1.946581617E+02  3.158355631E+02  1.250000000E+02  0.00000E+00  9.000E+00
       1     1     1     2   502     0  8.037440138E+01 -3.176401694E+01 -1.990331797E+03  1.992207233E+03  2.157918644E-05  0.00000E+00  9.000E+00
#rwgt            1           1   3.0846486184984413E-002           9       47739           0
</event>
<event>
      5   9999  3.19816E-02  6.24541E+01 -1.00000E+00  1.33780E-01
      21    -1     0     0   502   501  0.000000000E+00  0.000000000E+00  5.044474395E+02  5.044474395E+02  0.000000000E+00  0.00000E+00  9.000E+00
      21    -1     0     0   501   511  0.000000000E+00  0.000000000E+00 -1.656957066E+02  1.656957066E+02  0.000000000E+00  0.00000E+00  9.000E+00
      25     1     1     2     0     0  1.622435009E+02  1.432030842E+02  9.076456725E+01  2.658820858E+02  1.250000000E+02  0.00000E+00  9.000E+00
      25     1     1     2     0     0 -1.054287307E+02 -1.691376324E+02  2.479601069E+02  3.418069200E+02  1.250000000E+02  0.00000E+00  9.000E+00
      21     1     1     2   502   511 -5.681477018E+01  2.593454822E+01  2.705878614E-02  6.245414024E+01  1.824256309E-06  0.00000E+00  9.000E+00
#rwgt            1           1   2.4569043484890106E-002           9       47802           0
</event>
<event>
      5   9999  3.19816E-02  1.39971E+02 -1.00000E+00  1.17597E-01
      21    -1     0     0   502   501  0.000000000E+00  0.000000000E+00  5.574769954E+02  5.574769954E+02  0.000000000E+00  0.00000E+00  9.000E+00
      21    -1     0     0   501   512  0.000000000E+00  0.000000000E+00 -3.552325858E+03  3.552325858E+03  0.000000000E+00  0.00000E+00  9.000E+00
      25     1     1     2     0     0  1.679551843E+02 -1.181954788E+03 -7.649440939E+02  1.423372942E+03  1.250000000E+02  0.00000E+00  9.000E+00
      25     1     1     2     0     0 -2.263064617E+02  1.309183217E+03 -1.846210036E+03  2.278001714E+03  1.250000000E+02  0.00000E+00  9.000E+00
      21     1     1     2   502   512  5.835127747E+01 -1.272284294E+02 -3.836947322E+02  4.084281973E+02  5.394796609E-06  0.00000E+00  9.000E+00
#rwgt            1           1   2.6822028659721015E-002           9       47890           0
</event>
<event>
      5   9999  3.19816E-02  5.90436E+01 -1.00000E+00  1.35077E-01
      21    -1     0     0   511   501  0.000000000E+00  0.000000000E+00  1.005418206E+03  1.005418206E+03  0.000000000E+00  0.00000E+00  9.000E+00
      21    -1     0     0   501   502  0.000000000E+00  0.000000000E+00 -1.436614918E+02  1.436614918E+02  0.000000000E+00  0.00000E+00  9.000E+00
      25     1     1     2     0     0 -2.325541137E+02  2.914959457E+01  1.486979435E+02  3.044128661E+02  1.250000000E+02  0.00000E+00  9.000E+00
      25     1     1     2     0     0  2.857413122E+02 -3.512266328E+00  3.187700618E+02  4.459818223E+02  1.250000000E+02  0.00000E+00  9.000E+00
      21     1     1     2   511   502 -5.318719849E+01 -2.563732824E+01  3.942887085E+02  3.986850089E+02  0.000000000E+00  0.00000E+00  9.000E+00
#rwgt            1           1   2.7143922111605705E-002           9       47967           0
</event>
<event>
      5   9999  3.19816E-02  3.95028E+01 -1.00000E+00  1.45178E-01
       2    -1     0     0   502     0  0.000000000E+00  0.000000000E+00  2.145039152E+03  2.145039152E+03  0.000000000E+00  0.00000E+00  9.000E+00
      21    -1     0     0   501   502  0.000000000E+00  0.000000000E+00 -5.582589197E+02  5.582589197E+02  0.000000000E+00  0.00000E+00  9.000E+00
      25     1     1     2     0     0  3.328156538E+02 -3.058868452E+02 -4.156830652E+02  6.266980391E+02  1.250000000E+02  0.00000E+00  9.000E+00
      25     1     1     2     0     0 -3.138993888E+02  2.712076699E+02  1.247309527E+03  1.320413754E+03  1.250000000E+02  0.00000E+00  9.000E+00
       2     1     1     2   501     0 -1.891626496E+01  3.467917535E+01  7.551537710E+02  7.561862787E+02  0.000000000E+00  0.00000E+00  9.000E+00
#rwgt            1           1   3.0635618015112297E-002           9       48052           0
</event>
<event>
      5   9999  3.19816E-02  3.89463E+02 -1.00000E+00  1.02036E-01
      21    -1     0     0   502   501  0.000000000E+00  0.000000000E+00  8.209680644E+02  8.209680644E+02  0.000000000E+00  0.00000E+00  9.000E+00
      -4    -1     0     0     0   502  0.000000000E+00  0.000000000E+00 -7.888555687E+02  7.888555687E+02  0.000000000E+00  0.00000E+00  9.000E+00
      25     1     1     2     0     0  3.791664785E+02 -1.229469448E+02  8.894596812E+01  4.271060230E+02  1.250000000E+02  0.00000E+00  9.000E+00
      25     1     1     2     0     0 -7.682359247E+02  1.404452761E+02 -6.071486233E+01  7.932355300E+02  1.250000000E+02  0.00000E+00  9.000E+00
      -4     1     1     2     0   501  3.890694462E+02 -1.749833130E+01  3.881389943E+00  3.894820802E+02  9.799935333E-06  0.00000E+00  9.000E+00
#rwgt            2           7   1.5079592747466359E-005           9       48233           0
</event>
<event>
      5   9999  3.19816E-02  7.62108E+01 -1.00000E+00  1.29378E-01
      21    -1     0     0   502   511  0.000000000E+00  0.000000000E+00  1.682391252E+02  1.682391252E+02  0.000000000E+00  0.00000E+00  9.000E+00
      21    -1     0     0   501   502  0.000000000E+00  0.000000000E+00 -5.186338194E+02  5.186338194E+02  0.000000000E+00  0.00000E+00  9.000E+00
      25     1     1     2     0     0  1.419194776E+02  2.830079636E+01 -3.081822222E+02  3.626890615E+02  1.250000000E+02  0.00000E+00  9.000E+00
      25     1     1     2     0     0 -1.808854560E+02 -9.379690119E+01 -4.346207286E+00  2.390842872E+02  1.250000000E+02  0.00000E+00  9.000E+00
      21     1     1     2   501   511  3.896597842E+01  6.549610483E+01 -3.786626464E+01  8.509959589E+01  6.743495762E-07  0.00000E+00  9.000E+00
#rwgt            1           1   2.6505591556267805E-002           9       48252           0
</event>
<event>
      5   9999  3.19816E-02  1.24938E+02 -1.00000E+00  1.19630E-01
       2    -1     0     0   502     0  0.000000000E+00  0.000000000E+00  4.099882416E+03  4.099882416E+03  0.000000000E+00  0.00000E+00  9.000E+00
      21    -1     0     0   501   502  0.000000000E+00  0.000000000E+00 -2.556120842E+01  2.556120842E+01  0.000000000E+00  0.00000E+00  9.000E+00
      25     1     1     2     0     0  2.590380174E+02  8.805662023E+00  1.470111409E+03  1.498008941E+03  1.250000000E+02  0.00000E+00  9.000E+00
      25     1     1     2     0     0 -1.679222511E+02  7.667714499E+01  1.747155620E+03  1.761321955E+03  1.250000000E+02  0.00000E+00  9.000E+00
       2     1     1     2   501     0 -9.111576636E+01 -8.548280701E+01  8.570541789E+02  8.661127286E+02  1.868812365E-05  0.00000E+00  9.000E+00
#rwgt            1           1   2.2087964923384582E-002           9       48294           0
</event>
<event>
      5   9999  3.19816E-02  7.41088E+01 -1.00000E+00  1.29978E-01
      21    -1     0     0   511   501  0.000000000E+00  0.000000000E+00  6.953823524E+02  6.953823524E+02  0.000000000E+00  0.00000E+00  9.000E+00
      21    -1     0     0   501   502  0.000000000E+00  0.000000000E+00 -1.488642288E+02  1.488642288E+02  0.000000000E+00  0.00000E+00  9.000E+00
      25     1     1     2     0     0 -7.427147229E+01 -1.395361325E+02 -1.573221763E+00  2.015293003E+02  1.250000000E+02  0.00000E+00  9.000E+00
      25     1     1     2     0     0  1.937284943E+01  1.893182094E+02  2.616592566E+02  3.468533671E+02  1.250000000E+02  0.00000E+00  9.000E+00
      21     1     1     2   511   502  5.489862286E+01 -4.978207694E+01  2.864320888E+02  2.958639138E+02  3.814697266E-06  0.00000E+00  9.000E+00
#rwgt            1           1   2.7479317323205486E-002           9       48335           0
</event>
<event>
      5   9999  3.19816E-02  5.78841E+02 -1.00000E+00  9.70785E-02
      21    -1     0     0   502   501  0.000000000E+00  0.000000000E+00  1.237425976E+03  1.237425976E+03  0.000000000E+00  0.00000E+00  9.000E+00
      21    -1     0     0   501   512  0.000000000E+00  0.000000000E+00 -4.691702929E+02  4.691702929E+02  0.000000000E+00  0.00000E+00  9.000E+00
      25     1     1     2     0     0  2.508483466E+02  5.996939144E+02  4.981019583E+02  8.284251595E+02  1.250000000E+02  0.00000E+00  9.000E+00
      25     1     1     2     0     0  9.457102299E+01 -1.352134252E+02  2.121844966E+02  2.964348315E+02  1.250000000E+02  0.00000E+00  9.000E+00
      21     1     1     2   502   512 -3.454193696E+02 -4.644804892E+02  5.796922828E+01  5.817362780E+02  1.360449087E-05  0.00000E+00  9.000E+00
#rwgt            1           1   2.8766670110283190E-002           9       48422           0
</event>
<event>
      5   9999  3.19816E-02  1.16034E+02 -1.00000E+00  1.20991E-01
      21    -1     0     0   511   501  0.000000000E+00  0.000000000E+00  3.394852686E+01  3.394852686E+01  0.000000000E+00  0.00000E+00  9.000E+00
      21    -1     0     0   501   502  0.000000000E+00  0.000000000E+00 -2.413635431E+03  2.413635431E+03  0.000000000E+00  0.00000E+00  9.000E+00
      25     1     1     2     0     0  1.489483429E+02  9.203946935E+01 -6.457321973E+02  6.806261407E+02  1.250000000E+02  0.00000E+00  9.000E+00
      25     1     1     2     0     0 -5.869476498E+01 -1.649655988E+02 -1.303679351E+03  1.321311309E+03  1.250000000E+02  0.00000E+00  9.000E+00
      21     1     1     2   511   502 -9.025357788E+01  7.292612946E+01 -4.302753555E+02  4.456465081E+02  5.394796609E-06  0.00000E+00  9.000E+00
#rwgt            2          11   7.6203005044378595E-003           9       48902           0
</event>
<event>
      5   9999  3.19816E-02  5.58461E+01 -1.00000E+00  1.36390E-01
      21    -1     0     0   502   501  0.000000000E+00  0.000000000E+00  1.499219725E+03  1.499219725E+03  0.000000000E+00  0.00000E+00  9.000E+00
      21    -1     0     0   512   502  0.000000000E+00  0.000000000E+00 -2.662194404E+02  2.662194404E+02  0.000000000E+00  0.00000E+00  9.000E+00
      25     1     1     2     0     0 -3.751754542E+02 -9.875899926E+01  1.724831680E+01  4.079613533E+02  1.250000000E+02  0.00000E+00  9.000E+00
      25     1     1     2     0     0  3.913280464E+02  4.529982069E+01  1.231869328E+03  1.299352437E+03  1.250000000E+02  0.00000E+00  9.000E+00
      21     1     1     2   512   501 -1.615259224E+01  5.345917857E+01 -1.611735989E+01  5.812537569E+01  4.129530925E-07  0.00000E+00  9.000E+00
#rwgt            1           1   2.9050546895025255E-002           9       48937           0
</event>
<event>
      5   9999  3.19816E-02  1.48432E+02 -1.00000E+00  1.16575E-01
      21    -1     0     0   502   501  0.000000000E+00  0.000000000E+00  7.096690894E+02  7.096690894E+02  0.000000000E+00  0.00000E+00  9.000E+00
      21    -1     0     0   501   511  0.000000000E+00  0.000000000E+00 -3.941246246E+02  3.941246246E+02  0.000000000E+00  0.00000E+00  9.000E+00
      25     1     1     2     0     0  2.695554800E+02 -2.426407327E+02 -3.420719735E+01  3.851360984E+02  1.250000000E+02  0.00000E+00  9.000E+00
      25     1     1     2     0     0 -1.403850875E+02  1.695176897E+02  4.658765052E+02  5.301982064E+02  1.250000000E+02  0.00000E+00  9.000E+00
      21     1     1     2   502   511 -1.291703925E+02  7.312304299E+01 -1.161248431E+02  1.884594092E+02  1.348699152E-06  0.00000E+00  9.000E+00
#rwgt            1           1   2.8146588087891260E-002           9       49007           0
</event>
<event>
      5   9999  3.19816E-02  6.27247E+00 -1.00000E+00  2.22517E-01
      21    -1     0     0   502   512  0.000000000E+00  0.000000000E+00  3.213868353E+02  3.213868353E+02  0.000000000E+00  0.00000E+00  9.000E+00
      21    -1     0     0   501   502  0.000000000E+00  0.000000000E+00 -3.299503308E+02  3.299503308E+02  0.000000000E+00  0.00000E+00  9.000E+00
      25     1     1     2     0     0 -1.593803380E+01 -2.417729029E+02  2.663064381E+01  2.739385856E+02  1.250000000E+02  0.00000E+00  9.000E+00
      25     1     1     2     0     0  1.339675755E+01  2.360382839E+02 -1.194611351E+02  2.928984591E+02  1.250000000E+02  0.00000E+00  9.000E+00
      21     1     1     2   501   512  2.541276244E+00  5.734619069E+00  8.426699579E+01  8.450012142E+01  9.536743164E-07  0.00000E+00  9.000E+00
#rwgt            1           1   2.8298728112229221E-002           9       49095           0
</event>
<event>
      5   9999  3.19816E-02  7.47271E+01 -1.00000E+00  1.29799E-01
      21    -1     0     0   502   501  0.000000000E+00  0.000000000E+00  1.948712158E+02  1.948712158E+02  0.000000000E+00  0.00000E+00  9.000E+00
       2    -1     0     0   501     0  0.000000000E+00  0.000000000E+00 -1.988884509E+02  1.988884509E+02  0.000000000E+00  0.00000E+00  9.000E+00
      25     1     1     2     0     0  3.610612104E+01 -7.408157949E+01  5.548885589E+01  1.596738724E+02  1.250000000E+02  0.00000E+00  9.000E+00
      25     1     1     2     0     0  3.786514534E+01  6.347976039E+01 -6.511379487E+01  1.591485328E+02  1.250000000E+02  0.00000E+00  9.000E+00
       2     1     1     2   502     0 -7.397126639E+01  1.060181909E+01  5.607703875E+00  7.493726150E+01  1.069567111E-06  0.00000E+00  9.000E+00
#rwgt            1           1   5.5426628555951402E-002           9       49364           0
</event>
<event>
      5   9999  3.19816E-02  8.35296E+01 -1.00000E+00  1.27448E-01
      21    -1     0     0   511   501  0.000000000E+00  0.000000000E+00  2.185641130E+02  2.185641130E+02  0.000000000E+00  0.00000E+00  9.000E+00
      21    -1     0     0   501   502  0.000000000E+00  0.000000000E+00 -4.393356456E+02  4.393356456E+02  0.000000000E+00  0.00000E+00  9.000E+00
      25     1     1     2     0     0  6.503403935E+01  1.232848124E+02 -5.446277981E+01  1.949865781E+02  1.250000000E+02  0.00000E+00  9.000E+00
      25     1     1     2     0     0 -1.018926053E+02 -4.832719693E+01 -2.770570376E+02  3.241962724E+02  1.250000000E+02  0.00000E+00  9.000E+00
      21     1     1     2   511   502  3.685856599E+01 -7.495761551E+01  1.107482848E+02  1.387169081E+02  0.000000000E+00  0.00000E+00  9.000E+00
#rwgt            1           1   2.7850947370165424E-002           9       49428           0
</event>
<event>
      5   9999  3.19816E-02  8.84697E+00 -1.00000E+00  2.02116E-01
      21    -1     0     0   502   512  0.000000000E+00  0.000000000E+00  9.206403138E+01  9.206403138E+01  0.000000000E+00  0.00000E+00  9.000E+00
      21    -1     0     0   501   502  0.000000000E+00  0.000000000E+00 -5.555639272E+02  5.555639272E+02  0.000000000E+00  0.00000E+00  9.000E+00
      25     1     1     2     0     0 -1.134847427E+02  9.042555013E+01 -1.820375910E+02  2.642314354E+02  1.250000000E+02  0.00000E+00  9.000E+00
      25     1     1     2     0     0  1.146207391E+02 -9.919928464E+01 -3.024245172E+02  3.606438694E+02  1.250000000E+02  0.00000E+00  9.000E+00
      21     1     1     2   501   512 -1.135996368E+00  8.773734511E+00  2.096221238E+01  2.275265375E+01  5.840038640E-07  0.00000E+00  9.000E+00
#rwgt            1           1   2.5254469970066761E-002           9       49529           0
</event>
<event>
      5   9999  3.19816E-02  8.70828E+01 -1.00000E+00  1.26591E-01
      21    -1     0     0   511   501  0.000000000E+00  0.000000000E+00  1.130138179E+03  1.130138179E+03  0.000000000E+00  0.00000E+00  9.000E+00
      21    -1     0     0   501   502  0.000000000E+00  0.000000000E+00 -7.300266997E+02  7.300266997E+02  0.000000000E+00  0.00000E+00  9.000E+00
      25     1     1     2     0     0 -5.661786513E+02  3.807699954E+02  4.587131075E+02  8.316169609E+02  1.250000000E+02  0.00000E+00  9.000E+00
      25     1     1     2     0     0  6.341491120E+02 -4.352073441E+02 -2.499449568E+02  8.183202369E+02  1.250000000E+02  0.00000E+00  9.000E+00
      21     1     1     2   511   502 -6.797046070E+01  5.443734875E+01  1.913433282E+02  2.102276806E+02  3.814697266E-06  0.00000E+00  9.000E+00
#rwgt            1           1   2.0905151448290044E-002           9       49822           0
</event>
<event>
      5   9999  3.19816E-02  1.39009E+02 -1.00000E+00  1.17719E-01
      21    -1     0     0   502   512  0.000000000E+00  0.000000000E+00  1.577374568E+03  1.577374568E+03  0.000000000E+00  0.00000E+00  9.000E+00
      21    -1     0     0   501   502  0.000000000E+00  0.000000000E+00 -8.003125515E+02  8.003125515E+02  0.000000000E+00  0.00000E+00  9.000E+00
      25     1     1     2     0     0 -1.817628211E+02 -6.065761725E+02 -5.587941106E+02  8.537260885E+02  1.250000000E+02  0.00000E+00  9.000E+00
      25     1     1     2     0     0  4.544968677E+01  5.793319521E+02  1.088428885E+03  1.240158709E+03  1.250000000E+02  0.00000E+00  9.000E+00
      21     1     1     2   501   512  1.363131344E+02  2.724422038E+01  2.474272423E+02  2.838023227E+02  0.000000000E+00  0.00000E+00  9.000E+00
#rwgt            1           1   4.0791540046938489E-002           9       49937           0
</event>
<event>
      5   9999  3.19816E-02  6.34154E+01 -1.00000E+00  1.33431E-01
      21    -1     0     0   511   501  0.000000000E+00  0.000000000E+00  1.218263698E+03  1.218263698E+03  0.000000000E+00  0.00000E+00  9.000E+00
      21    -1     0     0   501   502  0.000000000E+00  0.000000000E+00 -1.032234548E+02  1.032234548E+02  0.000000000E+00  0.00000E+00  9.000E+00
      25     1     1     2     0     0  1.605604965E+02  1.162200623E+02  1.373087369E+02  2.715979844E+02  1.250000000E+02  0.00000E+00  9.000E+00
      25     1     1     2     0     0 -1.502303333E+02 -5.365166527E+01  2.614220689E+02  3.307781014E+02  1.250000000E+02  0.00000E+00  9.000E+00
      21     1     1     2   511   502 -1.033016317E+01 -6.256839703E+01  7.163094371E+02  7.191110667E+02  1.078959322E-05  0.00000E+00  9.000E+00
#rwgt            1           1   2.5489689123060658E-002           9       50038           0
</event>
<event>
      5   9999  3.19816E-02  9.09552E+01 -1.00000E+00  1.25708E-01
      21    -1     0     0   512   501  0.000000000E+00  0.000000000E+00  1.937534424E+03  1.937534424E+03  0.000000000E+00  0.00000E+00  9.000E+00
      21    -1     0     0   501   502  0.000000000E+00  0.000000000E+00 -1.067004936E+02  1.067004936E+02  0.000000000E+00  0.00000E+00  9.000E+00
      25     1     1     2     0     0 -9.741060951E+01 -1.561736807E+02  1.487753047E+02  2.676530155E+02  1.250000000E+02  0.00000E+00  9.000E+00
      25     1     1     2     0     0  1.880533369E+02  1.637070565E+02  3.800994811E+02  4.714495449E+02  1.250000000E+02  0.00000E+00  9.000E+00
      21     1     1     2   512   502 -9.064272736E+01 -7.533375816E+00  1.301959145E+03  1.305132358E+03  0.000000000E+00  0.00000E+00  9.000E+00
#rwgt            1           1   2.8963775463954223E-002           9       50111           0
</event>
<event>
      5   9999  3.19816E-02  1.66014E+02 -1.00000E+00  1.14674E-01
      21    -1     0     0   511   501  0.000000000E+00  0.000000000E+00  7.393458440E+02  7.393458440E+02  0.000000000E+00  0.00000E+00  9.000E+00
      21    -1     0     0   501   502  0.000000000E+00  0.000000000E+00 -1.086419118E+02  1.086419118E+02  0.000000000E+00  0.00000E+00  9.000E+00
      25     1     1     2     0     0  2.118489262E+02  6.823405436E+00  2.529110320E+02  3.528675623E+02  1.250000000E+02  0.00000E+00  9.000E+00
      25     1     1     2     0     0 -4.880637397E+01  2.444357428E+01  9.172852561E+01  1.643735772E+02  1.250000000E+02  0.00000E+00  9.000E+00
      21     1     1     2   511   502 -1.630425522E+02 -3.126697971E+01  2.860643745E+02  3.307466163E+02  0.000000000E+00  0.00000E+00  9.000E+00
#rwgt            1           1   2.5111591536595684E-002           9       50173           0
</event>
<event>
      5   9999  3.19816E-02  8.23614E+02 -1.00000E+00  9.30610E-02
       1    -1     0     0   502     0  0.000000000E+00  0.000000000E+00  4.216150883E+03  4.216150883E+03  0.000000000E+00  0.00000E+00  9.000E+00
      21    -1     0     0   501   502  0.000000000E+00  0.000000000E+00 -1.066604875E+03  1.066604875E+03  0.000000000E+00  0.00000E+00  9.000E+00
      25     1     1     2     0     0  1.297537920E+02 -6.041481292E+02 -6.413727751E+02  8.993414508E+02  1.250000000E+02  0.00000E+00  9.000E+00
      25     1     1     2     0     0 -6.460129632E+02 -3.758107303E+01  3.415088991E+03  3.478103348E+03  1.250000000E+02  0.00000E+00  9.000E+00
       1     1     1     2   501     0  5.162591711E+02  6.417292023E+02  3.758297920E+02  9.053109595E+02  7.629394531E-06  0.00000E+00  9.000E+00
#rwgt            2          17   4.0484639879671098E-004           9       50330           0
</event>
<event>
      5   9999  3.19816E-02  8.25706E+01 -1.00000E+00  1.27688E-01
      21    -1     0     0   502   511  0.000000000E+00  0.000000000E+00  1.119834447E+03  1.119834447E+03  0.000000000E+00  0.00000E+00  9.000E+00
      21    -1     0     0   501   502  0.000000000E+00  0.000000000E+00 -1.713433568E+02  1.713433568E+02  0.000000000E+00  0.00000E+00  9.000E+00
      25     1     1     2     0     0 -9.132347626E+01  2.886642383E+02  2.435579586E+02  4.081819435E+02  1.250000000E+02  0.00000E+00  9.000E+00
      25     1     1     2     0     0  1.711041273E+02 -2.673817033E+02  2.560020685E+02  4.265344731E+02  1.250000000E+02  0.00000E+00  9.000E+00
      21     1     1     2   501   511 -7.978065103E+01 -2.128253501E+01  4.489310629E+02  4.564613870E+02  5.394796609E-06  0.00000E+00  9.000E+00
#rwgt            1           1   2.7559586546754097E-002           9       50349           0
</event>
<event>
      5   9999  3.19816E-02  6.51514E+01 -1.00000E+00  1.32819E-01
       2    -1     0     0   502     0  0.000000000E+00  0.000000000E+00  6.730963620E+01  6.730963620E+01  0.000000000E+00  0.00000E+00  9.000E+00
      21    -1     0     0   501   502  0.000000000E+00  0.000000000E+00 -1.212865482E+03  1.212865482E+03  0.000000000E+00  0.00000E+00  9.000E+00
      25     1     1     2     0     0 -5.174611102E+00 -1.527380156E+02 -9.609895127E+02  9.810614260E+02  1.250000000E+02  0.00000E+00  9.000E+00
      25     1     1     2     0     0  2.237159071E+01  8.989721293E+01 -1.734752244E+02  2.330249996E+02  1.250000000E+02  0.00000E+00  9.000E+00
       2     1     1     2   501     0 -1.719697961E+01  6.284080264E+01 -1.109110857E+01  6.608869248E+01  5.462855929E-07  0.00000E+00  9.000E+00
#rwgt            1           1   3.0861155569941522E-002           9       50428           0
</event>
<event>
      5   9999  3.19816E-02  7.86803E+01 -1.00000E+00  1.28700E-01
      21    -1     0     0   502   501  0.000000000E+00  0.000000000E+00  1.235024037E+02  1.235024037E+02  0.000000000E+00  0.00000E+00  9.000E+00
      21    -1     0     0   501   511  0.000000000E+00  0.000000000E+00 -3.669196378E+02  3.669196378E+02  0.000000000E+00  0.00000E+00  9.000E+00
      25     1     1     2     0     0 -7.217222124E+01  7.385220207E+00  2.401056991E+01  1.465089706E+02  1.250000000E+02  0.00000E+00  9.000E+00
      25     1     1     2     0     0  1.727030438E+01  4.897410443E+01 -1.920117671E+02  2.349260416E+02  1.250000000E+02  0.00000E+00  9.000E+00
      21     1     1     2   502   511  5.490191686E+01 -5.635932463E+01 -7.541603694E+01  1.089870294E+02  9.536743164E-07  0.00000E+00  9.000E+00
#rwgt            1           1   3.1970113033922713E-002           9       50529           0
</event>
<event>
      5   9999  3.19816E-02  3.58464E+01 -1.00000E+00  1.47856E-01
      21    -1     0     0   502   501  0.000000000E+00  0.000000000E+00  4.275073600E+02  4.275073600E+02  0.000000000E+00  0.00000E+00  9.000E+00
      21    -1     0     0   501   512  0.000000000E+00  0.000000000E+00 -3.606185703E+02  3.606185703E+02  0.000000000E+00  0.00000E+00  9.000E+00
      25     1     1     2     0     0 -1.120095888E+02 -1.025496075E+02  3.517540996E+02  4.030118070E+02  1.250000000E+02  0.00000E+00  9.000E+00
      25     1     1     2     0     0  1.472359582E+02  1.091881549E+02 -2.582447003E+02  3.404641035E+02  1.250000000E+02  0.00000E+00  9.000E+00
      21     1     1     2   502   512 -3.522636938E+01 -6.638547329E+00 -2.662060962E+01  4.465001979E+01  5.840038640E-07  0.00000E+00  9.000E+00
#rwgt            1           1   3.0062288937059031E-002           9       50590           0
</event>
<event>
      5   9999  3.19816E-02  6.06665E+01 -1.00000E+00  1.34448E-01
      21    -1     0     0   511   501  0.000000000E+00  0.000000000E+00  4.266730334E+02  4.266730334E+02  0.000000000E+00  0.00000E+00  9.000E+00
      21    -1     0     0   501   502  0.000000000E+00  0.000000000E+00 -7.139884533E+02  7.139884533E+02  0.000000000E+00  0.00000E+00  9.000E+00
      25     1     1     2     0     0  2.991046780E+02  5.171846505E+01  2.145378682E+02  3.921605601E+02  1.250000000E+02  0.00000E+00  9.000E+00
      25     1     1     2     0     0 -3.456003811E+02 -1.274955025E+01 -5.563857884E+02  6.669275222E+02  1.250000000E+02  0.00000E+00  9.000E+00
      21     1     1     2   511   502  4.649570306E+01 -3.896891480E+01  5.453250024E+01  8.157340440E+01  6.743495762E-07  0.00000E+00  9.000E+00
#rwgt            1           1   2.6371091777193892E-002           9       50729           0
</event>
<event>
      5   9999  3.19816E-02  8.17434E+01 -1.00000E+00  1.27898E-01
      21    -1     0     0   502   512  0.000000000E+00  0.000000000E+00  7.565011748E+02  7.565011748E+02  0.000000000E+00  0.00000E+00  9.000E+00
      21    -1     0     0   501   502  0.000000000E+00  0.000000000E+00 -1.735283844E+02  1.735283844E+02  0.000000000E+00  0.00000E+00  9.000E+00
      25     1     1     2     0     0  1.766686369E+02 -4.885902629E+01 -1.070702563E+01  2.221230563E+02  1.250000000E+02  0.00000E+00  9.000E+00
      25     1     1     2     0     0 -1.673388479E+02 -3.235022066E+01  1.560990067E+02  2.627560213E+02  1.250000000E+02  0.00000E+00  9.000E+00
      21     1     1     2   501   512 -9.329788969E+00  8.120924695E+01  4.375808093E+02  4.451504817E+02  5.394796609E-06  0.00000E+00  9.000E+00
#rwgt            1           1   2.5289615327468686E-002           9       50830           0
</event>
<event>
      5   9999  3.19816E-02  1.55094E+01 -1.00000E+00  1.76028E-01
      21    -1     0     0   511   501  0.000000000E+00  0.000000000E+00  7.002735778E+02  7.002735778E+02  0.000000000E+00  0.00000E+00  9.000E+00
      21    -1     0     0   501   502  0.000000000E+00  0.000000000E+00 -1.604799748E+02  1.604799748E+02  0.000000000E+00  0.00000E+00  9.000E+00
      25     1     1     2     0     0 -2.010116999E+02 -1.749582077E+02  3.318479162E+02  4.435810156E+02  1.250000000E+02  0.00000E+00  9.000E+00
      25     1     1     2     0     0  1.855185770E+02  1.756687324E+02  9.017393483E+01  2.983839548E+02  1.250000000E+02  0.00000E+00  9.000E+00
      21     1     1     2   511   502  1.549312286E+01 -7.105246486E-01  1.177717520E+02  1.187885822E+02  1.348699152E-06  0.00000E+00  9.000E+00
#rwgt            1           1   3.0199998407327615E-002           9       50894           0
</event>
<event>
      5   9999  3.19816E-02  7.11899E+00 -1.00000E+00  2.14524E-01
       1    -1     0     0   502     0  0.000000000E+00  0.000000000E+00  3.281387374E+03  3.281387374E+03  0.000000000E+00  0.00000E+00  9.000E+00
      21    -1     0     0   501   502  0.000000000E+00  0.000000000E+00 -2.215447870E+03  2.215447870E+03  0.000000000E+00  0.00000E+00  9.000E+00
      25     1     1     2     0     0 -1.233281829E+02 -4.261124772E+01 -1.215728659E+02  2.177854928E+02  1.250000000E+02  0.00000E+00  9.000E+00
      25     1     1     2     0     0  1.247415269E+02  3.563396159E+01 -2.041798619E+03  2.049730916E+03  1.250000000E+02  0.00000E+00  9.000E+00
       1     1     1     2   501     0 -1.413343922E+00  6.977286126E+00  3.229310989E+03  3.229318836E+03  4.315837288E-05  0.00000E+00  9.000E+00
#rwgt            1           1   9.2045259515126113E-002           9       51111           0
</event>
<event>
      5   9999  3.19816E-02  1.72534E+02 -1.00000E+00  1.14035E-01
       2    -1     0     0   502     0  0.000000000E+00  0.000000000E+00  9.476499156E+02  9.476499156E+02  0.000000000E+00  0.00000E+00  9.000E+00
      21    -1     0     0   501   502  0.000000000E+00  0.000000000E+00 -5.137104792E+02  5.137104792E+02  0.000000000E+00  0.00000E+00  9.000E+00
      25     1     1     2     0     0  2.798255574E+02  3.414964403E+02  2.259067373E+02  5.114499147E+02  1.250000000E+02  0.00000E+00  9.000E+00
      25     1     1     2     0     0 -4.310480164E+02 -4.245602253E+02 -7.097600701E+01  6.218652353E+02  1.250000000E+02  0.00000E+00  9.000E+00
       2     1     1     2   501     0  1.512224590E+02  8.306378501E+01  2.790087061E+02  3.280452447E+02  3.814697266E-06  0.00000E+00  9.000E+00
#rwgt            1           1   3.1631340800194530E-002           9       51379           0
</event>
<event>
      5   9999  3.19816E-02  1.34258E+02 -1.00000E+00  1.18334E-01
      21    -1     0     0   502   511  0.000000000E+00  0.000000000E+00  9.137847764E+01  9.137847764E+01  0.000000000E+00  0.00000E+00  9.000E+00
      21    -1     0     0   501   502  0.000000000E+00  0.000000000E+00 -1.954212439E+03  1.954212439E+03  0.000000000E+00  0.00000E+00  9.000E+00
      25     1     1     2     0     0  3.440959592E+01  1.201894117E+02 -1.703507803E+03  1.712656810E+03  1.250000000E+02  0.00000E+00  9.000E+00
      25     1     1     2     0     0  7.472323776E+01 -4.198959130E+01 -1.191580697E+02  1.927960934E+02  1.250000000E+02  0.00000E+00  9.000E+00
      21     1     1     2   501   511 -1.091328337E+02 -7.819982038E+01 -4.016808846E+01  1.401380128E+02  2.939421655E-06  0.00000E+00  9.000E+00
#rwgt            1           1   3.3653812167200634E-002           9       51426           0
</event>
<event>
      5   9999  3.19816E-02  3.99371E+01 -1.00000E+00  1.44883E-01
      21    -1     0     0   502   512  0.000000000E+00  0.000000000E+00  5.652815137E+02  5.652815137E+02  0.000000000E+00  0.00000E+00  9.000E+00
      21    -1     0     0   501   502  0.000000000E+00  0.000000000E+00 -2.258378864E+02  2.258378864E+02  0.000000000E+00  0.00000E+00  9.000E+00
      25     1     1     2     0     0 -2.034595449E+02 -1.597158807E+01  2.665251866E+02  3.582060205E+02  1.250000000E+02  0.00000E+00  9.000E+00
      25     1     1     2     0     0  2.294077507E+02 -1.438726735E+01 -8.099893860E+01  2.738991376E+02  1.250000000E+02  0.00000E+00  9.000E+00
      21     1     1     2   501   512 -2.594820578E+01  3.035885542E+01  1.539173793E+02  1.590142419E+02  1.907348633E-06  0.00000E+00  9.000E+00
#rwgt            1           1   2.8632656074647215E-002           9       51483           0
</event>
<event>
      5   9999  3.19816E-02  1.35932E+02 -1.00000E+00  1.18114E-01
      21    -1     0     0   502   501  0.000000000E+00  0.000000000E+00  1.424119765E+03  1.424119765E+03  0.000000000E+00  0.00000E+00  9.000E+00
      21    -1     0     0   501   511  0.000000000E+00  0.000000000E+00 -7.773466056E+01  7.773466056E+01  0.000000000E+00  0.00000E+00  9.000E+00
      25     1     1     2     0     0 -4.995446906E+01  2.475271782E+01  5.478629320E+02  5.647007511E+02  1.250000000E+02  0.00000E+00  9.000E+00
      25     1     1     2     0     0  1.813591510E+02 -5.954424576E+01  7.633828040E+02  7.967527623E+02  1.250000000E+02  0.00000E+00  9.000E+00
      21     1     1     2   502   511 -1.314046819E+02  3.479152794E+01  3.513936810E+01  1.404009118E+02  2.286830675E-06  0.00000E+00  9.000E+00
#rwgt            2          11   5.1550602459375242E-003           9       51632           0
</event>
<event>
      5   9999  3.19816E-02  3.41838E+01 -1.00000E+00  1.49203E-01
       1    -1     0     0   502     0  0.000000000E+00  0.000000000E+00  1.811194414E+03  1.811194414E+03  0.000000000E+00  0.00000E+00  9.000E+00
      21    -1     0     0   501   502  0.000000000E+00  0.000000000E+00 -2.111323962E+02  2.111323962E+02  0.000000000E+00  0.00000E+00  9.000E+00
      25     1     1     2     0     0 -2.477025600E+02 -6.558355413E+01  4.063922561E+02  4.964246435E+02  1.250000000E+02  0.00000E+00  9.000E+00
      25     1     1     2     0     0  2.775542839E+02  4.892810995E+01 -2.261347335E+01  3.091386576E+02  1.250000000E+02  0.00000E+00  9.000E+00
       1     1     1     2   501     0 -2.985172393E+01  1.665544418E+01  1.216283235E+03  1.216763509E+03  0.000000000E+00  0.00000E+00  9.000E+00
#rwgt            1           1   2.6824309553372082E-002           9       51652           0
</event>
<event>
      5   9999  3.19816E-02  3.83169E+01 -1.00000E+00  1.46008E-01
      21    -1     0     0   511   501  0.000000000E+00  0.000000000E+00  4.360623532E+02  4.360623532E+02  0.000000000E+00  0.00000E+00  9.000E+00
      21    -1     0     0   501   502  0.000000000E+00  0.000000000E+00 -1.962084957E+02  1.962084957E+02  0.000000000E+00  0.00000E+00  9.000E+00
      25     1     1     2     0     0 -1.388705385E+02 -1.194330869E+02  2.100793940E+02  3.054629936E+02  1.250000000E+02  0.00000E+00  9.000E+00
      25     1     1     2     0     0  1.440960413E+02  8.147420379E+01 -7.080223102E+01  2.191795404E+02  1.250000000E+02  0.00000E+00  9.000E+00
      21     1     1     2   511   502 -5.225502789E+00  3.795888306E+01  1.005766946E+02  1.076283149E+02  1.907348633E-06  0.00000E+00  9.000E+00
#rwgt            1           1   2.5605026450143991E-002           9       51780           0
</event>
<event>
      5   9999  3.19816E-02  1.44647E+02 -1.00000E+00  1.17023E-01
      21    -1     0     0   502   501  0.000000000E+00  0.000000000E+00  4.599006623E+02  4.599006623E+02  0.000000000E+00  0.00000E+00  9.000E+00
      21    -1     0     0   501   512  0.000000000E+00  0.000000000E+00 -2.971585514E+03  2.971585514E+03  0.000000000E+00  0.00000E+00  9.000E+00
      25     1     1     2     0     0 -3.082450663E+02 -9.023406992E+02 -1.716410643E+03  1.967466456E+03  1.250000000E+02  0.00000E+00  9.000E+00
      25     1     1     2     0     0  1.651515684E+02  9.234817075E+02 -3.723374335E+02  1.017031794E+03  1.250000000E+02  0.00000E+00  9.000E+00
      21     1     1     2   502   512  1.430934979E+02 -2.114100836E+01 -4.229367749E+02  4.469879271E+02  7.629394531E-06  0.00000E+00  9.000E+00
#rwgt            1           1   3.0831093666744185E-002           9       51920           0
</event>
<event>
      5   9999  3.19816E-02  4.37286E+01 -1.00000E+00  1.42480E-01
      21    -1     0     0   502   511  0.000000000E+00  0.000000000E+00  3.975143113E+02  3.975143113E+02  0.000000000E+00  0.00000E+00  9.000E+00
      21    -1     0     0   501   502  0.000000000E+00  0.000000000E+00 -2.505341317E+02  2.505341317E+02  0.000000000E+00  0.00000E+00  9.000E+00
      25     1     1     2     0     0  2.420984325E+02 -7.797876180E+01  1.063909713E+02  3.027150097E+02  1.250000000E+02  0.00000E+00  9.000E+00
      25     1     1     2     0     0 -2.073737249E+02  1.045566051E+02 -2.669099520E+01  2.650912195E+02  1.250000000E+02  0.00000E+00  9.000E+00
      21     1     1     2   501   511 -3.472470766E+01 -2.657784333E+01  6.728020350E+01  8.024221371E+01  9.536743164E-07  0.00000E+00  9.000E+00
#rwgt            1           1   2.7270674961374107E-002           9       52045           0
</event>
<event>
      5   9999  3.19816E-02  1.52191E+02 -1.00000E+00  1.16145E-01
      21    -1     0     0   502   501  0.000000000E+00  0.000000000E+00  1.376775373E+03  1.376775373E+03  0.000000000E+00  0.00000E+00  9.000E+00
      21    -1     0     0   501   512  0.000000000E+00  0.000000000E+00 -2.961805071E+02  2.961805071E+02  0.000000000E+00  0.00000E+00  9.000E+00
      25     1     1     2     0     0 -3.202321818E+02  2.672055634E+02  4.385304008E+02  6.179655134E+02  1.250000000E+02  0.00000E+00  9.000E+00
      25     1     1     2     0     0  4.497502233E+02 -3.471248686E+02  6.832315991E+02  8.973301264E+02  1.250000000E+02  0.00000E+00  9.000E+00
      21     1     1     2   502   512 -1.295180415E+02  7.991930513E+01 -4.116713404E+01  1.576602402E+02  3.471426911E-06  0.00000E+00  9.000E+00
#rwgt            1           1   2.8377229372264636E-002           9       52157           0
</event>
<event>
      5   9999  3.19816E-02  5.93825E+02 -1.00000E+00  9.67755E-02
       2    -1     0     0   502     0  0.000000000E+00  0.000000000E+00  2.178275822E+03  2.178275822E+03  0.000000000E+00  0.00000E+00  9.000E+00
      21    -1     0     0   501   502  0.000000000E+00  0.000000000E+00 -4.081708931E+02  4.081708931E+02  0.000000000E+00  0.00000E+00  9.000E+00
      25     1     1     2     0     0 -2.256525343E+02  3.061109044E+02  4.009161887E+02  5.665525063E+02  1.250000000E+02  0.00000E+00  9.000E+00
      25     1     1     2     0     0 -1.841278755E+02 -7.358875100E+02  3.599025155E+02  8.488747390E+02  1.250000000E+02  0.00000E+00  9.000E+00
       2     1     1     2   501     0  4.097804098E+02  4.297766056E+02  1.009286224E+03  1.171019469E+03  1.078959322E-05  0.00000E+00  9.000E+00
#rwgt            2          18   1.2937028372273468E-003           9       52435           0
</event>
<event>
      5   9999  3.19816E-02  5.83322E+01 -1.00000E+00  1.35361E-01
      21    -1     0     0   502   501  0.000000000E+00  0.000000000E+00  9.393631254E+01  9.393631254E+01  0.000000000E+00  0.00000E+00  9.000E+00
      21    -1     0     0   511   502  0.000000000E+00  0.000000000E+00 -6.681777364E+02  6.681777364E+02  0.000000000E+00  0.00000E+00  9.000E+00
      25     1     1     2     0     0  4.964386900E+01 -1.934219913E+02 -1.931159024E+02  3.046232627E+02  1.250000000E+02  0.00000E+00  9.000E+00
      25     1     1     2     0     0 -3.178772834E+01  1.378899861E+02 -2.443646511E+02  3.088093111E+02  1.250000000E+02  0.00000E+00  9.000E+00
      21     1     1     2   511   501 -1.785614067E+01  5.553200514E+01 -1.367608705E+02  1.486814751E+02  0.000000000E+00  0.00000E+00  9.000E+00
#rwgt            1           1   3.1118086724917601E-002           9       52454           0
</event>
<event>
      5   9999  3.19816E-02  1.81931E+02 -1.00000E+00  1.13166E-01
      21    -1     0     0   502   512  0.000000000E+00  0.000000000E+00  5.577151669E+02  5.577151669E+02  0.000000000E+00  0.00000E+00  9.000E+00
      21    -1     0     0   501   502  0.000000000E+00  0.000000000E+00 -5.483792966E+02  5.483792966E+02  0.000000000E+00  0.00000E+00  9.000E+00
      25     1     1     2     0     0 -3.428978310E+02  8.316923795E+01  1.758077679E+02  4.135570286E+02  1.250000000E+02  0.00000E+00  9.000E+00
      25     1     1     2     0     0  4.606406730E+02  5.552311059E+01 -1.724020502E+02  5.105096594E+02  1.250000000E+02  0.00000E+00  9.000E+00
      21     1     1     2   501   512 -1.177428420E+02 -1.386923485E+02  5.930152533E+00  1.820277756E+02  1.464868275E-06  0.00000E+00  9.000E+00
#rwgt            1           1   3.0677982478595663E-002           9       52535           0
</event>
<event>
      5   9999  3.19816E-02  1.22368E+02 -1.00000E+00  1.20009E-01
       2    -1     0     0   502     0  0.000000000E+00  0.000000000E+00  4.909222509E+02  4.909222509E+02  0.000000000E+00  0.00000E+00  9.000E+00
      21    -1     0     0   501   502  0.000000000E+00  0.000000000E+00 -3.468168135E+02  3.468168135E+02  0.000000000E+00  0.00000E+00  9.000E+00
      25     1     1     2     0     0 -1.007560374E+02 -2.092017505E+02 -4.981689720E+01  2.683726415E+02  1.250000000E+02  0.00000E+00  9.000E+00
      25     1     1     2     0     0  5.864917978E+01  9.430618747E+01 -1.372410538E+02  2.163180301E+02  1.250000000E+02  0.00000E+00  9.000E+00
       2     1     1     2   501     0  4.210685758E+01  1.148955630E+02  3.311633883E+02  3.530483928E+02  3.814697266E-06  0.00000E+00  9.000E+00
#rwgt            1           1   2.5568616823718332E-002           9       52598           0
</event>
<event>
      5   9999  3.19816E-02  2.90778E+01 -1.00000E+00  1.53988E-01
      21    -1     0     0   502   511  0.000000000E+00  0.000000000E+00  2.431857833E+02  2.431857833E+02  0.000000000E+00  0.00000E+00  9.000E+00
      21    -1     0     0   501   502  0.000000000E+00  0.000000000E+00 -2.161283199E+02  2.161283199E+02  0.000000000E+00  0.00000E+00  9.000E+00
      25     1     1     2     0     0  2.611781954E+01 -1.019355147E+02  1.335396196E+02  2.110232680E+02  1.250000000E+02  0.00000E+00  9.000E+00
      25     1     1     2     0     0 -1.579462801E-01  1.150352979E+02 -1.275091120E+02  2.124069640E+02  1.250000000E+02  0.00000E+00  9.000E+00
      21     1     1     2   501   511 -2.595987326E+01 -1.309978322E+01  2.102695575E+01  3.588387114E+01  8.596304120E-07  0.00000E+00  9.000E+00
#rwgt            1           1   2.6079748105873678E-002           9       52671           0
</event>
<event>
      5   9999  3.19816E-02  1.76460E+02 -1.00000E+00  1.13664E-01
      21    -1     0     0   512   501  0.000000000E+00  0.000000000E+00  3.747469971E+02  3.747469971E+02  0.000000000E+00  0.00000E+00  9.000E+00
      21    -1     0     0   501   502  0.000000000E+00  0.000000000E+00 -1.547899506E+03  1.547899506E+03  0.000000000E+00  0.00000E+00  9.000E+00
      25     1     1     2     0     0 -2.829577214E+02  2.081186586E+02  1.614546535E+02  4.062893714E+02  1.250000000E+02  0.00000E+00  9.000E+00
      25     1     1     2     0     0  2.697503765E+02 -3.840841841E+02 -1.199522402E+03  1.294127087E+03  1.250000000E+02  0.00000E+00  9.000E+00
      21     1     1     2   512   502  1.320734487E+01  1.759655255E+02 -1.350847614E+02  2.222300450E+02  1.907348633E-06  0.00000E+00  9.000E+00
#rwgt            1           1   3.1038346145321843E-002           9       52767           0
</event>
<event>
      5   9999  3.19816E-02  5.34666E+01 -1.00000E+00  1.37435E-01
      21    -1     0     0   502   501  0.000000000E+00  0.000000000E+00  4.298372740E+02  4.298372740E+02  0.000000000E+00  0.00000E+00  9.000E+00
      21    -1     0     0   501   511  0.000000000E+00  0.000000000E+00 -1.976160216E+02  1.976160216E+02  0.000000000E+00  0.00000E+00  9.000E+00
      25     1     1     2     0     0  6.758052683E+01 -6.264603027E+00 -1.064555534E+02  1.776630454E+02  1.250000000E+02  0.00000E+00  9.000E+00
      25     1     1     2     0     0 -1.194833246E+02  1.910104660E+01  3.537713505E+02  3.942337926E+02  1.250000000E+02  0.00000E+00  9.000E+00
      21     1     1     2   502   511  5.190279776E+01 -1.283644358E+01 -1.509454472E+01  5.555645758E+01  3.769728732E-07  0.00000E+00  9.000E+00
#rwgt            1           1   2.6049697395439744E-002           9       52831           0
</event>
<event>
      5   9999  3.19816E-02  2.25429E+02 -1.00000E+00  1.09788E-01
      21    -1     0     0   502   501  0.000000000E+00  0.000000000E+00  4.697801475E+02  4.697801475E+02  0.000000000E+00  0.00000E+00  9.000E+00
      21    -1     0     0   501   512  0.000000000E+00  0.000000000E+00 -4.690645566E+02  4.690645566E+02  0.000000000E+00  0.00000E+00  9.000E+00
      25     1     1     2     0     0 -1.650675306E+01  1.461940489E+02 -9.197739608E+01  2.138457720E+02  1.250000000E+02  0.00000E+00  9.000E+00
      25     1     1     2     0     0 -3.723465001E+01  7.273491057E+01  3.514234263E+02  3.818379380E+02  1.250000000E+02  0.00000E+00  9.000E+00
      21     1     1     2   502   512  5.374140307E+01 -2.189289595E+02 -2.587304392E+02  3.431609941E+02  3.814697266E-06  0.00000E+00  9.000E+00
#rwgt            2          11   3.9877100103387231E-003           9       52938           0
</event>
<event>
      5   9999  3.19816E-02  3.87964E+01 -1.00000E+00  1.45668E-01
      21    -1     0     0   502   501  0.000000000E+00  0.000000000E+00  1.647058545E+02  1.647058545E+02  0.000000000E+00  0.00000E+00  9.000E+00
      21    -1     0     0   501   511  0.000000000E+00  0.000000000E+00 -6.579970132E+02  6.579970132E+02  0.000000000E+00  0.00000E+00  9.000E+00
      25     1     1     2     0     0 -1.489534632E+02 -7.611123385E+01 -3.531966455E+02  4.103083286E+02  1.250000000E+02  0.00000E+00  9.000E+00
      25     1     1     2     0     0  1.808989757E+02  9.812587400E+01  2.566959370E+01  2.421508922E+02  1.250000000E+02  0.00000E+00  9.000E+00
      21     1     1     2   502   511 -3.194551254E+01 -2.201464015E+01 -1.657641069E+02  1.702436468E+02  2.697398305E-06  0.00000E+00  9.000E+00
#rwgt            1           1   2.6250708018494325E-002           9       52958           0
</event>
<event>
      5   9999  3.19816E-02  3.65173E+01 -1.00000E+00  1.47337E-01
      21    -1     0     0   502   501  0.000000000E+00  0.000000000E+00  5.438561202E+01  5.438561202E+01  0.000000000E+00  0.00000E+00  9.000E+00
      21    -1     0     0   512   502  0.000000000E+00  0.000000000E+00 -6.030889024E+02  6.030889024E+02  0.000000000E+00  0.00000E+00  9.000E+00
      25     1     1     2     0     0 -8.066130831E+00 -8.612829819E+01 -1.565797950E+02  2.182323954E+02  1.250000000E+02  0.00000E+00  9.000E+00
      25     1     1     2     0     0  7.612497527E+00  4.961381412E+01 -1.845455224E+02  2.284765425E+02  1.250000000E+02  0.00000E+00  9.000E+00
      21     1     1     2   512   501  4.536333042E-01  3.651448407E+01 -2.075779731E+02  2.107655765E+02  2.697398305E-06  0.00000E+00  9.000E+00
#rwgt            1           1   2.4334253925733372E-002           9       53047           0
</event>
<event>
      5   9999  3.19816E-02  2.63492E+01 -1.00000E+00  1.57060E-01
      21    -1     0     0   502   501  0.000000000E+00  0.000000000E+00  1.387777128E+03  1.387777128E+03  0.000000000E+00  0.00000E+00  9.000E+00
      21    -1     0     0   511   502  0.000000000E+00  0.000000000E+00 -2.535112288E+02  2.535112288E+02  0.000000000E+00  0.00000E+00  9.000E+00
      25     1     1     2     0     0 -1.611446929E+02  1.603259097E+02 -1.395172712E+02  2.945540329E+02  1.250000000E+02  0.00000E+00  9.000E+00
      25     1     1     2     0     0  1.874132469E+02 -1.623852916E+02  1.287444688E+03  1.317054111E+03  1.250000000E+02  0.00000E+00  9.000E+00
      21     1     1     2   511   501 -2.626855407E+01  2.059381979E+00 -1.366151708E+01  2.968021287E+01  0.000000000E+00  0.00000E+00  9.000E+00
#rwgt            1           1   3.2276963794560118E-002           9       53136           0
</event>
<event>
      5   9999  3.19816E-02  1.06634E+02 -1.00000E+00  1.22586E-01
      21    -1     0     0   512   501  0.000000000E+00  0.000000000E+00  4.232226345E+02  4.232226345E+02  0.000000000E+00  0.00000E+00  9.000E+00
      21    -1     0     0   501   502  0.000000000E+00  0.000000000E+00 -1.803461301E+02  1.803461301E+02  0.000000000E+00  0.00000E+00  9.000E+00
      25     1     1     2     0     0 -2.847346080E+01 -2.230953662E+02  1.536174945E+02  2.996758499E+02  1.250000000E+02  0.00000E+00  9.000E+00
      25     1     1     2     0     0 -9.300643767E+00  1.233763566E+02  2.063243375E+01  1.770845128E+02  1.250000000E+02  0.00000E+00  9.000E+00
      21     1     1     2   512   502  3.777410457E+01  9.971900964E+01  6.862657610E+01  1.268084020E+02  1.651812370E-06  0.00000E+00  9.000E+00
#rwgt            1           1   2.9148218136267084E-002           9       53325           0
</event>
<event>
      5   9999  3.19816E-02  1.14884E+02 -1.00000E+00  1.21177E-01
      21    -1     0     0   502   501  0.000000000E+00  0.000000000E+00  5.456251861E+02  5.456251861E+02  0.000000000E+00  0.00000E+00  9.000E+00
      21    -1     0     0   511   502  0.000000000E+00  0.000000000E+00 -5.474319250E+02  5.474319250E+02  0.000000000E+00  0.00000E+00  9.000E+00
      25     1     1     2     0     0 -2.485332494E+02 -3.957296312E+01  4.504034962E+02  5.308701393E+02  1.250000000E+02  0.00000E+00  9.000E+00
      25     1     1     2     0     0  1.423987916E+02  8.354888148E+01 -3.581542428E+02  4.137116062E+02  1.250000000E+02  0.00000E+00  9.000E+00
      21     1     1     2   511   501  1.061344578E+02 -4.397591836E+01 -9.405599222E+01  1.484753656E+02  1.348699152E-06  0.00000E+00  9.000E+00
#rwgt            1           1   2.5215004911335617E-002           9       53406           0
</event>
<event>
      5   9999  3.19816E-02  5.20870E+02 -1.00000E+00  9.83501E-02
       2    -1     0     0   502     0  0.000000000E+00  0.000000000E+00  2.125448196E+03  2.125448196E+03  0.000000000E+00  0.00000E+00  9.000E+00
      21    -1     0     0   501   502  0.000000000E+00  0.000000000E+00 -6.245584132E+02  6.245584132E+02  0.000000000E+00  0.00000E+00  9.000E+00
      25     1     1     2     0     0  3.994675238E+02  2.393594943E+01 -1.314735187E+02  4.393831112E+02  1.250000000E+02  0.00000E+00  9.000E+00
      25     1     1     2     0     0 -4.097929485E+02 -5.447032631E+02  1.100790654E+02  7.016938834E+02  1.250000000E+02  0.00000E+00  9.000E+00
       2     1     1     2   501     0  1.032542464E+01  5.207673136E+02  1.522284236E+03  1.608929614E+03  3.737624730E-05  0.00000E+00  9.000E+00
#rwgt            2          18   1.9969722727404536E-003           9       53729           0
</event>
<event>
      5   9999  3.19816E-02  1.46284E+02 -1.00000E+00  1.16827E-01
      21    -1     0     0   502   501  0.000000000E+00  0.000000000E+00  7.852963299E+02  7.852963299E+02  0.000000000E+00  0.00000E+00  9.000E+00
       2    -1     0     0   501     0  0.000000000E+00  0.000000000E+00 -1.160657479E+03  1.160657479E+03  0.000000000E+00  0.00000E+00  9.000E+00
      25     1     1     2     0     0 -1.488079999E+02 -5.363954411E+00 -6.207705118E+01  2.040861414E+02  1.250000000E+02  0.00000E+00  9.000E+00
      25     1     1     2     0     0  7.872025131E+00  4.455605685E+01  7.028229331E+02  7.152847588E+02  1.250000000E+02  0.00000E+00  9.000E+00
       2     1     1     2   502     0  1.409359747E+02 -3.919210244E+01 -1.016107031E+03  1.026582909E+03  1.868812365E-05  0.00000E+00  9.000E+00
#rwgt            2          13   4.6583266046395476E-003           9       53748           0
</event>
<event>
      5   9999  3.19816E-02  1.08135E+01 -1.00000E+00  1.91911E-01
      21    -1     0     0   502   511  0.000000000E+00  0.000000000E+00  4.972977017E+02  4.972977017E+02  0.000000000E+00  0.00000E+00  9.000E+00
      21    -1     0     0   501   502  0.000000000E+00  0.000000000E+00 -6.345173009E+02  6.345173009E+02  0.000000000E+00  0.00000E+00  9.000E+00
      25     1     1     2     0     0  2.112677308E+01 -7.325660794E+01  2.493298307E+02  2.891422412E+02  1.250000000E+02  0.00000E+00  9.000E+00
      25     1     1     2     0     0 -3.153926531E+01  7.033922268E+01 -6.057031286E+02  6.232524460E+02  1.250000000E+02  0.00000E+00  9.000E+00
      21     1     1     2   501   511  1.041249223E+01  2.917385255E+00  2.191536987E+02  2.194203153E+02  0.000000000E+00  0.00000E+00  9.000E+00
#rwgt            1           1   2.8274018693825457E-002           9       53797           0
</event>
<event>
      5   9999  3.19816E-02  6.64209E+01 -1.00000E+00  1.32386E-01
      21    -1     0     0   502   501  0.000000000E+00  0.000000000E+00  3.368445959E+01  3.368445959E+01  0.000000000E+00  0.00000E+00  9.000E+00
      21    -1     0     0   501   512  0.000000000E+00  0.000000000E+00 -3.125214402E+03  3.125214402E+03  0.000000000E+00  0.00000E+00  9.000E+00
      25     1     1     2     0     0 -1.544023566E+02  2.316775284E+02 -1.134028350E+03  1.174376372E+03  1.250000000E+02  0.00000E+00  9.000E+00
      25     1     1     2     0     0  1.054087731E+02 -1.868292545E+02 -1.286231955E+03  1.309974741E+03  1.250000000E+02  0.00000E+00  9.000E+00
      21     1     1     2   502   512  4.899358343E+01 -4.484827388E+01 -6.712696375E+02  6.745477486E+02  0.000000000E+00  0.00000E+00  9.000E+00
#rwgt            1           1   8.0879063134401435E-002           9       54020           0
</event>
<event>
      5   9999  3.19816E-02  8.44753E+00 -1.00000E+00  2.04627E-01
      21    -1     0     0   502   501  0.000000000E+00  0.000000000E+00  9.991848907E+02  9.991848907E+02  0.000000000E+00  0.00000E+00  9.000E+00
      21    -1     0     0   501   511  0.000000000E+00  0.000000000E+00 -1.103416845E+02  1.103416845E+02  0.000000000E+00  0.00000E+00  9.000E+00
      25     1     1     2     0     0 -1.575056852E+02  2.135854652E+02  6.723222772E+02  7.335318918E+02  1.250000000E+02  0.00000E+00  9.000E+00
      25     1     1     2     0     0  1.562672297E+02 -2.219417240E+02  2.121480816E+02  3.664824477E+02  1.250000000E+02  0.00000E+00  9.000E+00
      21     1     1     2   502   511  1.238455495E+00  8.356258836E+00  4.372847395E+00  9.512235703E+00  0.000000000E+00  0.00000E+00  9.000E+00
#rwgt            1           1   2.8404687694950841E-002           9       54146           0
</event>
<event>
      5   9999  3.19816E-02  1.11879E+01 -1.00000E+00  1.90286E-01
      21    -1     0     0   502   501  0.000000000E+00  0.000000000E+00  1.218960335E+02  1.218960335E+02  0.000000000E+00  0.00000E+00  9.000E+00
      21    -1     0     0   512   502  0.000000000E+00  0.000000000E+00 -4.530028533E+02  4.530028533E+02  0.000000000E+00  0.00000E+00  9.000E+00
      25     1     1     2     0     0 -1.790315296E+01  7.883281779E+01  5.401069940E+01  1.583581122E+02  1.250000000E+02  0.00000E+00  9.000E+00
      25     1     1     2     0     0  1.021071211E+01 -7.070908175E+01 -3.740559052E+02  4.008077508E+02  1.250000000E+02  0.00000E+00  9.000E+00
      21     1     1     2   512   501  7.692440848E+00 -8.123736046E+00 -1.106161402E+01  1.573302381E+01  2.384185791E-07  0.00000E+00  9.000E+00
#rwgt            1           1   2.9505163416518872E-002           9       54382           0
</event>
<event>
      5   9999  3.19816E-02  8.22457E+01 -1.00000E+00  1.27770E-01
      21    -1     0     0   502   501  0.000000000E+00  0.000000000E+00  8.702344478E+02  8.702344478E+02  0.000000000E+00  0.00000E+00  9.000E+00
      21    -1     0     0   511   502  0.000000000E+00  0.000000000E+00 -1.735047930E+02  1.735047930E+02  0.000000000E+00  0.00000E+00  9.000E+00
      25     1     1     2     0     0  1.299865169E+02 -2.127307261E+02  4.775883455E+02  5.530519724E+02  1.250000000E+02  0.00000E+00  9.000E+00
      25     1     1     2     0     0 -1.655353054E+02  2.868969696E+02  1.554057436E+02  3.866364618E+02  1.250000000E+02  0.00000E+00  9.000E+00
      21     1     1     2   511   501  3.554878852E+01 -7.416624343E+01  6.373556567E+01  1.040508066E+02  9.536743164E-07  0.00000E+00  9.000E+00
#rwgt            1           1   3.1425312086710025E-002           9       54566           0
</event>
<event>
      5   9999  3.19816E-02  1.02862E+02 -1.00000E+00  1.23279E-01
      21    -1     0     0   502   501  0.000000000E+00  0.000000000E+00  1.718498827E+02  1.718498827E+02  0.000000000E+00  0.00000E+00  9.000E+00
      21    -1     0     0   512   502  0.000000000E+00  0.000000000E+00 -1.206760538E+03  1.206760538E+03  0.000000000E+00  0.00000E+00  9.000E+00
      25     1     1     2     0     0 -2.590986184E+02 -1.737416564E+02 -2.119539842E+02  3.973257462E+02  1.250000000E+02  0.00000E+00  9.000E+00
      25     1     1     2     0     0  1.862304955E+02  2.463427366E+02 -3.000417051E+02  4.483487104E+02  1.250000000E+02  0.00000E+00  9.000E+00
      21     1     1     2   512   501  7.286812286E+01 -7.260108020E+01 -5.229149660E+02  5.329359641E+02  1.078959322E-05  0.00000E+00  9.000E+00
#rwgt            1           1   3.2979503954368154E-002           9       54687           0
</event>
<event>
      5   9999  3.19816E-02  4.39259E+01 -1.00000E+00  1.42363E-01
      21    -1     0     0   502   501  0.000000000E+00  0.000000000E+00  1.137345927E+02  1.137345927E+02  0.000000000E+00  0.00000E+00  9.000E+00
      21    -1     0     0   511   502  0.000000000E+00  0.000000000E+00 -6.127064329E+02  6.127064329E+02  0.000000000E+00  0.00000E+00  9.000E+00
      25     1     1     2     0     0  7.895396297E+01  1.692634885E+02 -2.493095061E+02  3.356547134E+02  1.250000000E+02  0.00000E+00  9.000E+00
      25     1     1     2     0     0 -1.071981591E+02 -1.356220598E+02 -1.014924287E+02  2.362424634E+02  1.250000000E+02  0.00000E+00  9.000E+00
      21     1     1     2   511   501  2.824419614E+01 -3.364142862E+01 -1.481699054E+02  1.545438488E+02  2.697398305E-06  0.00000E+00  9.000E+00
#rwgt            1           1   2.8800111431807846E-002           9       54750           0
</event>
<event>
      5   9999  3.19816E-02  2.25300E+01 -1.00000E+00  1.62211E-01
      21    -1     0     0   502   512  0.000000000E+00  0.000000000E+00  6.994871065E+02  6.994871065E+02  0.000000000E+00  0.00000E+00  9.000E+00
      21    -1     0     0   501   502  0.000000000E+00  0.000000000E+00 -5.136431533E+02  5.136431533E+02  0.000000000E+00  0.00000E+00  9.000E+00
      25     1     1     2     0     0  9.798522329E+01  2.278393919E+02 -3.321346954E+02  4.329553653E+02  1.250000000E+02  0.00000E+00  9.000E+00
      25     1     1     2     0     0 -1.147679664E+02 -2.428707102E+02  3.690200603E+01  2.985709732E+02  1.250000000E+02  0.00000E+00  9.000E+00
      21     1     1     2   501   512  1.678274310E+01  1.503131822E+01  4.810766425E+02  4.816039213E+02  0.000000000E+00  0.00000E+00  9.000E+00
#rwgt            1           1   2.9268583423561031E-002           9       54886           0
</event>
<event>
      5   9999  3.19816E-02  3.43679E+01 -1.00000E+00  1.49050E-01
      21    -1     0     0   511   501  0.000000000E+00  0.000000000E+00  5.893957810E+01  5.893957810E+01  0.000000000E+00  0.00000E+00  9.000E+00
      21    -1     0     0   501   502  0.000000000E+00  0.000000000E+00 -1.135817780E+03  1.135817780E+03  0.000000000E+00  0.00000E+00  9.000E+00
      25     1     1     2     0     0 -3.639430647E+01  1.293674189E+02 -5.665671701E+02  5.955533837E+02  1.250000000E+02  0.00000E+00  9.000E+00
      25     1     1     2     0     0  6.988072434E+01 -1.216334363E+02 -5.280830458E+02  5.605129006E+02  1.250000000E+02  0.00000E+00  9.000E+00
      21     1     1     2   511   502 -3.348641788E+01 -7.733982623E+00  1.777201437E+01  3.869107344E+01  1.039242493E-06  0.00000E+00  9.000E+00
#rwgt            1           1   2.7218579907093934E-002           9       55018           0
</event>
<event>
      5   9999  3.19816E-02  1.08986E+02 -1.00000E+00  1.22170E-01
      21    -1     0     0   502   512  0.000000000E+00  0.000000000E+00  4.269576761E+02  4.269576761E+02  0.000000000E+00  0.00000E+00  9.000E+00
      21    -1     0     0   501   502  0.000000000E+00  0.000000000E+00 -2.383990271E+03  2.383990271E+03  0.000000000E+00  0.00000E+00  9.000E+00
      25     1     1     2     0     0 -7.393393667E+02 -3.250365550E+02 -1.129467461E+03  1.394128117E+03  1.250000000E+02  0.00000E+00  9.000E+00
      25     1     1     2     0     0  6.945462141E+02  4.243924174E+02 -9.471122873E+02  1.255049821E+03  1.250000000E+02  0.00000E+00  9.000E+00
      21     1     1     2   501   512  4.479315267E+01 -9.935586232E+01  1.195471537E+02  1.617700092E+02  3.814697266E-06  0.00000E+00  9.000E+00
#rwgt            1           1   2.2690419643854098E-002           9       55090           0
</event>
<event>
      5   9999  3.19816E-02  7.32948E+01 -1.00000E+00  1.30217E-01
       2    -1     0     0   502     0  0.000000000E+00  0.000000000E+00  2.486424935E+03  2.486424935E+03  0.000000000E+00  0.00000E+00  9.000E+00
      21    -1     0     0   501   502  0.000000000E+00  0.000000000E+00 -3.259326079E+02  3.259326079E+02  0.000000000E+00  0.00000E+00  9.000E+00
      25     1     1     2     0     0  2.543203469E+01  1.555555896E+02 -2.858435085E+02  3.495366092E+02  1.250000000E+02  0.00000E+00  9.000E+00
      25     1     1     2     0     0 -5.008284327E+01 -8.653051169E+01  8.585018470E+02  8.732961937E+02  1.250000000E+02  0.00000E+00  9.000E+00
       2     1     1     2   501     0  2.465080858E+01 -6.902507792E+01  1.587833989E+03  1.589524740E+03  0.000000000E+00  0.00000E+00  9.000E+00
#rwgt            2          18   2.5294338438911646E-003           9       55183           0
</event>
<event>
      5   9999  3.27702E-02  3.47870E+01 -1.00000E+00  1.48704E-01
       2    -1     0     0   502     0  0.000000000E+00  0.000000000E+00  2.722728942E+03  2.722728942E+03  0.000000000E+00  0.00000E+00  9.000E+00
      21    -1     0     0   501   502  0.000000000E+00  0.000000000E+00 -4.669673369E+01  4.669673369E+01  0.000000000E+00  0.00000E+00  9.000E+00
      25     1     1     2     0     0  3.052147298E+01  5.905374733E+00  4.966751832E+01  1.380517879E+02  1.250000000E+02  0.00000E+00  9.000E+00
      25     1     1     2     0     0 -4.342007478E-01 -2.336655943E+01  1.989789941E+03  1.993849341E+03  1.250000000E+02  0.00000E+00  9.000E+00
       2     1     1     2   501     0 -3.008727223E+01  1.746118470E+01  6.365747489E+02  6.375245468E+02  0.000000000E+00  0.00000E+00  9.000E+00
#rwgt            1           1   8.9366725026615579E-002           9       55232           0
</event>
<event>
      5   9999  3.19816E-02  1.93999E+01 -1.00000E+00  1.67468E-01
      21    -1     0     0   502   511  0.000000000E+00  0.000000000E+00  2.677274773E+02  2.677274773E+02  0.000000000E+00  0.00000E+00  9.000E+00
      21    -1     0     0   501   502  0.000000000E+00  0.000000000E+00 -3.023444304E+02  3.023444304E+02  0.000000000E+00  0.00000E+00  9.000E+00
      25     1     1     2     0     0  6.799333281E+01 -1.288825762E+02 -2.026823021E+02  2.791754418E+02  1.250000000E+02  0.00000E+00  9.000E+00
      25     1     1     2     0     0 -5.668661275E+01  1.446468764E+02  1.059083420E+02  2.257823461E+02  1.250000000E+02  0.00000E+00  9.000E+00
      21     1     1     2   501   511 -1.130672006E+01 -1.576430024E+01  6.215700691E+01  6.511411974E+01  9.536743164E-07  0.00000E+00  9.000E+00
#rwgt            1           1   3.1128515974388728E-002           9       55316           0
</event>
<event>
      5   9999  3.19816E-02  1.51829E+02 -1.00000E+00  1.16185E-01
      21    -1     0     0   512   501  0.000000000E+00  0.000000000E+00  1.931189985E+03  1.931189985E+03  0.000000000E+00  0.00000E+00  9.000E+00
      21    -1     0     0   501   502  0.000000000E+00  0.000000000E+00 -3.736945499E+02  3.736945499E+02  0.000000000E+00  0.00000E+00  9.000E+00
      25     1     1     2     0     0 -1.576835524E+02  6.079076699E+02  2.824585682E+02  6.998740462E+02  1.250000000E+02  0.00000E+00  9.000E+00
      25     1     1     2     0     0  2.116768687E+02 -7.498112157E+02  8.808852109E+02  1.182627461E+03  1.250000000E+02  0.00000E+00  9.000E+00
      21     1     1     2   512   502 -5.399331628E+01  1.419035458E+02  3.941516561E+02  4.223830282E+02  9.344061824E-06  0.00000E+00  9.000E+00
#rwgt            1           1   2.9825923737385004E-002           9       55436           0
</event>
<event>
      5   9999  3.19816E-02  1.79287E+02 -1.00000E+00  1.13404E-01
      21    -1     0     0   502   511  0.000000000E+00  0.000000000E+00  6.172720103E+02  6.172720103E+02  0.000000000E+00  0.00000E+00  9.000E+00
      21    -1     0     0   501   502  0.000000000E+00  0.000000000E+00 -9.741818794E+02  9.741818794E+02  0.000000000E+00  0.00000E+00  9.000E+00
      25     1     1     2     0     0 -5.661480445E+01  5.872743612E+02 -1.727455759E+02  6.273455550E+02  1.250000000E+02  0.00000E+00  9.000E+00
      25     1     1     2     0     0  1.652263729E+02 -7.299189475E+02 -1.983800443E+02  7.842582905E+02  1.250000000E+02  0.00000E+00  9.000E+00
      21     1     1     2   501   511 -1.086115684E+02  1.426445864E+02  1.421575115E+01  1.798500442E+02  2.274368290E-06  0.00000E+00  9.000E+00
#rwgt            1           1   3.1787629246686731E-002           9       55511           0
</event>
<event>
      5   9999  3.19816E-02  1.64955E+02 -1.00000E+00  1.14781E-01
      21    -1     0     0   502   501  0.000000000E+00  0.000000000E+00  1.015492958E+03  1.015492958E+03  0.000000000E+00  0.00000E+00  9.000E+00
       2    -1     0     0   501     0  0.000000000E+00  0.000000000E+00 -6.972079122E+02  6.972079122E+02  0.000000000E+00  0.00000E+00  9.000E+00
      25     1     1     2     0     0  3.279298911E+02 -1.419996539E+02 -2.310160610E+02  4.435034787E+02  1.250000000E+02  0.00000E+00  9.000E+00
      25     1     1     2     0     0 -3.387407720E+02  3.066003206E+02  8.230305409E+02  9.496069389E+02  1.250000000E+02  0.00000E+00  9.000E+00
       2     1     1     2   502     0  1.081088092E+01 -1.646006667E+02 -2.737294338E+02  3.195904528E+02  0.000000000E+00  0.00000E+00  9.000E+00
#rwgt            1           1   3.0887917096070850E-002           9       55549           0
</event>
<event>
      5   9999  3.19816E-02  5.37100E+01 -1.00000E+00  1.37325E-01
      21    -1     0     0   502   501  0.000000000E+00  0.000000000E+00  2.447376352E+02  2.447376352E+02  0.000000000E+00  0.00000E+00  9.000E+00
      -2    -1     0     0     0   502  0.000000000E+00  0.000000000E+00 -1.542111349E+03  1.542111349E+03  0.000000000E+00  0.00000E+00  9.000E+00
      25     1     1     2     0     0  1.700829868E+02 -1.248271862E+02  1.614256620E+02  2.935869431E+02  1.250000000E+02  0.00000E+00  9.000E+00
      25     1     1     2     0     0 -1.957959094E+02  7.767199634E+01 -1.348693808E+03  1.370754888E+03  1.250000000E+02  0.00000E+00  9.000E+00
      -2     1     1     2     0   501  2.571292262E+01  4.715518988E+01 -1.101055681E+02  1.225071526E+02  1.348699152E-06  0.00000E+00  9.000E+00
#rwgt            1           1   2.8311713578902848E-002           9       55639           0
</event>
<event>
      5   9999  3.19816E-02  5.69229E+01 -1.00000E+00  1.35937E-01
      21    -1     0     0   511   501  0.000000000E+00  0.000000000E+00  3.938096736E+02  3.938096736E+02  0.000000000E+00  0.00000E+00  9.000E+00
      21    -1     0     0   501   502  0.000000000E+00  0.000000000E+00 -4.314583437E+02  4.314583437E+02  0.000000000E+00  0.00000E+00  9.000E+00
      25     1     1     2     0     0 -1.726651733E+02 -1.882140747E+02 -2.434600988E+02  3.743469243E+02  1.250000000E+02  0.00000E+00  9.000E+00
      25     1     1     2     0     0  2.178408140E+02  2.228460380E+02  1.396728095E+02  3.636598282E+02  1.250000000E+02  0.00000E+00  9.000E+00
      21     1     1     2   511   502 -4.517564066E+01 -3.463196333E+01  6.613861927E+01  8.726126490E+01  9.536743164E-07  0.00000E+00  9.000E+00
#rwgt            1           1   3.3686316678367710E-002           9       55839           0
</event>
<event>
      5   9999  3.19816E-02  9.48371E+01 -1.00000E+00  1.24872E-01
      21    -1     0     0   512   501  0.000000000E+00  0.000000000E+00  1.992526198E+02  1.992526198E+02  0.000000000E+00  0.00000E+00  9.000E+00
      21    -1     0     0   501   502  0.000000000E+00  0.000000000E+00 -4.856382711E+02  4.856382711E+02  0.000000000E+00  0.00000E+00  9.000E+00
      25     1     1     2     0     0  1.708567695E+02  5.942267432E+01 -2.796416268E+02  3.557351955E+02  1.250000000E+02  0.00000E+00  9.000E+00
      25     1     1     2     0     0 -1.229528295E+02 -1.412718654E+02  3.058860870E+01  2.272351232E+02  1.250000000E+02  0.00000E+00  9.000E+00
      21     1     1     2   512   502 -4.790393997E+01  8.184919104E+01 -3.733263327E+01  1.019205722E+02  2.023048729E-06  0.00000E+00  9.000E+00
#rwgt            1           1   2.6469255275776035E-002           9       55932           0
</event>
<event>
      5   9999  3.19816E-02  2.78420E+01 -1.00000E+00  1.55326E-01
      21    -1     0     0   511   501  0.000000000E+00  0.000000000E+00  2.716723910E+01  2.716723910E+01  0.000000000E+00  0.00000E+00  9.000E+00
      21    -1     0     0   501   502  0.000000000E+00  0.000000000E+00 -1.279461985E+03  1.279461985E+03  0.000000000E+00  0.00000E+00  9.000E+00
      25     1     1     2     0     0  3.484720705E+01  8.637634734E+01 -4.211114065E+02  4.490378803E+02  1.250000000E+02  0.00000E+00  9.000E+00
      25     1     1     2     0     0 -5.614754543E+01 -6.844674352E+01 -8.047573661E+02  8.192050548E+02  1.250000000E+02  0.00000E+00  9.000E+00
      21     1     1     2   511   502  2.130033838E+01 -1.792960381E+01 -2.642597282E+01  3.838628854E+01  5.840038640E-07  0.00000E+00  9.000E+00
#rwgt            1           1   3.2752933275525524E-002           9       55996           0
</event>
<event>
      5   9999  3.19816E-02  2.10563E+01 -1.00000E+00  1.64546E-01
      21    -1     0     0   502   501  0.000000000E+00  0.000000000E+00  1.279065312E+02  1.279065312E+02  0.000000000E+00  0.00000E+00  9.000E+00
      21    -1     0     0   512   502  0.000000000E+00  0.000000000E+00 -1.728321221E+02  1.728321221E+02  0.000000000E+00  0.00000E+00  9.000E+00
      25     1     1     2     0     0  1.788672574E+01 -4.735254666E+01  6.201884912E+00  1.350024519E+02  1.250000000E+02  0.00000E+00  9.000E+00
      25     1     1     2     0     0  2.171705896E+00  5.375762951E+01 -3.960132470E+01  1.417316618E+02  1.250000000E+02  0.00000E+00  9.000E+00
      21     1     1     2   512   501 -2.005843164E+01 -6.405082850E+00 -1.152615107E+01  2.400453967E+01  2.384185791E-07  0.00000E+00  9.000E+00
#rwgt            1           1   9.9757142974101487E-003           9       56042           0
</event>
<event>
      5   9999  3.19816E-02  5.97350E+01 -1.00000E+00  1.34806E-01
      21    -1     0     0   502   501  0.000000000E+00  0.000000000E+00  1.141993719E+03  1.141993719E+03  0.000000000E+00  0.00000E+00  9.000E+00
      21    -1     0     0   511   502  0.000000000E+00  0.000000000E+00 -1.984537646E+02  1.984537646E+02  0.000000000E+00  0.00000E+00  9.000E+00
      25     1     1     2     0     0  1.352495278E+02 -3.841043747E+02  6.222195515E+02  7.540628459E+02  1.250000000E+02  0.00000E+00  9.000E+00
      25     1     1     2     0     0 -1.052815765E+02  3.324304165E+02  3.589264979E+02  5.157978509E+02  1.250000000E+02  0.00000E+00  9.000E+00
      21     1     1     2   511   501 -2.996795130E+01  5.167395817E+01 -3.760609504E+01  7.058678660E+01  1.784161275E-06  0.00000E+00  9.000E+00
#rwgt            1           1   2.8745691616612227E-002           9       56180           0
</event>
<event>
      5   9999  3.19816E-02  1.16825E+02 -1.00000E+00  1.20865E-01
      21    -1     0     0   502   512  0.000000000E+00  0.000000000E+00  1.177908732E+02  1.177908732E+02  0.000000000E+00  0.00000E+00  9.000E+00
      21    -1     0     0   501   502  0.000000000E+00  0.000000000E+00 -1.573900552E+03  1.573900552E+03  0.000000000E+00  0.00000E+00  9.000E+00
      25     1     1     2     0     0  4.920217259E-01  3.337188856E+02 -1.051409558E+03  1.110160166E+03  1.250000000E+02  0.00000E+00  9.000E+00
      25     1     1     2     0     0 -3.282055492E+01 -2.214564640E+02 -3.857294796E+02  4.631764088E+02  1.250000000E+02  0.00000E+00  9.000E+00
      21     1     1     2   501   512  3.232853319E+01 -1.122624216E+02 -1.897064180E+01  1.183548504E+02  3.405298437E-06  0.00000E+00  9.000E+00
#rwgt            2          11   4.6044760051755515E-003           9       56594           0
</event>
<event>
      5   9999  3.19816E-02  7.80958E+01 -1.00000E+00  1.28858E-01
      21    -1     0     0   502   501  0.000000000E+00  0.000000000E+00  1.187559295E+03  1.187559295E+03  0.000000000E+00  0.00000E+00  9.000E+00
      21    -1     0     0   511   502  0.000000000E+00  0.000000000E+00 -7.436109454E+02  7.436109454E+02  0.000000000E+00  0.00000E+00  9.000E+00
      25     1     1     2     0     0 -2.052087776E+02 -1.945076644E+02  1.122335398E+03  1.164132990E+03  1.250000000E+02  0.00000E+00  9.000E+00
      25     1     1     2     0     0  1.454294619E+02  1.442544869E+02 -6.324228524E+02  6.764190637E+02  1.250000000E+02  0.00000E+00  9.000E+00
      21     1     1     2   511   501  5.977931564E+01  5.025317746E+01 -4.596419581E+01  9.061818647E+01  9.536743164E-07  0.00000E+00  9.000E+00
#rwgt            1           1   3.1389515730362659E-002           9       56629           0
</event>
<event>
      5   9999  3.19816E-02  8.97179E+01 -1.00000E+00  1.25985E-01
      21    -1     0     0   502   501  0.000000000E+00  0.000000000E+00  2.161090450E+02  2.161090450E+02  0.000000000E+00  0.00000E+00  9.000E+00
      21    -1     0     0   501   512  0.000000000E+00  0.000000000E+00 -2.314148501E+02  2.314148501E+02  0.000000000E+00  0.00000E+00  9.000E+00
      25     1     1     2     0     0 -9.379956192E+01 -9.523271332E+01  8.618061097E+01  2.022862457E+02  1.250000000E+02  0.00000E+00  9.000E+00
      25     1     1     2     0     0  4.106725292E+01  2.264749916E+01 -5.882023988E+01  1.458912235E+02  1.250000000E+02  0.00000E+00  9.000E+00
      21     1     1     2   502   512  5.273230900E+01  7.258521417E+01 -4.266617626E+01  9.934642583E+01  6.743495762E-07  0.00000E+00  9.000E+00
#rwgt            1           1   3.3002122895684820E-002           9       56739           0
</event>
<event>
      5   9999  3.19816E-02  1.07558E+02 -1.00000E+00  1.22421E-01
      21    -1     0     0   502   501  0.000000000E+00  0.000000000E+00  1.621321524E+03  1.621321524E+03  0.000000000E+00  0.00000E+00  9.000E+00
       2    -1     0     0   501     0  0.000000000E+00  0.000000000E+00 -2.888019981E+03  2.888019981E+03  0.000000000E+00  0.00000E+00  9.000E+00
      25     1     1     2     0     0 -4.538259888E+02  2.733029779E+02  1.298222181E+03  1.407713883E+03  1.250000000E+02  0.00000E+00  9.000E+00
      25     1     1     2     0     0  4.088263951E+02 -1.756106330E+02  6.744334454E+01  4.670671477E+02  1.250000000E+02  0.00000E+00  9.000E+00
       2     1     1     2   502     0  4.499959373E+01 -9.769234490E+01 -2.632363983E+03  2.634560475E+03  0.000000000E+00  0.00000E+00  9.000E+00
#rwgt            1           1   3.0452576565979699E-002           9       56828           0
</event>
<event>
      5   9999  3.19816E-02  4.69850E+01 -1.00000E+00  1.40634E-01
      21    -1     0     0   502   501  0.000000000E+00  0.000000000E+00  2.028620473E+02  2.028620473E+02  0.000000000E+00  0.00000E+00  9.000E+00
      21    -1     0     0   511   502  0.000000000E+00  0.000000000E+00 -1.559078328E+03  1.559078328E+03  0.000000000E+00  0.00000E+00  9.000E+00
      25     1     1     2     0     0 -1.558399828E+02  3.452898777E+02 -1.311281504E+02  4.199176011E+02  1.250000000E+02  0.00000E+00  9.000E+00
      25     1     1     2     0     0  1.538742978E+02 -3.922337249E+02 -7.868008624E+02  9.012242737E+02  1.250000000E+02  0.00000E+00  9.000E+00
      21     1     1     2   511   501  1.965684970E+00  4.694384720E+01 -4.382872681E+02  4.407985005E+02  5.394796609E-06  0.00000E+00  9.000E+00
#rwgt            1           1   2.3668699213882528E-002           9       56915           0
</event>
<event>
      5   9999  3.19816E-02  2.07146E+02 -1.00000E+00  1.11096E-01
      21    -1     0     0   502   512  0.000000000E+00  0.000000000E+00  2.638392404E+03  2.638392404E+03  0.000000000E+00  0.00000E+00  9.000E+00
      21    -1     0     0   501   502  0.000000000E+00  0.000000000E+00 -2.226141200E+02  2.226141200E+02  0.000000000E+00  0.00000E+00  9.000E+00
      25     1     1     2     0     0  4.741230415E+02 -5.307544675E+02  1.079917333E+03  1.299361154E+03  1.250000000E+02  0.00000E+00  9.000E+00
      25     1     1     2     0     0 -4.396420806E+02  3.264981243E+02  7.283234662E+02  9.197642392E+02  1.250000000E+02  0.00000E+00  9.000E+00
      21     1     1     2   501   512 -3.448096091E+01  2.042563432E+02  6.075374848E+02  6.418811307E+02  1.078959322E-05  0.00000E+00  9.000E+00
#rwgt            2          11   2.4911309575971013E-003           9       57065           0
</event>
<event>
      5   9999  3.19816E-02  3.58924E+01 -1.00000E+00  1.47820E-01
      21    -1     0     0   502   501  0.000000000E+00  0.000000000E+00  5.884262095E+01  5.884262095E+01  0.000000000E+00  0.00000E+00  9.000E+00
       2    -1     0     0   501     0  0.000000000E+00  0.000000000E+00 -1.829245172E+03  1.829245172E+03  0.000000000E+00  0.00000E+00  9.000E+00
      25     1     1     2     0     0 -6.442244189E+01  6.799074724E+01 -7.913786031E+02  8.066461964E+02  1.250000000E+02  0.00000E+00  9.000E+00
      25     1     1     2     0     0  5.695757491E+01 -3.288323030E+01 -4.719589692E+01  1.489225465E+02  1.250000000E+02  0.00000E+00  9.000E+00
       2     1     1     2   502     0  7.464866979E+00 -3.510751694E+01 -9.318280508E+02  9.325190498E+02  0.000000000E+00  0.00000E+00  9.000E+00
#rwgt            1           1   3.2950323446621549E-002           9       57085           0
</event>
<event>
      5   9999  3.19816E-02  3.54493E+01 -1.00000E+00  1.48170E-01
      21    -1     0     0   502   501  0.000000000E+00  0.000000000E+00  1.181183726E+03  1.181183726E+03  0.000000000E+00  0.00000E+00  9.000E+00
      21    -1     0     0   511   502  0.000000000E+00  0.000000000E+00 -3.347901814E+02  3.347901814E+02  0.000000000E+00  0.00000E+00  9.000E+00
      25     1     1     2     0     0  1.598572224E+02  4.971352052E+02  8.795936420E+01  5.441135852E+02  1.250000000E+02  0.00000E+00  9.000E+00
      25     1     1     2     0     0 -1.281943017E+02 -5.130761619E+02  7.623374765E+02  9.361967502E+02  1.250000000E+02  0.00000E+00  9.000E+00
      21     1     1     2   511   501 -3.166292071E+01  1.594095673E+01 -3.903296228E+00  3.566357204E+01  1.149612756E-06  0.00000E+00  9.000E+00
#rwgt            1           1   3.0507191661715734E-002           9       57213           0
</event>
<event>
      5   9999  3.19816E-02  1.82151E+02 -1.00000E+00  1.13146E-01
       2    -1     0     0   502     0  0.000000000E+00  0.000000000E+00  1.011611930E+03  1.011611930E+03  0.000000000E+00  0.00000E+00  9.000E+00
      21    -1     0     0   501   502  0.000000000E+00  0.000000000E+00 -5.547978322E+02  5.547978322E+02  0.000000000E+00  0.00000E+00  9.000E+00
      25     1     1     2     0     0  5.988458935E+02  2.191452231E+02  1.493275788E+02  6.667568963E+02  1.250000000E+02  0.00000E+00  9.000E+00
      25     1     1     2     0     0 -4.509294863E+02 -1.128448976E+02 -6.431816432E+01  4.856266043E+02  1.250000000E+02  0.00000E+00  9.000E+00
       2     1     1     2   501     0 -1.479164072E+02 -1.063003255E+02  3.718046832E+02  4.140262614E+02  5.394796609E-06  0.00000E+00  9.000E+00
#rwgt            1           1   3.0783722631767322E-002           9       57330           0
</event>
<event>
      5   9999  3.19816E-02  2.42176E+01 -1.00000E+00  1.59792E-01
       1    -1     0     0   502     0  0.000000000E+00  0.000000000E+00  1.796568925E+03  1.796568925E+03  0.000000000E+00  0.00000E+00  9.000E+00
      21    -1     0     0   501   502  0.000000000E+00  0.000000000E+00 -1.327056372E+02  1.327056372E+02  0.000000000E+00  0.00000E+00  9.000E+00
      25     1     1     2     0     0  3.849370238E+02  2.083207520E+02  1.112273696E+03  1.201811891E+03  1.250000000E+02  0.00000E+00  9.000E+00
      25     1     1     2     0     0 -3.707382127E+02 -1.887022128E+02  4.597986545E+02  6.325307504E+02  1.250000000E+02  0.00000E+00  9.000E+00
       1     1     1     2   501     0 -1.419881110E+01 -1.961853917E+01  9.179093794E+01  9.493192089E+01  0.000000000E+00  0.00000E+00  9.000E+00
#rwgt            2          17   1.5570124763557229E-004           9       57369           0
</event>
<event>
      5   9999  3.19816E-02  4.23339E+01 -1.00000E+00  1.43329E-01
      21    -1     0     0   511   501  0.000000000E+00  0.000000000E+00  4.194287285E+02  4.194287285E+02  0.000000000E+00  0.00000E+00  9.000E+00
      21    -1     0     0   501   502  0.000000000E+00  0.000000000E+00 -2.884709531E+02  2.884709531E+02  0.000000000E+00  0.00000E+00  9.000E+00
      25     1     1     2     0     0 -2.120698211E+02 -8.677940401E+01 -1.476870094E+02  2.999011949E+02  1.250000000E+02  0.00000E+00  9.000E+00
      25     1     1     2     0     0  2.165359294E+02  4.468177761E+01  2.530450578E+02  3.585262491E+02  1.250000000E+02  0.00000E+00  9.000E+00
      21     1     1     2   511   502 -4.466108360E+00  4.209762640E+01  2.559972691E+01  4.947223757E+01  6.743495762E-07  0.00000E+00  9.000E+00
#rwgt            1           1   2.8341332819284880E-002           9       57388           0
</event>
<event>
      5   9999  3.19816E-02  2.33358E+01 -1.00000E+00  1.61025E-01
      21    -1     0     0   502   501  0.000000000E+00  0.000000000E+00  8.222986168E+01  8.222986168E+01  0.000000000E+00  0.00000E+00  9.000E+00
      21    -1     0     0   501   512  0.000000000E+00  0.000000000E+00 -5.784120700E+02  5.784120700E+02  0.000000000E+00  0.00000E+00  9.000E+00
      25     1     1     2     0     0  1.369111862E+02 -8.749894349E+01 -2.368126564E+02  3.132187291E+02  1.250000000E+02  0.00000E+00  9.000E+00
      25     1     1     2     0     0 -1.136671775E+02  8.956710758E+01 -1.727032275E+02  2.576701356E+02  1.250000000E+02  0.00000E+00  9.000E+00
      21     1     1     2   502   512 -2.324400873E+01 -2.068164090E+00 -8.666632435E+01  8.975306692E+01  0.000000000E+00  0.00000E+00  9.000E+00
#rwgt            1           1   3.3042474115575524E-002           9       57471           0
</event>
<event>
      5   9999  3.19816E-02  1.00699E+02 -1.00000E+00  1.23692E-01
      21    -1     0     0   502   511  0.000000000E+00  0.000000000E+00  1.120496368E+02  1.120496368E+02  0.000000000E+00  0.00000E+00  9.000E+00
      21    -1     0     0   501   502  0.000000000E+00  0.000000000E+00 -6.447304500E+02  6.447304500E+02  0.000000000E+00  0.00000E+00  9.000E+00
      25     1     1     2     0     0 -8.301450587E+01  1.240680941E+02 -2.027316476E+02  2.810861453E+02  1.250000000E+02  0.00000E+00  9.000E+00
      25     1     1     2     0     0  8.524881760E+01 -2.339346444E+01 -3.415835645E+02  3.743246540E+02  1.250000000E+02  0.00000E+00  9.000E+00
      21     1     1     2   501   511 -2.234311730E+00 -1.006746296E+02  1.163439894E+01  1.013692875E+02  1.590450295E-06  0.00000E+00  9.000E+00
#rwgt            1           1   2.7707992409806141E-002           9       57637           0
</event>
<event>
      5   9999  3.19816E-02  1.04759E+02 -1.00000E+00  1.22926E-01
      21    -1     0     0   502   501  0.000000000E+00  0.000000000E+00  7.153405055E+01  7.153405055E+01  0.000000000E+00  0.00000E+00  9.000E+00
       1    -1     0     0   501     0  0.000000000E+00  0.000000000E+00 -1.365897317E+03  1.365897317E+03  0.000000000E+00  0.00000E+00  9.000E+00
      25     1     1     2     0     0  1.055124445E+02 -7.160331881E+01 -1.316475056E+02  2.218467420E+02  1.250000000E+02  0.00000E+00  9.000E+00
      25     1     1     2     0     0 -3.704212083E+01 -7.683027650E+00 -1.062875687E+03  1.070869214E+03  1.250000000E+02  0.00000E+00  9.000E+00
       1     1     1     2   502     0 -6.847032364E+01  7.928634646E+01 -9.984007364E+01  1.447154113E+02  2.697398305E-06  0.00000E+00  9.000E+00
#rwgt            1           1   3.4835093560062064E-002           9       57675           0
</event>
<event>
      5   9999  3.19816E-02  1.23299E+02 -1.00000E+00  1.19870E-01
       2    -1     0     0   502     0  0.000000000E+00  0.000000000E+00  4.141757327E+02  4.141757327E+02  0.000000000E+00  0.00000E+00  9.000E+00
      21    -1     0     0   501   502  0.000000000E+00  0.000000000E+00 -1.532622339E+03  1.532622339E+03  0.000000000E+00  0.00000E+00  9.000E+00
      25     1     1     2     0     0  5.272713770E+01  2.549365381E+02 -1.390668536E+03  1.420336849E+03  1.250000000E+02  0.00000E+00  9.000E+00
      25     1     1     2     0     0  2.969968261E+00 -1.449338332E+02 -3.574954539E+01  1.947245920E+02  1.250000000E+02  0.00000E+00  9.000E+00
       2     1     1     2   501     0 -5.569710596E+01 -1.100027049E+02  3.079714748E+02  3.317366304E+02  5.394796609E-06  0.00000E+00  9.000E+00
#rwgt            1           1   2.5391001749352882E-002           9       57738           0
</event>
<event>
      5   9999  3.19816E-02  1.43980E+02 -1.00000E+00  1.17103E-01
      21    -1     0     0   502   501  0.000000000E+00  0.000000000E+00  9.045507746E+02  9.045507746E+02  0.000000000E+00  0.00000E+00  9.000E+00
       2    -1     0     0   501     0  0.000000000E+00  0.000000000E+00 -1.227762462E+03  1.227762462E+03  0.000000000E+00  0.00000E+00  9.000E+00
      25     1     1     2     0     0 -2.381542927E+02 -3.044980857E+01  8.410976870E+02  8.835807699E+02  1.250000000E+02  0.00000E+00  9.000E+00
      25     1     1     2     0     0  1.010872984E+02  7.452801159E+01 -1.751515237E+02  2.491508031E+02  1.250000000E+02  0.00000E+00  9.000E+00
       2     1     1     2   502     0  1.370669942E+02 -4.407820302E+01 -9.891578505E+02  9.995816635E+02  1.078959322E-05  0.00000E+00  9.000E+00
#rwgt            1           1   2.8499547078272583E-002           9       57807           0
</event>
<event>
      5   9999  3.19816E-02  4.65452E+01 -1.00000E+00  1.40873E-01
       2    -1     0     0   502     0  0.000000000E+00  0.000000000E+00  2.426238931E+03  2.426238931E+03  0.000000000E+00  0.00000E+00  9.000E+00
      21    -1     0     0   501   502  0.000000000E+00  0.000000000E+00 -6.380352951E+01  6.380352951E+01  0.000000000E+00  0.00000E+00  9.000E+00
      25     1     1     2     0     0 -1.309753958E+02 -1.382671132E+02  2.344168619E+02  3.268770626E+02  1.250000000E+02  0.00000E+00  9.000E+00
      25     1     1     2     0     0  1.115486723E+02  1.805643770E+02  8.675982153E+02  9.018859483E+02  1.250000000E+02  0.00000E+00  9.000E+00
       2     1     1     2   501     0  1.942672351E+01 -4.229726385E+01  1.260420325E+03  1.261279450E+03  1.525878906E-05  0.00000E+00  9.000E+00
#rwgt            1           1   2.8960160546653409E-002           9       57876           0
</event>
<event>
      5   9999  3.19816E-02  9.04947E+01 -1.00000E+00  1.25811E-01
      21    -1     0     0   502   501  0.000000000E+00  0.000000000E+00  2.857990939E+02  2.857990939E+02  0.000000000E+00  0.00000E+00  9.000E+00
      21    -1     0     0   511   502  0.000000000E+00  0.000000000E+00 -1.110163507E+03  1.110163507E+03  0.000000000E+00  0.00000E+00  9.000E+00
      25     1     1     2     0     0  2.172972879E+02  5.489121830E+01 -3.012131832E+02  3.957089068E+02  1.250000000E+02  0.00000E+00  9.000E+00
      25     1     1     2     0     0 -1.440918284E+02 -1.080912615E+02  1.846765149E+02  2.866645966E+02  1.250000000E+02  0.00000E+00  9.000E+00
      21     1     1     2   511   501 -7.320545954E+01  5.320004320E+01 -7.078277443E+02  7.135890972E+02  1.525878906E-05  0.00000E+00  9.000E+00
#rwgt            1           1   2.3782086061221987E-002           9       57975           0
</event>
<event>
      5   9999  3.19816E-02  4.13451E+01 -1.00000E+00  1.43955E-01
      21    -1     0     0   502   501  0.000000000E+00  0.000000000E+00  3.596194983E+02  3.596194983E+02  0.000000000E+00  0.00000E+00  9.000E+00
      21    -1     0     0   512   502  0.000000000E+00  0.000000000E+00 -1.078210414E+03  1.078210414E+03  0.000000000E+00  0.00000E+00  9.000E+00
      25     1     1     2     0     0  2.173125427E+02  6.153783570E+01  2.626816622E+02  3.682910562E+02  1.250000000E+02  0.00000E+00  9.000E+00
      25     1     1     2     0     0 -2.097638929E+02 -2.088765329E+01 -3.016410486E+02  3.886508806E+02  1.250000000E+02  0.00000E+00  9.000E+00
      21     1     1     2   512   501 -7.548649739E+00 -4.065018241E+01 -6.796315292E+02  6.808879753E+02  7.629394531E-06  0.00000E+00  9.000E+00
#rwgt            1           1   2.5267879812905205E-002           9       58057           0
</event>
<event>
      5   9999  3.19816E-02  5.06594E+01 -1.00000E+00  1.38752E-01
      21    -1     0     0   502   511  0.000000000E+00  0.000000000E+00  9.218708600E+02  9.218708600E+02  0.000000000E+00  0.00000E+00  9.000E+00
      21    -1     0     0   501   502  0.000000000E+00  0.000000000E+00 -3.092338382E+02  3.092338382E+02  0.000000000E+00  0.00000E+00  9.000E+00
      25     1     1     2     0     0  3.776135409E+02 -1.801112547E+02  3.740481172E+01  4.382421365E+02  1.250000000E+02  0.00000E+00  9.000E+00
      25     1     1     2     0     0 -4.279212521E+02  1.860703838E+02  4.603094287E+02  6.672694777E+02  1.250000000E+02  0.00000E+00  9.000E+00
      21     1     1     2   501   511  5.030771124E+01 -5.959129169E+00  1.149227815E+02  1.255930840E+02  1.907348633E-06  0.00000E+00  9.000E+00
#rwgt            2          11   2.9482659763211318E-003           9       58218           0
</event>
<event>
      5   9999  3.19816E-02  3.25239E+01 -1.00000E+00  1.50642E-01
      21    -1     0     0   502   501  0.000000000E+00  0.000000000E+00  1.653683552E+02  1.653683552E+02  0.000000000E+00  0.00000E+00  9.000E+00
       2    -1     0     0   501     0  0.000000000E+00  0.000000000E+00 -2.249394821E+03  2.249394821E+03  0.000000000E+00  0.00000E+00  9.000E+00
      25     1     1     2     0     0 -1.641902116E+02 -3.893279107E+02 -3.763197354E+02  5.794619840E+02  1.250000000E+02  0.00000E+00  9.000E+00
      25     1     1     2     0     0  1.377881344E+02  4.083209882E+02 -7.287977802E+02  8.558520922E+02  1.250000000E+02  0.00000E+00  9.000E+00
       2     1     1     2   502     0  2.640207714E+01 -1.899307751E+01 -9.789089505E+02  9.794491003E+02  0.000000000E+00  0.00000E+00  9.000E+00
#rwgt            1           1   3.6444081563948197E-002           9       58238           0
</event>
<event>
      5   9999  3.19816E-02  2.89446E+02 -1.00000E+00  1.06100E-01
      21    -1     0     0   502   501  0.000000000E+00  0.000000000E+00  2.246835078E+03  2.246835078E+03  0.000000000E+00  0.00000E+00  9.000E+00
      21    -1     0     0   501   511  0.000000000E+00  0.000000000E+00 -7.624838889E+02  7.624838889E+02  0.000000000E+00  0.00000E+00  9.000E+00
      25     1     1     2     0     0  2.299176836E+02  2.182435032E+01 -4.512618775E+02  5.221117941E+02  1.250000000E+02  0.00000E+00  9.000E+00
      25     1     1     2     0     0 -5.005376899E+02 -1.245061143E+02  2.091962287E+03  2.158233296E+03  1.250000000E+02  0.00000E+00  9.000E+00
      21     1     1     2   502   511  2.706200063E+02  1.026817640E+02 -1.563492205E+02  3.289738762E+02  4.264961200E-06  0.00000E+00  9.000E+00
#rwgt            2          11   5.7433201737994138E-003           9       58396           0
</event>
<event>
      5   9999  3.19816E-02  1.05032E+02 -1.00000E+00  1.22876E-01
      21    -1     0     0   512   501  0.000000000E+00  0.000000000E+00  6.860133223E+02  6.860133223E+02  0.000000000E+00  0.00000E+00  9.000E+00
      21    -1     0     0   501   502  0.000000000E+00  0.000000000E+00 -1.350836618E+03  1.350836618E+03  0.000000000E+00  0.00000E+00  9.000E+00
      25     1     1     2     0     0 -5.833114001E+02  5.587333044E+02 -6.527020541E+02  1.045982823E+03  1.250000000E+02  0.00000E+00  9.000E+00
      25     1     1     2     0     0  4.810001945E+02 -5.349800521E+02 -2.160406974E+02  7.614876402E+02  1.250000000E+02  0.00000E+00  9.000E+00
      21     1     1     2   512   502  1.023112056E+02 -2.375325231E+01  2.039194561E+02  2.293794767E+02  4.672030912E-06  0.00000E+00  9.000E+00
#rwgt            1           1   3.1979323715031073E-002           9       58416           0
</event>
<event>
      5   9999  3.19816E-02  5.69253E+02 -1.00000E+00  9.72775E-02
      21    -1     0     0   502   501  0.000000000E+00  0.000000000E+00  7.170814228E+02  7.170814228E+02  0.000000000E+00  0.00000E+00  9.000E+00
       1    -1     0     0   501     0  0.000000000E+00  0.000000000E+00 -1.515013929E+03  1.515013929E+03  0.000000000E+00  0.00000E+00  9.000E+00
      25     1     1     2     0     0 -6.113211057E+02  6.758406643E+01 -4.902003997E+02  7.963683395E+02  1.250000000E+02  0.00000E+00  9.000E+00
      25     1     1     2     0     0  2.856242641E+02  3.992896638E+02  3.114173439E+02  5.946589089E+02  1.250000000E+02  0.00000E+00  9.000E+00
       1     1     1     2   502     0  3.256968416E+02 -4.668737302E+02 -6.191494505E+02  8.410681034E+02  0.000000000E+00  0.00000E+00  9.000E+00
#rwgt            2          12   4.3358074458236840E-004           9       58808           0
</event>
<event>
      5   9999  3.19816E-02  1.92033E+02 -1.00000E+00  1.12295E-01
      21    -1     0     0   502   501  0.000000000E+00  0.000000000E+00  6.727533407E+02  6.727533407E+02  0.000000000E+00  0.00000E+00  9.000E+00
      21    -1     0     0   511   502  0.000000000E+00  0.000000000E+00 -2.692251848E+02  2.692251848E+02  0.000000000E+00  0.00000E+00  9.000E+00
      25     1     1     2     0     0  1.711820290E+02  1.616117849E+02  4.674538943E+02  5.381076095E+02  1.250000000E+02  0.00000E+00  9.000E+00
      25     1     1     2     0     0 -4.547215204E+01 -1.644459152E+01  8.686165198E+01  1.597125161E+02  1.250000000E+02  0.00000E+00  9.000E+00
      21     1     1     2   511   501 -1.257098770E+02 -1.451671934E+02 -1.507873903E+02  2.441584000E+02  3.303624740E-06  0.00000E+00  9.000E+00
#rwgt            2          11   5.7722505193057256E-003           9       58857           0
</event>
<event>
      5   9999  3.19816E-02  2.12995E+01 -1.00000E+00  1.64144E-01
      21    -1     0     0   502   501  0.000000000E+00  0.000000000E+00  4.020657399E+02  4.020657399E+02  0.000000000E+00  0.00000E+00  9.000E+00
      21    -1     0     0   501   512  0.000000000E+00  0.000000000E+00 -4.723806215E+02  4.723806215E+02  0.000000000E+00  0.00000E+00  9.000E+00
      25     1     1     2     0     0  3.403568623E+02  1.501754344E+02 -2.268094254E+01  3.931092469E+02  1.250000000E+02  0.00000E+00  9.000E+00
      25     1     1     2     0     0 -3.542516700E+02 -1.663186336E+02  1.911295849E+01  4.112741650E+02  1.250000000E+02  0.00000E+00  9.000E+00
      21     1     1     2   502   512  1.389480768E+01  1.614319924E+01 -6.674689755E+01  7.006294951E+01  9.536743164E-07  0.00000E+00  9.000E+00
#rwgt            1           1   2.9948184325579642E-002           9       58877           0
</event>
<event>
      5   9999  3.19816E-02  3.84148E+01 -1.00000E+00  1.45938E-01
      21    -1     0     0   502   501  0.000000000E+00  0.000000000E+00  2.501090362E+02  2.501090362E+02  0.000000000E+00  0.00000E+00  9.000E+00
      21    -1     0     0   511   502  0.000000000E+00  0.000000000E+00 -3.466653135E+02  3.466653135E+02  0.000000000E+00  0.00000E+00  9.000E+00
      25     1     1     2     0     0  2.322774928E+02 -8.219843395E+01  3.623740803E+01  2.786531283E+02  1.250000000E+02  0.00000E+00  9.000E+00
      25     1     1     2     0     0 -1.943878839E+02  8.852880949E+01 -9.764184146E+01  2.660506131E+02  1.250000000E+02  0.00000E+00  9.000E+00
      21     1     1     2   511   501 -3.788960888E+01 -6.330375534E+00 -3.515184389E+01  5.207060826E+01  0.000000000E+00  0.00000E+00  9.000E+00
#rwgt            1           1   2.5994319647051796E-002           9       59037           0
</event>
<event>
      5   9999  3.19816E-02  7.06402E+01 -1.00000E+00  1.31021E-01
      21    -1     0     0   502   501  0.000000000E+00  0.000000000E+00  1.442764979E+03  1.442764979E+03  0.000000000E+00  0.00000E+00  9.000E+00
      21    -1     0     0   512   502  0.000000000E+00  0.000000000E+00 -3.519230726E+03  3.519230726E+03  0.000000000E+00  0.00000E+00  9.000E+00
      25     1     1     2     0     0 -2.142120705E+03  5.395770459E+02 -9.266551859E+02  2.398778718E+03  1.250000000E+02  0.00000E+00  9.000E+00
      25     1     1     2     0     0  2.163977362E+03 -4.724032608E+02 -1.096085807E+03  2.474468016E+03  1.250000000E+02  0.00000E+00  9.000E+00
      21     1     1     2   512   501 -2.185665699E+01 -6.717378503E+01 -5.372475335E+01  8.874897167E+01  6.743495762E-07  0.00000E+00  9.000E+00
#rwgt            1           1   9.7017283223274769E-003           9       59161           0
</event>
<event>
      5   9999  3.19816E-02  6.04508E+01 -1.00000E+00  1.34530E-01
      21    -1     0     0   502   501  0.000000000E+00  0.000000000E+00  4.303204263E+02  4.303204263E+02  0.000000000E+00  0.00000E+00  9.000E+00
      21    -1     0     0   501   511  0.000000000E+00  0.000000000E+00 -1.975532720E+02  1.975532720E+02  0.000000000E+00  0.00000E+00  9.000E+00
      25     1     1     2     0     0  1.698366091E+01  8.596682018E+01  3.403823181E+02  3.730467282E+02  1.250000000E+02  0.00000E+00  9.000E+00
      25     1     1     2     0     0 -7.732768114E+01 -8.237520191E+01 -9.370079825E+01  1.927954454E+02  1.250000000E+02  0.00000E+00  9.000E+00
      21     1     1     2   502   511  6.034402023E+01 -3.591618267E+00 -1.391436555E+01  6.203152479E+01  1.685873940E-07  0.00000E+00  9.000E+00
#rwgt            1           1   2.9779860519951736E-002           9       59275           0
</event>
<event>
      5   9999  3.19816E-02  5.08394E+01 -1.00000E+00  1.38664E-01
       2    -1     0     0   502     0  0.000000000E+00  0.000000000E+00  3.742572505E+02  3.742572505E+02  0.000000000E+00  0.00000E+00  9.000E+00
      21    -1     0     0   501   502  0.000000000E+00  0.000000000E+00 -1.423191714E+03  1.423191714E+03  0.000000000E+00  0.00000E+00  9.000E+00
      25     1     1     2     0     0 -6.441592743E+01 -4.222470279E+01 -1.030198438E+03  1.040608552E+03  1.250000000E+02  0.00000E+00  9.000E+00
      25     1     1     2     0     0  3.190296973E+01  8.130865793E+01 -3.709005867E+02  4.010251146E+02  1.250000000E+02  0.00000E+00  9.000E+00
       2     1     1     2   501     0  3.251295770E+01 -3.908395514E+01  3.521645611E+02  3.558152977E+02  1.009274029E-05  0.00000E+00  9.000E+00
#rwgt            1           1   3.3993029980322748E-002           9       59357           0
</event>
<event>
      5   9999  3.19816E-02  7.78096E+01 -1.00000E+00  1.28936E-01
      21    -1     0     0   502   511  0.000000000E+00  0.000000000E+00  4.317053715E+02  4.317053715E+02  0.000000000E+00  0.00000E+00  9.000E+00
      21    -1     0     0   501   502  0.000000000E+00  0.000000000E+00 -3.572101706E+02  3.572101706E+02  0.000000000E+00  0.00000E+00  9.000E+00
      25     1     1     2     0     0 -1.147910463E+02 -7.262033331E+01  5.853839256E+01  1.936554686E+02  1.250000000E+02  0.00000E+00  9.000E+00
      25     1     1     2     0     0  9.196843471E+01 -1.766930461E+00 -2.631520533E+02  3.055082948E+02  1.250000000E+02  0.00000E+00  9.000E+00
      21     1     1     2   501   511  2.282261158E+01  7.438726378E+01  2.791088616E+02  2.897517787E+02  5.394796609E-06  0.00000E+00  9.000E+00
#rwgt            1           1   2.6619716706531800E-002           9       59431           0
</event>
<event>
      5   9999  3.19816E-02  1.37481E+03 -1.00000E+00  8.77912E-02
      21    -1     0     0   512   501  0.000000000E+00  0.000000000E+00  7.818994228E+02  7.818994228E+02  0.000000000E+00  0.00000E+00  9.000E+00
      21    -1     0     0   501   502  0.000000000E+00  0.000000000E+00 -2.988180020E+03  2.988180020E+03  0.000000000E+00  0.00000E+00  9.000E+00
      25     1     1     2     0     0  3.433814956E+02  4.303053047E+02 -7.616387162E+02  9.480464339E+02  1.250000000E+02  0.00000E+00  9.000E+00
      25     1     1     2     0     0 -4.435820360E+02  9.408467055E+02 -6.782346339E+02  1.248032357E+03  1.250000000E+02  0.00000E+00  9.000E+00
      21     1     1     2   512   502  1.002005404E+02 -1.371152010E+03 -7.664072471E+02  1.574000652E+03  1.078959322E-05  0.00000E+00  9.000E+00
#rwgt            2          11   3.5818685511515612E-004           9       59489           0
</event>
<event>
      5   9999  3.19816E-02  9.90354E+00 -1.00000E+00  1.96245E-01
      21    -1     0     0   502   501  0.000000000E+00  0.000000000E+00  2.082601541E+03  2.082601541E+03  0.000000000E+00  0.00000E+00  9.000E+00
      21    -1     0     0   511   502  0.000000000E+00  0.000000000E+00 -9.188823031E+01  9.188823031E+01  0.000000000E+00  0.00000E+00  9.000E+00
      25     1     1     2     0     0 -1.952093778E+02 -3.334510379E+02  6.603813184E+02  7.752578807E+02  1.250000000E+02  0.00000E+00  9.000E+00
      25     1     1     2     0     0  1.985125038E+02  3.427875013E+02  1.323626908E+03  1.387272027E+03  1.250000000E+02  0.00000E+00  9.000E+00
      21     1     1     2   511   501 -3.303125989E+00 -9.336463424E+00  6.705084951E+00  1.195986433E+01  2.230201594E-07  0.00000E+00  9.000E+00
#rwgt            1           1   3.4345241992542665E-002           9       59509           0
</event>
<event>
      5   9999  3.19816E-02  8.04550E+01 -1.00000E+00  1.28230E-01
      21    -1     0     0   502   512  0.000000000E+00  0.000000000E+00  9.324724970E+01  9.324724970E+01  0.000000000E+00  0.00000E+00  9.000E+00
      21    -1     0     0   501   502  0.000000000E+00  0.000000000E+00 -6.449388677E+02  6.449388677E+02  0.000000000E+00  0.00000E+00  9.000E+00
      25     1     1     2     0     0 -1.785815694E+02  2.603659563E+01 -3.219038725E+02  3.896362206E+02  1.250000000E+02  0.00000E+00  9.000E+00
      25     1     1     2     0     0  1.026897808E+02 -5.274705838E+01 -2.004068660E+02  2.628979938E+02  1.250000000E+02  0.00000E+00  9.000E+00
      21     1     1     2   501   512  7.589178865E+01  2.671046274E+01 -2.938087957E+01  8.565190301E+01  1.719260824E-06  0.00000E+00  9.000E+00
#rwgt            2          11   2.7311611455540130E-003           9       59827           0
</event>
<event>
      5   9999  3.19816E-02  1.16036E+02 -1.00000E+00  1.20991E-01
      21    -1     0     0   511   501  0.000000000E+00  0.000000000E+00  1.103841549E+02  1.103841549E+02  0.000000000E+00  0.00000E+00  9.000E+00
      21    -1     0     0   501   502  0.000000000E+00  0.000000000E+00 -1.182249220E+03  1.182249220E+03  0.000000000E+00  0.00000E+00  9.000E+00
      25     1     1     2     0     0  1.831830299E+01  6.321335693E+01 -7.578680356E+02  7.709218171E+02  1.250000000E+02  0.00000E+00  9.000E+00
      25     1     1     2     0     0  9.034375862E+01 -1.039171070E+02 -3.532526045E+02  3.992156841E+02  1.250000000E+02  0.00000E+00  9.000E+00
      21     1     1     2   511   502 -1.086620616E+02  4.070375007E+01  3.925557496E+01  1.224958737E+02  3.371747881E-06  0.00000E+00  9.000E+00
#rwgt            1           1   2.9398278768993660E-002           9       59862           0
</event>
<event>
      5   9999  3.19816E-02  2.68866E+01 -1.00000E+00  1.56420E-01
      21    -1     0     0   502   501  0.000000000E+00  0.000000000E+00  1.227228923E+03  1.227228923E+03  0.000000000E+00  0.00000E+00  9.000E+00
      21    -1     0     0   512   502  0.000000000E+00  0.000000000E+00 -6.354246091E+01  6.354246091E+01  0.000000000E+00  0.00000E+00  9.000E+00
      25     1     1     2     0     0 -3.120482604E+01  7.562571573E+01  8.539098877E+01  1.720744345E+02  1.250000000E+02  0.00000E+00  9.000E+00
      25     1     1     2     0     0  2.280813191E+01 -5.008384716E+01  1.082848328E+03  1.091427553E+03  1.250000000E+02  0.00000E+00  9.000E+00
      21     1     1     2   512   501  8.396694135E+00 -2.554186857E+01 -4.552853988E+00  2.726939680E+01  6.364034565E-07  0.00000E+00  9.000E+00
#rwgt            1           1   3.5775080061508105E-002           9       59923           0
</event>
<event>
      5   9999  3.19816E-02  1.99101E+01 -1.00000E+00  1.66531E-01
      21    -1     0     0   502   511  0.000000000E+00  0.000000000E+00  2.889206268E+02  2.889206268E+02  0.000000000E+00  0.00000E+00  9.000E+00
      21    -1     0     0   501   502  0.000000000E+00  0.000000000E+00 -1.147964831E+02  1.147964831E+02  0.000000000E+00  0.00000E+00  9.000E+00
      25     1     1     2     0     0  8.822224078E+01  4.691500959E+01  1.640172198E+02  2.291524171E+02  1.250000000E+02  0.00000E+00  9.000E+00
      25     1     1     2     0     0 -8.221869490E+01 -2.793165057E+01 -7.792949998E-02  1.522008442E+02  1.250000000E+02  0.00000E+00  9.000E+00
      21     1     1     2   501   511 -6.003545881E+00 -1.898335902E+01  1.018485345E+01  2.236384857E+01  1.192092896E-07  0.00000E+00  9.000E+00
#rwgt            1           1   2.6493018818891944E-002           9       60115           0
</event>
<event>
      5   9999  3.19816E-02  1.23948E+02 -1.00000E+00  1.19775E-01
       2    -1     0     0   502     0  0.000000000E+00  0.000000000E+00  2.841328919E+03  2.841328919E+03  0.000000000E+00  0.00000E+00  9.000E+00
      21    -1     0     0   501   502  0.000000000E+00  0.000000000E+00 -1.633070286E+02  1.633070286E+02  0.000000000E+00  0.00000E+00  9.000E+00
      25     1     1     2     0     0 -1.501346269E+02 -3.332063396E+00 -7.751539916E+01  2.102026307E+02  1.250000000E+02  0.00000E+00  9.000E+00
      25     1     1     2     0     0  6.001632152E+01 -8.176644516E+01  3.449499682E+02  3.806615176E+02  1.250000000E+02  0.00000E+00  9.000E+00
       2     1     1     2   501     0  9.011830537E+01  8.509850855E+01  2.410587322E+03  2.413771800E+03  3.051757812E-05  0.00000E+00  9.000E+00
#rwgt            1           1   2.6074459325575131E-002           9       60236           0
</event>
<event>
      5   9999  3.19816E-02  9.93988E+01 -1.00000E+00  1.23946E-01
      21    -1     0     0   502   501  0.000000000E+00  0.000000000E+00  1.461210804E+02  1.461210804E+02  0.000000000E+00  0.00000E+00  9.000E+00
      21    -1     0     0   501   511  0.000000000E+00  0.000000000E+00 -4.430974455E+02  4.430974455E+02  0.000000000E+00  0.00000E+00  9.000E+00
      25     1     1     2     0     0 -2.750919589E+01 -3.763015770E+01 -1.876217159E+01  1.347212074E+02  1.250000000E+02  0.00000E+00  9.000E+00
      25     1     1     2     0     0  1.231971465E+02  1.072423108E+01 -1.897427449E+01  1.768546554E+02  1.250000000E+02  0.00000E+00  9.000E+00
      21     1     1     2   502   511 -9.568795060E+01  2.690592662E+01 -2.592399190E+02  2.776426632E+02  0.000000000E+00  0.00000E+00  9.000E+00
#rwgt            1           1   3.2022889721726719E-002           9       60301           0
</event>
<event>
      5   9999  3.19816E-02  5.13635E+01 -1.00000E+00  1.38412E-01
      21    -1     0     0   502   501  0.000000000E+00  0.000000000E+00  1.631897804E+03  1.631897804E+03  0.000000000E+00  0.00000E+00  9.000E+00
      21    -1     0     0   512   502  0.000000000E+00  0.000000000E+00 -3.886273362E+02  3.886273362E+02  0.000000000E+00  0.00000E+00  9.000E+00
      25     1     1     2     0     0 -4.728448318E+02  5.079140356E+02  3.382336606E+02  7.820395845E+02  1.250000000E+02  0.00000E+00  9.000E+00
      25     1     1     2     0     0  4.896825645E+02 -4.593887593E+02  9.501358418E+02  1.170132541E+03  1.250000000E+02  0.00000E+00  9.000E+00
      21     1     1     2   512   501 -1.683773268E+01 -4.852527622E+01 -4.509903460E+01  6.835301453E+01  4.768371582E-07  0.00000E+00  9.000E+00
#rwgt            1           1   3.0506116875400679E-002           9       60341           0
</event>
<event>
      5   9999  3.19816E-02  2.75494E+01 -1.00000E+00  1.55656E-01
      21    -1     0     0   511   501  0.000000000E+00  0.000000000E+00  3.712352856E+02  3.712352856E+02  0.000000000E+00  0.00000E+00  9.000E+00
      21    -1     0     0   501   502  0.000000000E+00  0.000000000E+00 -1.013123594E+03  1.013123594E+03  0.000000000E+00  0.00000E+00  9.000E+00
      25     1     1     2     0     0  1.024688305E+02  9.922870863E+01 -6.190614730E+02  6.474629760E+02  1.250000000E+02  0.00000E+00  9.000E+00
      25     1     1     2     0     0 -1.170227315E+02 -1.226199811E+02 -3.500464249E+02  4.085186398E+02  1.250000000E+02  0.00000E+00  9.000E+00
      21     1     1     2   511   502  1.455390092E+01  2.339127250E+01  3.272195895E+02  3.283772639E+02  0.000000000E+00  0.00000E+00  9.000E+00
#rwgt            1           1   2.6011066408725636E-002           9       60419           0
</event>
<event>
      5   9999  3.19816E-02  2.02477E+02 -1.00000E+00  1.11454E-01
      21    -1     0     0   502   501  0.000000000E+00  0.000000000E+00  2.694712077E+03  2.694712077E+03  0.000000000E+00  0.00000E+00  9.000E+00
      21    -1     0     0   512   502  0.000000000E+00  0.000000000E+00 -1.427462926E+02  1.427462926E+02  0.000000000E+00  0.00000E+00  9.000E+00
      25     1     1     2     0     0 -2.684974702E+02 -1.220664807E+02  9.349165611E+02  9.882737947E+02  1.250000000E+02  0.00000E+00  9.000E+00
      25     1     1     2     0     0  3.467644872E+02 -6.467176516E+01  1.603127883E+03  1.646229648E+03  1.250000000E+02  0.00000E+00  9.000E+00
      21     1     1     2   512   501 -7.826701700E+01  1.867382458E+02  1.392134051E+01  2.029549264E+02  5.979507544E-06  0.00000E+00  9.000E+00
#rwgt            2          11   1.1791563139160324E-002           9       60686           0
</event>
<event>
      5   9999  3.19816E-02  6.22804E+01 -1.00000E+00  1.33843E-01
      21    -1     0     0   502   501  0.000000000E+00  0.000000000E+00  8.129956669E+01  8.129956669E+01  0.000000000E+00  0.00000E+00  9.000E+00
      21    -1     0     0   511   502  0.000000000E+00  0.000000000E+00 -1.171002817E+03  1.171002817E+03  0.000000000E+00  0.00000E+00  9.000E+00
      25     1     1     2     0     0 -1.639847679E+01  1.501973061E+02 -9.540590246E+01  2.180720684E+02  1.250000000E+02  0.00000E+00  9.000E+00
      25     1     1     2     0     0  5.172992481E+01 -9.890859965E+01 -3.624025664E+02  3.992737361E+02  1.250000000E+02  0.00000E+00  9.000E+00
      21     1     1     2   511   501 -3.533144802E+01 -5.128870642E+01 -6.318947815E+02  6.349565792E+02  1.078959322E-05  0.00000E+00  9.000E+00
#rwgt            1           1   2.5551570030082411E-002           9       60736           0
</event>
<event>
      5   9999  3.19816E-02  3.89191E+01 -1.00000E+00  1.45582E-01
      21    -1     0     0   512   501  0.000000000E+00  0.000000000E+00  3.577924187E+02  3.577924187E+02  0.000000000E+00  0.00000E+00  9.000E+00
      21    -1     0     0   501   502  0.000000000E+00  0.000000000E+00 -1.743393805E+02  1.743393805E+02  0.000000000E+00  0.00000E+00  9.000E+00
      25     1     1     2     0     0 -1.611076344E+02 -1.066679139E+02  3.925719606E+01  2.334520104E+02  1.250000000E+02  0.00000E+00  9.000E+00
      25     1     1     2     0     0  1.427959602E+02  7.232580788E+01  6.986046262E+01  2.147724213E+02  1.250000000E+02  0.00000E+00  9.000E+00
      21     1     1     2   512   502  1.831167420E+01  3.434210606E+01  7.433537950E+01  8.390736741E+01  1.348699152E-06  0.00000E+00  9.000E+00
#rwgt            1           1   2.4033461988384651E-002           9       60832           0
</event>
<event>
      5   9999  3.19816E-02  4.26477E+01 -1.00000E+00  1.43135E-01
      21    -1     0     0   502   501  0.000000000E+00  0.000000000E+00  6.013338380E+02  6.013338380E+02  0.000000000E+00  0.00000E+00  9.000E+00
      21    -1     0     0   501   511  0.000000000E+00  0.000000000E+00 -3.344983079E+03  3.344983079E+03  0.000000000E+00  0.00000E+00  9.000E+00
      25     1     1     2     0     0  7.424635910E+02  1.409380968E+02 -6.684128966E+02  1.016620151E+03  1.250000000E+02  0.00000E+00  9.000E+00
      25     1     1     2     0     0 -7.262162834E+02 -1.015065001E+02  1.030807302E+02  7.509622473E+02  1.250000000E+02  0.00000E+00  9.000E+00
      21     1     1     2   502   511 -1.624730757E+01 -3.943159665E+01 -2.178317074E+03  2.178734518E+03  3.051757812E-05  0.00000E+00  9.000E+00
#rwgt            1           1   2.5245468628215997E-002           9       60922           0
</event>
<event>
      5   9999  3.19816E-02  4.78652E+01 -1.00000E+00  1.40165E-01
      21    -1     0     0   502   501  0.000000000E+00  0.000000000E+00  6.171722030E+01  6.171722030E+01  0.000000000E+00  0.00000E+00  9.000E+00
       1    -1     0     0   501     0  0.000000000E+00  0.000000000E+00 -1.973114750E+03  1.973114750E+03  0.000000000E+00  0.00000E+00  9.000E+00
      25     1     1     2     0     0 -3.217209306E+01  1.634323651E+02 -3.248519344E+02  3.858742810E+02  1.250000000E+02  0.00000E+00  9.000E+00
      25     1     1     2     0     0  2.644732940E+01 -1.159107007E+02 -2.108464340E+02  2.724260826E+02  1.250000000E+02  0.00000E+00  9.000E+00
       1     1     1     2   502     0  5.724763659E+00 -4.752166437E+01 -1.375699162E+03  1.376531607E+03  2.157918644E-05  0.00000E+00  9.000E+00
#rwgt            1           1   2.9219089387407530E-002           9       61061           0
</event>
<event>
      5   9999  3.19816E-02  5.28077E+01 -1.00000E+00  1.37735E-01
      21    -1     0     0   502   501  0.000000000E+00  0.000000000E+00  2.412387224E+02  2.412387224E+02  0.000000000E+00  0.00000E+00  9.000E+00
      21    -1     0     0   501   511  0.000000000E+00  0.000000000E+00 -4.885391180E+02  4.885391180E+02  0.000000000E+00  0.00000E+00  9.000E+00
      25     1     1     2     0     0 -2.413452544E+02  1.889489066E+01  8.976281317E+01  2.868569528E+02  1.250000000E+02  0.00000E+00  9.000E+00
      25     1     1     2     0     0  1.979257096E+02  1.116160215E+01 -2.809980226E+02  3.659017035E+02  1.250000000E+02  0.00000E+00  9.000E+00
      21     1     1     2   502   511  4.341954482E+01 -3.005649282E+01 -5.606518609E+01  7.701918413E+01  1.168007728E-06  0.00000E+00  9.000E+00
#rwgt            1           1   2.8091055039877969E-002           9       61114           0
</event>
<event>
      5   9999  3.19816E-02  2.31122E+01 -1.00000E+00  1.61348E-01
      21    -1     0     0   502   512  0.000000000E+00  0.000000000E+00  5.045154579E+01  5.045154579E+01  0.000000000E+00  0.00000E+00  9.000E+00
      21    -1     0     0   501   502  0.000000000E+00  0.000000000E+00 -9.435151468E+02  9.435151468E+02  0.000000000E+00  0.00000E+00  9.000E+00
      25     1     1     2     0     0  1.321172163E+02  2.711068232E+01 -5.235321943E+02  5.548881927E+02  1.250000000E+02  0.00000E+00  9.000E+00
      25     1     1     2     0     0 -1.391759114E+02 -5.102759910E+00 -3.714077732E+02  4.158902577E+02  1.250000000E+02  0.00000E+00  9.000E+00
      21     1     1     2   501   512  7.058695096E+00 -2.200792241E+01  1.876366479E+00  2.318824220E+01  1.444721179E-07  0.00000E+00  9.000E+00
#rwgt            1           1   3.8340715953317929E-002           9       61196           0
</event>
<event>
      5   9999  3.19816E-02  2.44450E+02 -1.00000E+00  1.08564E-01
      21    -1     0     0   502   501  0.000000000E+00  0.000000000E+00  1.274622645E+03  1.274622645E+03  0.000000000E+00  0.00000E+00  9.000E+00
      21    -1     0     0   501   511  0.000000000E+00  0.000000000E+00 -6.219810489E+02  6.219810489E+02  0.000000000E+00  0.00000E+00  9.000E+00
      25     1     1     2     0     0 -8.035359229E+02  2.459446133E+02  3.095241777E+02  9.042062534E+02  1.250000000E+02  0.00000E+00  9.000E+00
      25     1     1     2     0     0  5.730342809E+02 -3.273372444E+02  3.280002701E+02  7.474805254E+02  1.250000000E+02  0.00000E+00  9.000E+00
      21     1     1     2   502   511  2.305016420E+02  8.139263109E+01  1.511714875E+01  2.449169156E+02  6.132040572E-06  0.00000E+00  9.000E+00
#rwgt            1           1   2.8811065169889630E-002           9       61327           0
</event>
<event>
      5   9999  3.19816E-02  6.15827E+02 -1.00000E+00  9.63476E-02
      21    -1     0     0   502   512  0.000000000E+00  0.000000000E+00  2.884706616E+03  2.884706616E+03  0.000000000E+00  0.00000E+00  9.000E+00
      21    -1     0     0   501   502  0.000000000E+00  0.000000000E+00 -4.284242818E+02  4.284242818E+02  0.000000000E+00  0.00000E+00  9.000E+00
      25     1     1     2     0     0 -1.082981070E+02 -2.824157447E+02 -2.022413191E+02  3.847254657E+02  1.250000000E+02  0.00000E+00  9.000E+00
      25     1     1     2     0     0 -1.278163582E+02 -2.863484090E+02  1.966499501E+02  3.906771501E+02  1.250000000E+02  0.00000E+00  9.000E+00
      21     1     1     2   501   512  2.361144652E+02  5.687641537E+02  2.461873703E+03  2.537728282E+03  3.051757812E-05  0.00000E+00  9.000E+00
#rwgt            1           1   2.7418467669151837E-002           9       61391           0
</event>
<event>
      5   9999  3.19816E-02  5.01391E+01 -1.00000E+00  1.39007E-01
      21    -1     0     0   502   501  0.000000000E+00  0.000000000E+00  8.360770679E+02  8.360770679E+02  0.000000000E+00  0.00000E+00  9.000E+00
      21    -1     0     0   511   502  0.000000000E+00  0.000000000E+00 -3.259299764E+02  3.259299764E+02  0.000000000E+00  0.00000E+00  9.000E+00
      25     1     1     2     0     0 -3.454337090E+02  2.909254958E+02  1.865615629E+02  5.043731835E+02  1.250000000E+02  0.00000E+00  9.000E+00
      25     1     1     2     0     0  3.020456145E+02 -3.160531771E+02  3.723441761E+02  5.876957967E+02  1.250000000E+02  0.00000E+00  9.000E+00
      21     1     1     2   511   501  4.338809453E+01  2.512768132E+01 -4.875864740E+01  6.993806411E+01  1.507891493E-06  0.00000E+00  9.000E+00
#rwgt            1           1   2.9486251044425298E-002           9       61421           0
</event>
<event>
      5   9999  3.19816E-02  9.15222E+01 -1.00000E+00  1.25583E-01
      21    -1     0     0   502   501  0.000000000E+00  0.000000000E+00  5.149460776E+02  5.149460776E+02  0.000000000E+00  0.00000E+00  9.000E+00
      21    -1     0     0   512   502  0.000000000E+00  0.000000000E+00 -1.088950372E+03  1.088950372E+03  0.000000000E+00  0.00000E+00  9.000E+00
      25     1     1     2     0     0 -5.613419242E+02  1.866773955E+02 -5.510751187E+02  8.180843430E+02  1.250000000E+02  0.00000E+00  9.000E+00
      25     1     1     2     0     0  6.141547151E+02 -1.119303248E+02  8.721182480E+01  6.426082119E+02  1.250000000E+02  0.00000E+00  9.000E+00
      21     1     1     2   512   501 -5.281279089E+01 -7.474707071E+01 -1.101410010E+02  1.432038951E+02  3.015782986E-06  0.00000E+00  9.000E+00
#rwgt            1           1   2.6152694106676130E-002           9       61529           0
</event>
<event>
      5   9999  3.19816E-02  2.59387E+02 -1.00000E+00  1.07686E-01
       1    -1     0     0   502     0  0.000000000E+00  0.000000000E+00  1.245586981E+03  1.245586981E+03  0.000000000E+00  0.00000E+00  9.000E+00
      21    -1     0     0   501   502  0.000000000E+00  0.000000000E+00 -3.092629827E+02  3.092629827E+02  0.000000000E+00  0.00000E+00  9.000E+00
      25     1     1     2     0     0  2.358386095E+02  5.978866266E+01 -9.245275184E+01  2.887335194E+02  1.250000000E+02  0.00000E+00  9.000E+00
      25     1     1     2     0     0 -1.077502151E+02 -2.853429330E+02  9.331589843E+02  9.896673119E+02  1.250000000E+02  0.00000E+00  9.000E+00
       1     1     1     2   501     0 -1.280883944E+02  2.255542704E+02  9.561776577E+01  2.764491324E+02  2.336015456E-06  0.00000E+00  9.000E+00
#rwgt            2          17   2.0842933289589148E-004           9       61955           0
</event>
<event>
      5   9999  3.19816E-02  8.72489E+01 -1.00000E+00  1.26552E-01
      21    -1     0     0   502   501  0.000000000E+00  0.000000000E+00  3.563887777E+02  3.563887777E+02  0.000000000E+00  0.00000E+00  9.000E+00
      21    -1     0     0   501   511  0.000000000E+00  0.000000000E+00 -9.950057604E+02  9.950057604E+02  0.000000000E+00  0.00000E+00  9.000E+00
      25     1     1     2     0     0  1.837863472E+02 -1.593399942E+02 -1.245605741E+02  3.005112175E+02  1.250000000E+02  0.00000E+00  9.000E+00
      25     1     1     2     0     0 -2.164858633E+02  2.402294491E+02  1.524160886E+02  3.787241493E+02  1.250000000E+02  0.00000E+00  9.000E+00
      21     1     1     2   502   511  3.269951607E+01 -8.088945485E+01 -6.664724971E+02  6.721591713E+02  0.000000000E+00  0.00000E+00  9.000E+00
#rwgt            1           1   2.7647920836537884E-002           9       61974           0
</event>
<event>
      5   9999  3.19816E-02  1.94652E+01 -1.00000E+00  1.67346E-01
      21    -1     0     0   502   512  0.000000000E+00  0.000000000E+00  2.077285449E+02  2.077285449E+02  0.000000000E+00  0.00000E+00  9.000E+00
      21    -1     0     0   501   502  0.000000000E+00  0.000000000E+00 -7.243529353E+02  7.243529353E+02  0.000000000E+00  0.00000E+00  9.000E+00
      25     1     1     2     0     0  6.849784346E+01  2.003319447E+02 -5.980209171E+02  6.465901792E+02  1.250000000E+02  0.00000E+00  9.000E+00
      25     1     1     2     0     0 -5.497728083E+01 -2.143351620E+02  7.680039079E+01  2.654907967E+02  1.250000000E+02  0.00000E+00  9.000E+00
      21     1     1     2   501   512 -1.352056262E+01  1.400321734E+01  4.596135892E+00  2.000050436E+01  3.998401125E-07  0.00000E+00  9.000E+00
#rwgt            2          11   6.6537006934520764E-003           9       62098           0
</event>
<event>
      5   9999  3.19816E-02  1.00400E+02 -1.00000E+00  1.23750E-01
      21    -1     0     0   502   501  0.000000000E+00  0.000000000E+00  1.275037020E+02  1.275037020E+02  0.000000000E+00  0.00000E+00  9.000E+00
       2    -1     0     0   501     0  0.000000000E+00  0.000000000E+00 -1.255166023E+03  1.255166023E+03  0.000000000E+00  0.00000E+00  9.000E+00
      25     1     1     2     0     0  1.516307069E+02 -2.223934791E+02 -5.266114460E+02  6.044794007E+02  1.250000000E+02  0.00000E+00  9.000E+00
      25     1     1     2     0     0 -1.511032296E+02  3.227923132E+02 -5.453642215E+02  6.633808842E+02  1.250000000E+02  0.00000E+00  9.000E+00
       2     1     1     2   502     0 -5.274772928E-01 -1.003988341E+02 -5.568665311E+01  1.148094398E+02  1.168007728E-06  0.00000E+00  9.000E+00
#rwgt            1           1   3.1557057401791572E-002           9       62133           0
</event>
<event>
      5   9999  3.19816E-02  1.65366E+02 -1.00000E+00  1.14739E-01
       2    -1     0     0   502     0  0.000000000E+00  0.000000000E+00  1.021748669E+03  1.021748669E+03  0.000000000E+00  0.00000E+00  9.000E+00
      21    -1     0     0   501   502  0.000000000E+00  0.000000000E+00 -1.301088517E+02  1.301088517E+02  0.000000000E+00  0.00000E+00  9.000E+00
      25     1     1     2     0     0 -2.492703910E+02 -3.391910655E+01  6.888777808E+02  7.439514974E+02  1.250000000E+02  0.00000E+00  9.000E+00
      25     1     1     2     0     0  8.393874794E+01  3.728171680E+01  1.219523043E+01  1.555935842E+02  1.250000000E+02  0.00000E+00  9.000E+00
       2     1     1     2   501     0  1.653316431E+02 -3.362610243E+00  1.905668061E+02  2.523124391E+02  3.814697266E-06  0.00000E+00  9.000E+00
#rwgt            1           1   1.3024833849514778E-002           9       62208           0
</event>
<event>
      5   9999  3.19816E-02  2.41158E+01 -1.00000E+00  1.59931E-01
      21    -1     0     0   502   501  0.000000000E+00  0.000000000E+00  1.509420540E+03  1.509420540E+03  0.000000000E+00  0.00000E+00  9.000E+00
      21    -1     0     0   501   511  0.000000000E+00  0.000000000E+00 -3.469277516E+01  3.469277516E+01  0.000000000E+00  0.00000E+00  9.000E+00
      25     1     1     2     0     0 -1.175051996E+02 -7.686038480E+01  4.052754752E+02  4.467529536E+02  1.250000000E+02  0.00000E+00  9.000E+00
      25     1     1     2     0     0  1.363731104E+02  9.187954332E+01  1.034350557E+03  1.054772748E+03  1.250000000E+02  0.00000E+00  9.000E+00
      21     1     1     2   502   511 -1.886791082E+01 -1.501915852E+01  3.510173294E+01  4.258761366E+01  0.000000000E+00  0.00000E+00  9.000E+00
#rwgt            1           1   4.0805450407355393E-002           9       62253           0
</event>
<event>
      5   9999  3.19816E-02  3.73234E+01 -1.00000E+00  1.46731E-01
       2    -1     0     0   502     0  0.000000000E+00  0.000000000E+00  1.311162128E+03  1.311162128E+03  0.000000000E+00  0.00000E+00  9.000E+00
      21    -1     0     0   501   502  0.000000000E+00  0.000000000E+00 -9.470031555E+01  9.470031555E+01  0.000000000E+00  0.00000E+00  9.000E+00
      25     1     1     2     0     0  7.758897673E+01 -1.885498139E+02  3.328123617E+02  4.098294154E+02  1.250000000E+02  0.00000E+00  9.000E+00
      25     1     1     2     0     0 -1.136035760E+02  1.787524853E+02  2.159413301E+02  3.272825714E+02  1.250000000E+02  0.00000E+00  9.000E+00
       2     1     1     2   501     0  3.601459928E+01  9.797328545E+00  6.677081210E+02  6.687504571E+02  1.078959322E-05  0.00000E+00  9.000E+00
#rwgt            2          18   3.7547478376031299E-004           9       62423           0
</event>
<event>
      5   9999  3.19816E-02  3.09873E+01 -1.00000E+00  1.52070E-01
       2    -1     0     0   502     0  0.000000000E+00  0.000000000E+00  1.285245758E+03  1.285245758E+03  0.000000000E+00  0.00000E+00  9.000E+00
      21    -1     0     0   501   502  0.000000000E+00  0.000000000E+00 -2.493733476E+02  2.493733476E+02  0.000000000E+00  0.00000E+00  9.000E+00
      25     1     1     2     0     0 -5.141815239E+01  1.313810357E+02 -1.831122715E+02  2.627925169E+02  1.250000000E+02  0.00000E+00  9.000E+00
      25     1     1     2     0     0  6.938328556E+01 -1.061329677E+02  2.767357574E+02  3.290682704E+02  1.250000000E+02  0.00000E+00  9.000E+00
       2     1     1     2   501     0 -1.796513317E+01 -2.524806795E+01  9.422489245E+02  9.427583183E+02  1.078959322E-05  0.00000E+00  9.000E+00
#rwgt            1           1   2.5973158423316055E-002           9       62442           0
</event>
<event>
      5   9999  3.19816E-02  5.85727E+01 -1.00000E+00  1.35265E-01
      21    -1     0     0   502   501  0.000000000E+00  0.000000000E+00  2.542317160E+02  2.542317160E+02  0.000000000E+00  0.00000E+00  9.000E+00
      21    -1     0     0   501   511  0.000000000E+00  0.000000000E+00 -1.361312098E+03  1.361312098E+03  0.000000000E+00  0.00000E+00  9.000E+00
      25     1     1     2     0     0  9.336354430E+01  3.892475779E+02 -3.326624155E+02  5.352753599E+02  1.250000000E+02  0.00000E+00  9.000E+00
      25     1     1     2     0     0 -1.499049597E+02 -4.045391626E+02 -1.814749398E+02  4.844394542E+02  1.250000000E+02  0.00000E+00  9.000E+00
      21     1     1     2   502   511  5.654141538E+01  1.529158473E+01 -5.929430262E+02  5.958289995E+02  1.078959322E-05  0.00000E+00  9.000E+00
#rwgt            1           1   2.2524612231294282E-002           9       62574           0
</event>
<event>
      5   9999  3.22052E-02  3.25923E+01 -1.00000E+00  1.50581E-01
      21    -1     0     0   512   501  0.000000000E+00  0.000000000E+00  1.037317282E+03  1.037317282E+03  0.000000000E+00  0.00000E+00  9.000E+00
      21    -1     0     0   501   502  0.000000000E+00  0.000000000E+00 -1.485334591E+03  1.485334591E+03  0.000000000E+00  0.00000E+00  9.000E+00
      25     1     1     2     0     0  1.031234958E+03  2.523925633E+02 -8.334979444E+02  1.355540987E+03  1.250000000E+02  0.00000E+00  9.000E+00
      25     1     1     2     0     0 -1.002008138E+03 -2.379686535E+02  3.066495234E+02  1.081807894E+03  1.250000000E+02  0.00000E+00  9.000E+00
      21     1     1     2   512   502 -2.922681977E+01 -1.442390978E+01  7.883111251E+01  8.530299213E+01  0.000000000E+00  0.00000E+00  9.000E+00
#rwgt            1           1   7.2817205098087756E-002           9       62672           0
</event>
<event>
      5   9999  3.19816E-02  5.25696E+01 -1.00000E+00  1.37845E-01
      21    -1     0     0   502   501  0.000000000E+00  0.000000000E+00  6.771712540E+02  6.771712540E+02  0.000000000E+00  0.00000E+00  9.000E+00
      21    -1     0     0   511   502  0.000000000E+00  0.000000000E+00 -5.296394730E+02  5.296394730E+02  0.000000000E+00  0.00000E+00  9.000E+00
      25     1     1     2     0     0  4.977455693E+01  1.311383431E+02  8.179583897E+01  2.049154236E+02  1.250000000E+02  0.00000E+00  9.000E+00
      25     1     1     2     0     0 -5.909415167E+01 -7.940147547E+01  5.203614405E+02  5.442405184E+02  1.250000000E+02  0.00000E+00  9.000E+00
      21     1     1     2   511   501  9.319594732E+00 -5.173686760E+01 -4.546254985E+02  4.576547850E+02  7.629394531E-06  0.00000E+00  9.000E+00
#rwgt            1           1   2.8131632178639350E-002           9       62945           0
</event>
<event>
      5   9999  3.19816E-02  2.94305E+01 -1.00000E+00  1.53620E-01
      21    -1     0     0   502   512  0.000000000E+00  0.000000000E+00  4.593552470E+02  4.593552470E+02  0.000000000E+00  0.00000E+00  9.000E+00
      21    -1     0     0   501   502  0.000000000E+00  0.000000000E+00 -3.327897983E+02  3.327897983E+02  0.000000000E+00  0.00000E+00  9.000E+00
      25     1     1     2     0     0  2.454673243E+02 -3.586098941E+01 -1.860407983E+02  3.343297720E+02  1.250000000E+02  0.00000E+00  9.000E+00
      25     1     1     2     0     0 -2.737297249E+02  4.407007342E+01  2.939626174E+02  4.229765409E+02  1.250000000E+02  0.00000E+00  9.000E+00
      21     1     1     2   501   512  2.826240063E+01 -8.209084011E+00  1.864362959E+01  3.483873238E+01  3.371747881E-07  0.00000E+00  9.000E+00
#rwgt            1           1   2.9389410588866988E-002           9       63000           0
</event>
<event>
      5   9999  3.19816E-02  9.15636E+01 -1.00000E+00  1.25574E-01
      21    -1     0     0   511   501  0.000000000E+00  0.000000000E+00  2.728327926E+02  2.728327926E+02  0.000000000E+00  0.00000E+00  9.000E+00
      21    -1     0     0   501   502  0.000000000E+00  0.000000000E+00 -5.918423382E+02  5.918423382E+02  0.000000000E+00  0.00000E+00  9.000E+00
      25     1     1     2     0     0  1.638161112E+02 -1.575702236E+02 -4.065788241E+02  4.822814882E+02  1.250000000E+02  0.00000E+00  9.000E+00
      25     1     1     2     0     0 -8.630310898E+01  1.088297630E+02 -7.050110296E+01  1.997186758E+02  1.250000000E+02  0.00000E+00  9.000E+00
      21     1     1     2   511   502 -7.751300221E+01  4.874046053E+01  1.580703815E+02  1.826749668E+02  0.000000000E+00  0.00000E+00  9.000E+00
#rwgt            1           1   3.5293073792924873E-002           9       63116           0
</event>
<event>
      5   9999  3.28927E-02  2.74321E+01 -1.00000E+00  1.55789E-01
      21    -1     0     0   502   501  0.000000000E+00  0.000000000E+00  8.304967208E+02  8.304967208E+02  0.000000000E+00  0.00000E+00  9.000E+00
      21    -1     0     0   512   502  0.000000000E+00  0.000000000E+00 -1.190275527E+03  1.190275527E+03  0.000000000E+00  0.00000E+00  9.000E+00
      25     1     1     2     0     0 -7.243085186E+02  4.122866746E+02  2.949947863E+02  8.928886022E+02  1.250000000E+02  0.00000E+00  9.000E+00
      25     1     1     2     0     0  7.511122996E+02 -4.064489935E+02 -5.591865644E+02  1.028438177E+03  1.250000000E+02  0.00000E+00  9.000E+00
      21     1     1     2   512   501 -2.680378108E+01 -5.837681113E+00 -9.558702853E+01  9.944546859E+01  1.907348633E-06  0.00000E+00  9.000E+00
#rwgt            1           1   4.1842180557363405E-002           9       63201           0
</event>
<event>
      5   9999  3.19816E-02  1.35053E+01 -1.00000E+00  1.81789E-01
      21    -1     0     0   502   501  0.000000000E+00  0.000000000E+00  2.335050366E+02  2.335050366E+02  0.000000000E+00  0.00000E+00  9.000E+00
      21    -1     0     0   511   502  0.000000000E+00  0.000000000E+00 -5.816309891E+02  5.816309891E+02  0.000000000E+00  0.00000E+00  9.000E+00
      25     1     1     2     0     0  1.203097234E+01 -7.090464631E+01  1.948311485E+02  2.423971732E+02  1.250000000E+02  0.00000E+00  9.000E+00
      25     1     1     2     0     0  1.434030011E+00  7.194737209E+01 -3.399418640E+02  3.692748999E+02  1.250000000E+02  0.00000E+00  9.000E+00
      21     1     1     2   511   501 -1.346500235E+01 -1.042725787E+00 -2.030152369E+02  2.034639526E+02  2.697398305E-06  0.00000E+00  9.000E+00
#rwgt            1           1   2.6902906166147170E-002           9       63390           0
</event>
<event>
      5   9999  3.19816E-02  1.02108E+02 -1.00000E+00  1.23422E-01
      21    -1     0     0   502   501  0.000000000E+00  0.000000000E+00  5.085492349E+02  5.085492349E+02  0.000000000E+00  0.00000E+00  9.000E+00
      21    -1     0     0   512   502  0.000000000E+00  0.000000000E+00 -1.653180416E+03  1.653180416E+03  0.000000000E+00  0.00000E+00  9.000E+00
      25     1     1     2     0     0  1.265063955E+02  7.531603490E+02 -1.965917414E+02  7.984533124E+02  1.250000000E+02  0.00000E+00  9.000E+00
      25     1     1     2     0     0 -1.122673484E+02 -8.542707654E+02 -7.930946336E+02  1.177712442E+03  1.250000000E+02  0.00000E+00  9.000E+00
      21     1     1     2   512   501 -1.423904708E+01  1.011104164E+02 -1.549448063E+02  1.855638967E+02  1.907348633E-06  0.00000E+00  9.000E+00
#rwgt            1           1   3.0910558322586771E-002           9       63591           0
</event>
<event>
      5   9999  3.19816E-02  4.24098E+01 -1.00000E+00  1.43282E-01
      21    -1     0     0   502   501  0.000000000E+00  0.000000000E+00  2.558911503E+03  2.558911503E+03  0.000000000E+00  0.00000E+00  9.000E+00
      21    -1     0     0   511   502  0.000000000E+00  0.000000000E+00 -9.321418813E+02  9.321418813E+02  0.000000000E+00  0.00000E+00  9.000E+00
      25     1     1     2     0     0 -6.397340053E+02  6.556737724E+02 -4.372406827E+02  1.022727778E+03  1.250000000E+02  0.00000E+00  9.000E+00
      25     1     1     2     0     0  6.336133051E+02 -6.137079922E+02  2.174524031E+03  2.349953847E+03  1.250000000E+02  0.00000E+00  9.000E+00
      21     1     1     2   511   501  6.120700164E+00 -4.196578022E+01 -1.105137267E+02  1.183717596E+02  1.348699152E-06  0.00000E+00  9.000E+00
#rwgt            1           1   4.0220448208762610E-002           9       63702           0
</event>
<event>
      5   9999  3.19816E-02  1.13107E+02 -1.00000E+00  1.21469E-01
      21    -1     0     0   502   501  0.000000000E+00  0.000000000E+00  2.725446286E+02  2.725446286E+02  0.000000000E+00  0.00000E+00  9.000E+00
       2    -1     0     0   501     0  0.000000000E+00  0.000000000E+00 -3.936600121E+03  3.936600121E+03  0.000000000E+00  0.00000E+00  9.000E+00
      25     1     1     2     0     0 -6.555403960E+02  3.562047915E+02 -7.527597504E+02  1.067186631E+03  1.250000000E+02  0.00000E+00  9.000E+00
      25     1     1     2     0     0  6.592406813E+02 -2.431579087E+02 -1.006746972E+03  1.234053690E+03  1.250000000E+02  0.00000E+00  9.000E+00
       2     1     1     2   502     0 -3.700285308E+00 -1.130468828E+02 -1.904548770E+03  1.907904428E+03  2.157918644E-05  0.00000E+00  9.000E+00
#rwgt            1           1   2.7415789509368897E-002           9       63918           0
</event>
<event>
      5   9999  3.19816E-02  2.17118E+01 -1.00000E+00  1.63479E-01
      21    -1     0     0   502   501  0.000000000E+00  0.000000000E+00  6.197639391E+02  6.197639391E+02  0.000000000E+00  0.00000E+00  9.000E+00
      21    -1     0     0   511   502  0.000000000E+00  0.000000000E+00 -9.049893697E+01  9.049893697E+01  0.000000000E+00  0.00000E+00  9.000E+00
      25     1     1     2     0     0 -1.001883661E+02 -1.114254681E+02  2.958667067E+02  3.544227021E+02  1.250000000E+02  0.00000E+00  9.000E+00
      25     1     1     2     0     0  1.218733117E+02  1.125043512E+02  2.524853106E+02  3.269314381E+02  1.250000000E+02  0.00000E+00  9.000E+00
      21     1     1     2   511   501 -2.168494558E+01 -1.078883096E+00 -1.908701525E+01  2.890873579E+01  4.768371582E-07  0.00000E+00  9.000E+00
#rwgt            1           1   2.8346170125120522E-002           9       64003           0
</event>
<event>
      5   9999  3.19816E-02  1.77282E+02 -1.00000E+00  1.13588E-01
      21    -1     0     0   502   512  0.000000000E+00  0.000000000E+00  1.697779294E+03  1.697779294E+03  0.000000000E+00  0.00000E+00  9.000E+00
      21    -1     0     0   501   502  0.000000000E+00  0.000000000E+00 -4.074096744E+02  4.074096744E+02  0.000000000E+00  0.00000E+00  9.000E+00
      25     1     1     2     0     0 -2.744737487E+02  4.024032738E+00 -3.296923641E+02  4.468490645E+02  1.250000000E+02  0.00000E+00  9.000E+00
      25     1     1     2     0     0  1.079459227E+02  5.678171026E+01  7.093543066E+02  7.305374851E+02  1.250000000E+02  0.00000E+00  9.000E+00
      21     1     1     2   501   512  1.665278260E+02 -6.080574300E+01  9.107076769E+02  9.278024186E+02  1.078959322E-05  0.00000E+00  9.000E+00
#rwgt            1           1   3.2120943011699002E-002           9       64163           0
</event>
<event>
      5   9999  3.19816E-02  8.95936E+01 -1.00000E+00  1.26013E-01
      21    -1     0     0   502   511  0.000000000E+00  0.000000000E+00  1.510891493E+02  1.510891493E+02  0.000000000E+00  0.00000E+00  9.000E+00
      21    -1     0     0   501   502  0.000000000E+00  0.000000000E+00 -1.221465360E+03  1.221465360E+03  0.000000000E+00  0.00000E+00  9.000E+00
      25     1     1     2     0     0 -2.078373339E+02  8.698230159E+01 -5.784394568E+02  6.332294081E+02  1.250000000E+02  0.00000E+00  9.000E+00
      25     1     1     2     0     0  1.408258975E+02 -2.751397172E+01 -5.819797005E+02  6.123024774E+02  1.250000000E+02  0.00000E+00  9.000E+00
      21     1     1     2   501   511  6.701143633E+01 -5.946832987E+01  9.004294631E+01  1.270226241E+02  3.693564745E-06  0.00000E+00  9.000E+00
#rwgt            1           1   4.2794048617683322E-002           9       64207           0
</event>
<event>
      5   9999  3.19816E-02  4.50969E+01 -1.00000E+00  1.41682E-01
      21    -1     0     0   502   501  0.000000000E+00  0.000000000E+00  1.021646124E+03  1.021646124E+03  0.000000000E+00  0.00000E+00  9.000E+00
      21    -1     0     0   512   502  0.000000000E+00  0.000000000E+00 -2.609724595E+02  2.609724595E+02  0.000000000E+00  0.00000E+00  9.000E+00
      25     1     1     2     0     0  1.527508471E+02 -2.457273281E+02  3.917122890E+02  5.027705823E+02  1.250000000E+02  0.00000E+00  9.000E+00
      25     1     1     2     0     0 -1.800867456E+02  2.098598549E+02  5.310261138E+02  6.116258073E+02  1.250000000E+02  0.00000E+00  9.000E+00
      21     1     1     2   512   501  2.733589846E+01  3.586747314E+01 -1.620647386E+02  1.682221937E+02  5.046370146E-06  0.00000E+00  9.000E+00
#rwgt            1           1   2.9325991183512985E-002           9       64276           0
</event>
<event>
      5   9999  3.19816E-02  8.38408E+01 -1.00000E+00  1.27371E-01
      21    -1     0     0   511   501  0.000000000E+00  0.000000000E+00  3.208626444E+02  3.208626444E+02  0.000000000E+00  0.00000E+00  9.000E+00
      21    -1     0     0   501   502  0.000000000E+00  0.000000000E+00 -6.080390895E+02  6.080390895E+02  0.000000000E+00  0.00000E+00  9.000E+00
      25     1     1     2     0     0 -1.569174564E+02  3.648363304E+02 -1.473121926E+01  4.166181044E+02  1.250000000E+02  0.00000E+00  9.000E+00
      25     1     1     2     0     0  1.473679362E+02 -2.815411116E+02 -2.561522931E+02  4.268743415E+02  1.250000000E+02  0.00000E+00  9.000E+00
      21     1     1     2   511   502  9.549520210E+00 -8.329521889E+01 -1.629293265E+01  8.540928802E+01  1.143415337E-06  0.00000E+00  9.000E+00
#rwgt            1           1   2.9832751823421124E-002           9       64424           0
</event>
<event>
      5   9999  3.19816E-02  7.35936E+02 -1.00000E+00  9.43060E-02
      21    -1     0     0   502   501  0.000000000E+00  0.000000000E+00  1.798473210E+03  1.798473210E+03  0.000000000E+00  0.00000E+00  9.000E+00
       2    -1     0     0   501     0  0.000000000E+00  0.000000000E+00 -9.878808544E+02  9.878808544E+02  0.000000000E+00  0.00000E+00  9.000E+00
      25     1     1     2     0     0 -1.031389959E+02  5.857498627E+02  1.229054247E+03  1.371109003E+03  1.250000000E+02  0.00000E+00  9.000E+00
      25     1     1     2     0     0 -3.498275071E+02 -5.730450410E+00 -5.538857138E+02  6.669531518E+02  1.250000000E+02  0.00000E+00  9.000E+00
       2     1     1     2   502     0  4.529665030E+02 -5.800194123E+02  1.354238223E+02  7.482919103E+02  9.725607898E-06  0.00000E+00  9.000E+00
#rwgt            2          13   3.0960348150002544E-004           9       64528           0
</event>
<event>
      5   9999  3.19816E-02  5.34895E+01 -1.00000E+00  1.37424E-01
      21    -1     0     0   502   501  0.000000000E+00  0.000000000E+00  6.065756187E+02  6.065756187E+02  0.000000000E+00  0.00000E+00  9.000E+00
       2    -1     0     0   501     0  0.000000000E+00  0.000000000E+00 -3.405984284E+02  3.405984284E+02  0.000000000E+00  0.00000E+00  9.000E+00
      25     1     1     2     0     0 -1.082503885E+02 -1.098570981E+02  1.496302652E+02  2.485979583E+02  1.250000000E+02  0.00000E+00  9.000E+00
      25     1     1     2     0     0  6.711278027E+01  7.566904647E+01  3.888966176E+02  4.208271724E+02  1.250000000E+02  0.00000E+00  9.000E+00
       2     1     1     2   502     0  4.113760828E+01  3.418805161E+01 -2.725496925E+02  2.777489164E+02  3.814697266E-06  0.00000E+00  9.000E+00
#rwgt            1           1   2.6744512279778799E-002           9       64592           0
</event>
<event>
      5   9999  3.19816E-02  1.32480E+01 -1.00000E+00  1.82621E-01
      21    -1     0     0   502   511  0.000000000E+00  0.000000000E+00  2.433432267E+02  2.433432267E+02  0.000000000E+00  0.00000E+00  9.000E+00
      21    -1     0     0   501   502  0.000000000E+00  0.000000000E+00 -1.996541688E+02  1.996541688E+02  0.000000000E+00  0.00000E+00  9.000E+00
      25     1     1     2     0     0  4.289036724E+01 -9.431658246E+01 -5.892779184E+00  1.624651537E+02  1.250000000E+02  0.00000E+00  9.000E+00
      25     1     1     2     0     0 -4.586442164E+01  1.072264650E+02 -5.153200090E+01  1.785542133E+02  1.250000000E+02  0.00000E+00  9.000E+00
      21     1     1     2   501   511  2.974054406E+00 -1.290988258E+01  1.011138379E+02  1.019780284E+02  1.348699152E-06  0.00000E+00  9.000E+00
#rwgt            1           1   3.4135949699909539E-002           9       64666           0
</event>
<event>
      5   9999  3.19816E-02  2.37875E+01 -1.00000E+00  1.60385E-01
      21    -1     0     0   502   501  0.000000000E+00  0.000000000E+00  1.301326475E+03  1.301326475E+03  0.000000000E+00  0.00000E+00  9.000E+00
      21    -1     0     0   512   502  0.000000000E+00  0.000000000E+00 -2.027340928E+03  2.027340928E+03  0.000000000E+00  0.00000E+00  9.000E+00
      25     1     1     2     0     0 -3.277385408E+02  7.229984663E+01  6.266090891E+02  7.217366345E+02  1.250000000E+02  0.00000E+00  9.000E+00
      25     1     1     2     0     0  3.202110520E+02 -9.486488525E+01  5.763852325E+02  6.777753319E+02  1.250000000E+02  0.00000E+00  9.000E+00
      21     1     1     2   512   501  7.527488839E+00  2.256503862E+01 -1.929008775E+03  1.929155437E+03  0.000000000E+00  0.00000E+00  9.000E+00
#rwgt            1           1   2.8179910248785949E-002           9       64748           0
</event>
<event>
      5   9999  3.19816E-02  8.85864E+00 -1.00000E+00  2.02045E-01
      21    -1     0     0   511   501  0.000000000E+00  0.000000000E+00  1.277686083E+02  1.277686083E+02  0.000000000E+00  0.00000E+00  9.000E+00
      21    -1     0     0   501   502  0.000000000E+00  0.000000000E+00 -5.504331443E+02  5.504331443E+02  0.000000000E+00  0.00000E+00  9.000E+00
      25     1     1     2     0     0 -1.562302864E+02 -1.509168924E+02 -2.804674561E+02  3.761260490E+02  1.250000000E+02  0.00000E+00  9.000E+00
      25     1     1     2     0     0  1.649737849E+02  1.523405428E+02 -1.409952963E+02  2.931359144E+02  1.250000000E+02  0.00000E+00  9.000E+00
      21     1     1     2   511   502 -8.743498564E+00 -1.423650449E+00 -1.201783549E+00  8.939789227E+00  1.993639493E-07  0.00000E+00  9.000E+00
#rwgt            1           1   2.4188945438212733E-002           9       64872           0
</event>
<event>
      5   9999  3.19816E-02  6.45619E+01 -1.00000E+00  1.33024E-01
      21    -1     0     0   512   501  0.000000000E+00  0.000000000E+00  1.593384895E+02  1.593384895E+02  0.000000000E+00  0.00000E+00  9.000E+00
      21    -1     0     0   501   502  0.000000000E+00  0.000000000E+00 -5.644943271E+02  5.644943271E+02  0.000000000E+00  0.00000E+00  9.000E+00
      25     1     1     2     0     0 -8.350922515E+01 -2.046778993E+01 -5.403558449E+01  1.610514374E+02  1.250000000E+02  0.00000E+00  9.000E+00
      25     1     1     2     0     0  2.463264731E+01 -6.023466394E+00 -4.370610529E+02  4.552915697E+02  1.250000000E+02  0.00000E+00  9.000E+00
      21     1     1     2   512   502  5.887657784E+01  2.649125633E+01  8.594079980E+01  1.074898095E+02  2.336015456E-06  0.00000E+00  9.000E+00
#rwgt            1           1   3.4061419701951118E-002           9       65119           0
</event>
<event>
      5   9999  3.19816E-02  2.06438E+02 -1.00000E+00  1.11149E-01
      21    -1     0     0   511   501  0.000000000E+00  0.000000000E+00  7.907763057E+02  7.907763057E+02  0.000000000E+00  0.00000E+00  9.000E+00
      21    -1     0     0   501   502  0.000000000E+00  0.000000000E+00 -1.861668701E+02  1.861668701E+02  0.000000000E+00  0.00000E+00  9.000E+00
      25     1     1     2     0     0  2.127541082E+01  5.815923566E+01  1.824267895E+02  2.296511993E+02  1.250000000E+02  0.00000E+00  9.000E+00
      25     1     1     2     0     0  1.563985009E+02 -1.632717531E+02 -2.017679059E+01  2.591336708E+02  1.250000000E+02  0.00000E+00  9.000E+00
      21     1     1     2   511   502 -1.776739117E+02  1.051125174E+02  4.423594367E+02  4.881583058E+02  5.394796609E-06  0.00000E+00  9.000E+00
#rwgt            1           1   2.8934440466063069E-002           9       65167           0
</event>
<event>
      5   9999  3.19816E-02  1.22255E+01 -1.00000E+00  1.86182E-01
       1    -1     0     0   502     0  0.000000000E+00  0.000000000E+00  5.651837973E+02  5.651837973E+02  0.000000000E+00  0.00000E+00  9.000E+00
      21    -1     0     0   501   502  0.000000000E+00  0.000000000E+00 -6.750212785E+02  6.750212785E+02  0.000000000E+00  0.00000E+00  9.000E+00
      25     1     1     2     0     0 -8.425687775E+01 -1.648898558E+02  1.418780269E+02  2.646549840E+02  1.250000000E+02  0.00000E+00  9.000E+00
      25     1     1     2     0     0  9.622423746E+01  1.623909248E+02 -5.926377507E+02  6.344087167E+02  1.250000000E+02  0.00000E+00  9.000E+00
       1     1     1     2   501     0 -1.196735971E+01  2.498931030E+00  3.409222425E+02  3.411413751E+02  3.814697266E-06  0.00000E+00  9.000E+00
#rwgt            1           1   2.9887683421485511E-002           9       65209           0
</event>
<event>
      5   9999  3.19816E-02  1.02484E+02 -1.00000E+00  1.23350E-01
      21    -1     0     0   502   501  0.000000000E+00  0.000000000E+00  5.683664123E+02  5.683664123E+02  0.000000000E+00  0.00000E+00  9.000E+00
      21    -1     0     0   511   502  0.000000000E+00  0.000000000E+00 -3.535547927E+02  3.535547927E+02  0.000000000E+00  0.00000E+00  9.000E+00
      25     1     1     2     0     0  2.127461040E+02 -1.558904744E+01  1.573946352E+02  2.930904201E+02  1.250000000E+02  0.00000E+00  9.000E+00
      25     1     1     2     0     0 -2.138399891E+02 -8.688930655E+01  2.799924892E+02  3.837943284E+02  1.250000000E+02  0.00000E+00  9.000E+00
      21     1     1     2   511   501  1.093885129E+00  1.024783540E+02 -2.225755048E+02  2.450364564E+02  2.697398305E-06  0.00000E+00  9.000E+00
#rwgt            2          11   3.3412822291088826E-003           9       65431           0
</event>
<event>
      5   9999  3.19816E-02  3.31425E+01 -1.00000E+00  1.50094E-01
      21    -1     0     0   512   501  0.000000000E+00  0.000000000E+00  7.224340212E+01  7.224340212E+01  0.000000000E+00  0.00000E+00  9.000E+00
      21    -1     0     0   501   502  0.000000000E+00  0.000000000E+00 -5.269069366E+02  5.269069366E+02  0.000000000E+00  0.00000E+00  9.000E+00
      25     1     1     2     0     0 -8.405487451E+01 -7.013556156E+01 -2.870195080E+02  3.316465240E+02  1.250000000E+02  0.00000E+00  9.000E+00
      25     1     1     2     0     0  6.757380748E+01  9.888973130E+01 -1.538561372E+02  2.316076626E+02  1.250000000E+02  0.00000E+00  9.000E+00
      21     1     1     2   512   502  1.648106703E+01 -2.875416974E+01 -1.378788935E+01  3.589615217E+01  6.743495762E-07  0.00000E+00  9.000E+00
#rwgt            1           1   2.5284353470444127E-002           9       65451           0
</event>
<event>
      5   9999  3.19816E-02  3.29282E+01 -1.00000E+00  1.50283E-01
      21    -1     0     0   502   501  0.000000000E+00  0.000000000E+00  9.927106438E+02  9.927106438E+02  0.000000000E+00  0.00000E+00  9.000E+00
      21    -1     0     0   511   502  0.000000000E+00  0.000000000E+00 -3.472821359E+02  3.472821359E+02  0.000000000E+00  0.00000E+00  9.000E+00
      25     1     1     2     0     0 -6.956153378E+01  2.564513875E+01  1.955550061E+02  2.436457275E+02  1.250000000E+02  0.00000E+00  9.000E+00
      25     1     1     2     0     0  1.013129639E+02 -1.692100178E+01  7.637752698E+02  7.807229341E+02  1.250000000E+02  0.00000E+00  9.000E+00
      21     1     1     2   511   501 -3.175143014E+01 -8.724136961E+00 -3.139017681E+02  3.156241180E+02  6.607249480E-06  0.00000E+00  9.000E+00
#rwgt            1           1   3.6848458325557408E-002           9       65550           0
</event>
<event>
      5   9999  3.19816E-02  4.07554E+02 -1.00000E+00  1.01442E-01
       2    -1     0     0   502     0  0.000000000E+00  0.000000000E+00  3.108331606E+03  3.108331606E+03  0.000000000E+00  0.00000E+00  9.000E+00
      21    -1     0     0   501   502  0.000000000E+00  0.000000000E+00 -1.922569435E+03  1.922569435E+03  0.000000000E+00  0.00000E+00  9.000E+00
      25     1     1     2     0     0  2.700202619E+02 -2.217083327E+03 -3.390279597E+02  2.262506216E+03  1.250000000E+02  0.00000E+00  9.000E+00
      25     1     1     2     0     0 -2.544603848E+02  1.809826159E+03  9.494305963E+02  2.063313905E+03  1.250000000E+02  0.00000E+00  9.000E+00
       2     1     1     2   501     0 -1.555987707E+01  4.072571675E+02  5.753595340E+02  7.050809199E+02  7.629394531E-06  0.00000E+00  9.000E+00
#rwgt            2          18   1.5723444042595109E-003           9       65699           0
</event>
<event>
      5   9999  3.19816E-02  1.31365E+02 -1.00000E+00  1.18724E-01
      21    -1     0     0   511   501  0.000000000E+00  0.000000000E+00  5.584785169E+02  5.584785169E+02  0.000000000E+00  0.00000E+00  9.000E+00
      21    -1     0     0   501   502  0.000000000E+00  0.000000000E+00 -8.303886938E+02  8.303886938E+02  0.000000000E+00  0.00000E+00  9.000E+00
      25     1     1     2     0     0 -9.646111566E+01 -4.796947267E+01 -7.781843237E+02  7.954883147E+02  1.250000000E+02  0.00000E+00  9.000E+00
      25     1     1     2     0     0 -2.137802631E+01 -1.008802160E+01  4.133145293E+02  4.324496367E+02  1.250000000E+02  0.00000E+00  9.000E+00
      21     1     1     2   511   502  1.178391420E+02  5.805749428E+01  9.295961747E+01  1.609292593E+02  0.000000000E+00  0.00000E+00  9.000E+00
#rwgt            1           1   2.9624723537275521E-002           9       65718           0
</event>
<event>
      5   9999  3.19816E-02  9.63198E+01 -1.00000E+00  1.24565E-01
      21    -1     0     0   502   512  0.000000000E+00  0.000000000E+00  1.122045651E+03  1.122045651E+03  0.000000000E+00  0.00000E+00  9.000E+00
      21    -1     0     0   501   502  0.000000000E+00  0.000000000E+00 -1.884834732E+02  1.884834732E+02  0.000000000E+00  0.00000E+00  9.000E+00
      25     1     1     2     0     0 -1.520568169E+02  1.050695989E+02  1.105207494E+02  2.489994623E+02  1.250000000E+02  0.00000E+00  9.000E+00
      25     1     1     2     0     0  1.901105552E+02 -1.658562360E+01 -4.726796488E+00  2.281763544E+02  1.250000000E+02  0.00000E+00  9.000E+00
      21     1     1     2   501   512 -3.805373823E+01 -8.848397527E+01  8.277682252E+02  8.333533077E+02  1.868812365E-05  0.00000E+00  9.000E+00
#rwgt            1           1   2.7262951029867248E-002           9       65764           0
</event>
<event>
      5   9999  3.19816E-02  8.85917E+01 -1.00000E+00  1.26241E-01
      21    -1     0     0   511   501  0.000000000E+00  0.000000000E+00  5.389784422E+02  5.389784422E+02  0.000000000E+00  0.00000E+00  9.000E+00
      21    -1     0     0   501   502  0.000000000E+00  0.000000000E+00 -2.295390527E+02  2.295390527E+02  0.000000000E+00  0.00000E+00  9.000E+00
      25     1     1     2     0     0  1.487791485E+02 -9.213140815E+01  1.548062701E+02  2.649781362E+02  1.250000000E+02  0.00000E+00  9.000E+00
      25     1     1     2     0     0 -1.785646586E+02  8.696894023E+00 -9.553742465E+01  2.381456966E+02  1.250000000E+02  0.00000E+00  9.000E+00
      21     1     1     2   511   502  2.978551017E+01  8.343451412E+01  2.501705441E+02  2.653936621E+02  2.697398305E-06  0.00000E+00  9.000E+00
#rwgt            2          11   1.8946387702488241E-003           9       65882           0
</event>
<event>
      5   9999  3.19816E-02  3.61585E+01 -1.00000E+00  1.47613E-01
      21    -1     0     0   502   501  0.000000000E+00  0.000000000E+00  1.633189950E+02  1.633189950E+02  0.000000000E+00  0.00000E+00  9.000E+00
      -1    -1     0     0     0   502  0.000000000E+00  0.000000000E+00 -2.129098151E+02  2.129098151E+02  0.000000000E+00  0.00000E+00  9.000E+00
      25     1     1     2     0     0  1.677031011E+01  2.137567364E+01 -5.951306500E+00  1.280569435E+02  1.250000000E+02  0.00000E+00  9.000E+00
      25     1     1     2     0     0 -5.282209314E+01 -1.859938125E+01  5.154648092E+01  1.463494113E+02  1.250000000E+02  0.00000E+00  9.000E+00
      -1     1     1     2     0   501  3.605178303E+01 -2.776292395E+00 -9.518599447E+01  1.018224553E+02  0.000000000E+00  0.00000E+00  9.000E+00
#rwgt            1           1   5.4846741677907198E-003           9       65902           0
</event>
<event>
      5   9999  3.19816E-02  5.44093E+01 -1.00000E+00  1.37013E-01
      -2    -1     0     0     0   501  0.000000000E+00  0.000000000E+00  9.076642308E+02  9.076642308E+02  0.000000000E+00  0.00000E+00  9.000E+00
      21    -1     0     0   501   502  0.000000000E+00  0.000000000E+00 -9.793642278E+02  9.793642278E+02  0.000000000E+00  0.00000E+00  9.000E+00
      25     1     1     2     0     0  3.665999776E+02  1.404125186E+02 -8.177769927E+00  4.120717108E+02  1.250000000E+02  0.00000E+00  9.000E+00
      25     1     1     2     0     0 -3.739522573E+02 -1.943227432E+02 -7.051961065E+02  8.309802452E+02  1.250000000E+02  0.00000E+00  9.000E+00
      -2     1     1     2     0   502  7.352279711E+00  5.391022465E+01  6.416738794E+02  6.439765025E+02  0.000000000E+00  0.00000E+00  9.000E+00
#rwgt            1           1   3.3389340668267181E-002           9       65963           0
</event>
<event>
      5   9999  3.19816E-02  3.19099E+01 -1.00000E+00  1.51201E-01
      21    -1     0     0   502   501  0.000000000E+00  0.000000000E+00  5.475846617E+02  5.475846617E+02  0.000000000E+00  0.00000E+00  9.000E+00
      21    -1     0     0   511   502  0.000000000E+00  0.000000000E+00 -9.724743275E+02  9.724743275E+02  0.000000000E+00  0.00000E+00  9.000E+00
      25     1     1     2     0     0 -8.761295600E+01  1.098165027E+02  3.831744845E+01  1.919086272E+02  1.250000000E+02  0.00000E+00  9.000E+00
      25     1     1     2     0     0  6.310287095E+01 -8.938371258E+01  4.162188408E+02  4.481456725E+02  1.250000000E+02  0.00000E+00  9.000E+00
      21     1     1     2   511   501  2.451008505E+01 -2.043279010E+01 -8.794259550E+02  8.800046895E+02  1.078959322E-05  0.00000E+00  9.000E+00
#rwgt            1           1   2.6955260805053491E-002           9       66073           0
</event>
<event>
      5   9999  3.19816E-02  5.96679E+01 -1.00000E+00  1.34832E-01
      21    -1     0     0   512   501  0.000000000E+00  0.000000000E+00  1.200764753E+02  1.200764753E+02  0.000000000E+00  0.00000E+00  9.000E+00
      21    -1     0     0   501   502  0.000000000E+00  0.000000000E+00 -4.707345436E+02  4.707345436E+02  0.000000000E+00  0.00000E+00  9.000E+00
      25     1     1     2     0     0  7.678099385E+01  4.373278920E+01 -1.931680326E+02  2.464685917E+02  1.250000000E+02  0.00000E+00  9.000E+00
      25     1     1     2     0     0 -1.073384674E+02 -9.498211668E+01 -1.961787908E+02  2.732293305E+02  1.250000000E+02  0.00000E+00  9.000E+00
      21     1     1     2   512   502  3.055747352E+01  5.124932748E+01  3.868875518E+01  7.111309677E+01  1.651812370E-06  0.00000E+00  9.000E+00
#rwgt            1           1   3.8940018286738057E-002           9       66179           0
</event>
<event>
      5   9999  3.19816E-02  1.46133E+03 -1.00000E+00  8.72036E-02
      21    -1     0     0   502   501  0.000000000E+00  0.000000000E+00  3.330686455E+03  3.330686455E+03  0.000000000E+00  0.00000E+00  9.000E+00
       5    -1     0     0   501     0  0.000000000E+00  0.000000000E+00 -8.640551797E+02  8.640551797E+02  0.000000000E+00  0.00000E+00  9.000E+00
      25     1     1     2     0     0  3.083401609E+01  9.389538064E+02  1.872689048E+03  2.098850700E+03  1.250000000E+02  0.00000E+00  9.000E+00
      25     1     1     2     0     0 -1.248277713E+02  5.193490576E+02  1.541666754E+02  5.698225863E+02  1.250000000E+02  0.00000E+00  9.000E+00
       5     1     1     2   502     0  9.399375520E+01 -1.458302864E+03  4.397755512E+02  1.526068349E+03  2.157918644E-05  0.00000E+00  9.000E+00
#rwgt            2          16   2.8543711573594698E-006           9       66239           0
</event>
<event>
      5   9999  3.19816E-02  7.77726E+01 -1.00000E+00  1.28946E-01
      21    -1     0     0   511   501  0.000000000E+00  0.000000000E+00  2.097369985E+02  2.097369985E+02  0.000000000E+00  0.00000E+00  9.000E+00
      21    -1     0     0   501   502  0.000000000E+00  0.000000000E+00 -1.129064504E+03  1.129064504E+03  0.000000000E+00  0.00000E+00  9.000E+00
      25     1     1     2     0     0  2.615477842E+02  2.461115824E+02 -1.558513625E+02  4.109656939E+02  1.250000000E+02  0.00000E+00  9.000E+00
      25     1     1     2     0     0 -3.320202021E+02 -2.132144347E+02 -7.377293587E+02  8.459121801E+02  1.250000000E+02  0.00000E+00  9.000E+00
      21     1     1     2   511   502  7.047241784E+01 -3.289714772E+01 -2.574678434E+01  8.192362851E+01  1.469710828E-06  0.00000E+00  9.000E+00
#rwgt            1           1   2.8789550226680182E-002           9       66288           0
</event>
<event>
      5   9999  3.19816E-02  6.10181E+02 -1.00000E+00  9.64555E-02
       2    -1     0     0   502     0  0.000000000E+00  0.000000000E+00  1.706539428E+03  1.706539428E+03  0.000000000E+00  0.00000E+00  9.000E+00
      21    -1     0     0   501   502  0.000000000E+00  0.000000000E+00 -8.010048440E+02  8.010048440E+02  0.000000000E+00  0.00000E+00  9.000E+00
      25     1     1     2     0     0  4.435908987E+02  5.808647094E+02 -4.490029531E+01  7.428443529E+02  1.250000000E+02  0.00000E+00  9.000E+00
      25     1     1     2     0     0 -1.302015997E+02 -5.731137201E+01 -3.106106620E+02  3.637870714E+02  1.250000000E+02  0.00000E+00  9.000E+00
       2     1     1     2   501     0 -3.133892990E+02 -5.235533374E+02  1.261045542E+03  1.400912848E+03  2.157918644E-05  0.00000E+00  9.000E+00
#rwgt            2          18   1.9423806919588349E-003           9       66404           0
</event>
<event>
      5   9999  3.19816E-02  9.24572E+01 -1.00000E+00  1.25379E-01
      21    -1     0     0   502   501  0.000000000E+00  0.000000000E+00  4.188366796E+02  4.188366796E+02  0.000000000E+00  0.00000E+00  9.000E+00
      21    -1     0     0   511   502  0.000000000E+00  0.000000000E+00 -7.331885811E+02  7.331885811E+02  0.000000000E+00  0.00000E+00  9.000E+00
      25     1     1     2     0     0  3.208877849E+02 -3.316069464E+02 -3.810515201E+02  6.113570138E+02  1.250000000E+02  0.00000E+00  9.000E+00
      25     1     1     2     0     0 -2.296034930E+02  3.169265369E+02  1.273184526E+02  4.301106627E+02  1.250000000E+02  0.00000E+00  9.000E+00
      21     1     1     2   511   501 -9.128429188E+01  1.468040947E+01 -6.061883401E+01  1.105575841E+02  1.784161275E-06  0.00000E+00  9.000E+00
#rwgt            2          11   4.9888500440116879E-003           9       66588           0
</event>
<event>
      5   9999  3.19816E-02  1.60339E+02 -1.00000E+00  1.15258E-01
       2    -1     0     0   502     0  0.000000000E+00  0.000000000E+00  1.694126368E+03  1.694126368E+03  0.000000000E+00  0.00000E+00  9.000E+00
      21    -1     0     0   501   502  0.000000000E+00  0.000000000E+00 -7.589025314E+02  7.589025314E+02  0.000000000E+00  0.00000E+00  9.000E+00
      25     1     1     2     0     0  1.776363723E+02 -1.332699226E+02 -1.520890134E+02  2.967686322E+02  1.250000000E+02  0.00000E+00  9.000E+00
      25     1     1     2     0     0 -2.201226411E+02 -2.133798266E+01 -5.000192036E+02  5.608506847E+02  1.250000000E+02  0.00000E+00  9.000E+00
       2     1     1     2   501     0  4.248626876E+01  1.546079053E+02  1.587332053E+03  1.595409582E+03  2.157918644E-05  0.00000E+00  9.000E+00
#rwgt            1           1   2.6743712819299274E-002           9       66638           0
</event>
<event>
      5   9999  3.19816E-02  1.15054E+01 -1.00000E+00  1.88971E-01
      21    -1     0     0   502   501  0.000000000E+00  0.000000000E+00  2.439775389E+03  2.439775389E+03  0.000000000E+00  0.00000E+00  9.000E+00
      21    -1     0     0   511   502  0.000000000E+00  0.000000000E+00 -6.460287103E+02  6.460287103E+02  0.000000000E+00  0.00000E+00  9.000E+00
      25     1     1     2     0     0 -1.058982193E+02  1.371547667E+02  2.225195805E+03  2.235429989E+03  1.250000000E+02  0.00000E+00  9.000E+00
      25     1     1     2     0     0  1.115946697E+02 -1.471509685E+02  1.500330310E+02  2.687781394E+02  1.250000000E+02  0.00000E+00  9.000E+00
      21     1     1     2   511   501 -5.696450443E+00  9.996201779E+00 -5.814821578E+02  5.815959710E+02  1.525878906E-05  0.00000E+00  9.000E+00
#rwgt            1           1   8.5780926242930780E-002           9       66730           0
</event>
<event>
      5   9999  3.19816E-02  7.15994E+01 -1.00000E+00  1.30726E-01
      21    -1     0     0   502   512  0.000000000E+00  0.000000000E+00  6.858198027E+02  6.858198027E+02  0.000000000E+00  0.00000E+00  9.000E+00
      21    -1     0     0   501   502  0.000000000E+00  0.000000000E+00 -2.835837988E+02  2.835837988E+02  0.000000000E+00  0.00000E+00  9.000E+00
      25     1     1     2     0     0 -2.269806931E+02 -2.759656791E+02 -3.178336961E+01  3.798848163E+02  1.250000000E+02  0.00000E+00  9.000E+00
      25     1     1     2     0     0  2.220223341E+02  2.045381850E+02  3.681566163E+02  4.922337657E+02  1.250000000E+02  0.00000E+00  9.000E+00
      21     1     1     2   501   512  4.958358975E+00  7.142749413E+01  6.586275718E+01  9.728501953E+01  0.000000000E+00  0.00000E+00  9.000E+00
#rwgt            2          11   3.9412385977424620E-003           9       67039           0
</event>
<event>
      5   9999  3.19816E-02  4.13019E+01 -1.00000E+00  1.43983E-01
      21    -1     0     0   502   501  0.000000000E+00  0.000000000E+00  5.303746173E+02  5.303746173E+02  0.000000000E+00  0.00000E+00  9.000E+00
       2    -1     0     0   501     0  0.000000000E+00  0.000000000E+00 -4.549984194E+03  4.549984194E+03  0.000000000E+00  0.00000E+00  9.000E+00
      25     1     1     2     0     0 -1.050175665E+03  4.114243365E+02 -2.275790394E+03  2.543026903E+03  1.250000000E+02  0.00000E+00  9.000E+00
      25     1     1     2     0     0  1.062583465E+03 -4.508183751E+02 -4.536357413E+02  1.246487550E+03  1.250000000E+02  0.00000E+00  9.000E+00
       2     1     1     2   502     0 -1.240780005E+01  3.939403860E+01 -1.290183442E+03  1.290844358E+03  1.525878906E-05  0.00000E+00  9.000E+00
#rwgt            1           1   5.4823044451181462E-002           9       67074           0
</event>
<event>
      5   9999  3.19816E-02  8.15264E+01 -1.00000E+00  1.27953E-01
      21    -1     0     0   502   511  0.000000000E+00  0.000000000E+00  1.889799095E+02  1.889799095E+02  0.000000000E+00  0.00000E+00  9.000E+00
      21    -1     0     0   501   502  0.000000000E+00  0.000000000E+00 -2.061015514E+02  2.061015514E+02  0.000000000E+00  0.00000E+00  9.000E+00
      25     1     1     2     0     0  1.225991426E+01  1.129312502E+00  4.565153628E+01  1.336437189E+02  1.250000000E+02  0.00000E+00  9.000E+00
      25     1     1     2     0     0 -1.031428114E+01  8.037382810E+01 -9.170281778E+01  1.749306818E+02  1.250000000E+02  0.00000E+00  9.000E+00
      21     1     1     2   501   511 -1.945633118E+00 -8.150314060E+01  2.892963958E+01  8.650706018E+01  7.539457465E-07  0.00000E+00  9.000E+00
#rwgt            1           1   4.3789218922515992E-002           9       67247           0
</event>
<event>
      5   9999  3.19816E-02  3.91946E+01 -1.00000E+00  1.45390E-01
      21    -1     0     0   512   501  0.000000000E+00  0.000000000E+00  1.049022545E+03  1.049022545E+03  0.000000000E+00  0.00000E+00  9.000E+00
      21    -1     0     0   501   502  0.000000000E+00  0.000000000E+00 -2.425731049E+02  2.425731049E+02  0.000000000E+00  0.00000E+00  9.000E+00
      25     1     1     2     0     0 -1.832286241E+02 -2.671553912E+02 -3.728837535E+01  3.492279409E+02  1.250000000E+02  0.00000E+00  9.000E+00
      25     1     1     2     0     0  1.885294717E+02  3.059898576E+02  7.651653533E+02  8.545619770E+02  1.250000000E+02  0.00000E+00  9.000E+00
      21     1     1     2   512   502 -5.300847547E+00 -3.883446639E+01  7.857246168E+01  8.780573158E+01  0.000000000E+00  0.00000E+00  9.000E+00
#rwgt            1           1   2.7606380704552083E-002           9       67291           0
</event>
<event>
      5   9999  3.19816E-02  5.25915E+01 -1.00000E+00  1.37835E-01
      21    -1     0     0   502   511  0.000000000E+00  0.000000000E+00  4.053617650E+02  4.053617650E+02  0.000000000E+00  0.00000E+00  9.000E+00
      21    -1     0     0   501   502  0.000000000E+00  0.000000000E+00 -1.378825581E+02  1.378825581E+02  0.000000000E+00  0.00000E+00  9.000E+00
      25     1     1     2     0     0  7.867695463E+01 -6.861892495E+01 -1.557789556E+01  1.636040674E+02  1.250000000E+02  0.00000E+00  9.000E+00
      25     1     1     2     0     0 -1.229197019E+02  9.705206188E+01  2.260568002E+02  3.020844795E+02  1.250000000E+02  0.00000E+00  9.000E+00
      21     1     1     2   501   511  4.424274732E+01 -2.843313694E+01  5.700030218E+01  7.755577615E+01  1.168007728E-06  0.00000E+00  9.000E+00
#rwgt            2          11   2.0449002810493163E-003           9       67588           0
</event>
<event>
      5   9999  3.19816E-02  1.24395E+02 -1.00000E+00  1.19709E-01
      21    -1     0     0   512   501  0.000000000E+00  0.000000000E+00  4.007423523E+02  4.007423523E+02  0.000000000E+00  0.00000E+00  9.000E+00
      21    -1     0     0   501   502  0.000000000E+00  0.000000000E+00 -3.722309977E+02  3.722309977E+02  0.000000000E+00  0.00000E+00  9.000E+00
      25     1     1     2     0     0 -1.502444328E+02  1.981662640E+02 -2.123523105E+02  3.500882197E+02  1.250000000E+02  0.00000E+00  9.000E+00
      25     1     1     2     0     0  1.461869054E+02 -7.383712414E+01  8.353278051E+01  2.223179202E+02  1.250000000E+02  0.00000E+00  9.000E+00
      21     1     1     2   512   502  4.057527354E+00 -1.243291399E+02  1.573308846E+02  2.005672101E+02  1.907348633E-06  0.00000E+00  9.000E+00
#rwgt            2          11   2.7927183829566226E-003           9       67833           0
</event>
<event>
      5   9999  3.19816E-02  1.16975E+02 -1.00000E+00  1.20841E-01
      21    -1     0     0   502   501  0.000000000E+00  0.000000000E+00  2.767916029E+02  2.767916029E+02  0.000000000E+00  0.00000E+00  9.000E+00
      21    -1     0     0   511   502  0.000000000E+00  0.000000000E+00 -7.780406470E+02  7.780406470E+02  0.000000000E+00  0.00000E+00  9.000E+00
      25     1     1     2     0     0  1.075303421E+02 -2.832215734E+02 -9.342860014E+01  3.407801893E+02  1.250000000E+02  0.00000E+00  9.000E+00
      25     1     1     2     0     0 -7.024269388E+01  1.723484980E+02  5.979220226E+01  2.320304899E+02  1.250000000E+02  0.00000E+00  9.000E+00
      21     1     1     2   511   501 -3.728764820E+01  1.108730754E+02 -4.676126463E+02  4.820215706E+02  5.394796609E-06  0.00000E+00  9.000E+00
#rwgt            1           1   2.4447884880419001E-002           9       67853           0
</event>
<event>
      5   9999  3.19816E-02  5.31517E+01 -1.00000E+00  1.37578E-01
      21    -1     0     0   502   512  0.000000000E+00  0.000000000E+00  9.805793276E+02  9.805793276E+02  0.000000000E+00  0.00000E+00  9.000E+00
      21    -1     0     0   501   502  0.000000000E+00  0.000000000E+00 -1.349565639E+02  1.349565639E+02  0.000000000E+00  0.00000E+00  9.000E+00
      25     1     1     2     0     0 -1.567144574E+01 -7.824869293E+01 -7.025881823E+01  1.641028753E+02  1.250000000E+02  0.00000E+00  9.000E+00
      25     1     1     2     0     0  2.711207985E+01  1.301544964E+02  8.345903621E+02  8.543075151E+02  1.250000000E+02  0.00000E+00  9.000E+00
      21     1     1     2   501   512 -1.144063411E+01 -5.190580351E+01  8.129121982E+01  9.712550111E+01  1.348699152E-06  0.00000E+00  9.000E+00
#rwgt            1           1   2.5165795425071268E-002           9       67925           0
</event>
<event>
      5   9999  3.19816E-02  3.13727E+01 -1.00000E+00  1.51702E-01
      21    -1     0     0   511   501  0.000000000E+00  0.000000000E+00  1.841346786E+03  1.841346786E+03  0.000000000E+00  0.00000E+00  9.000E+00
      21    -1     0     0   501   502  0.000000000E+00  0.000000000E+00 -7.510444677E+01  7.510444677E+01  0.000000000E+00  0.00000E+00  9.000E+00
      25     1     1     2     0     0  1.777738052E+02  4.560494097E+01  1.297903658E+03  1.316762030E+03  1.250000000E+02  0.00000E+00  9.000E+00
      25     1     1     2     0     0 -2.090852267E+02 -4.364543062E+01  1.712618691E+02  3.009604350E+02  1.250000000E+02  0.00000E+00  9.000E+00
      21     1     1     2   511   502  3.131142150E+01 -1.959510358E+00  2.970768117E+02  2.987287680E+02  5.394796609E-06  0.00000E+00  9.000E+00
#rwgt            1           1   2.9017619600579612E-002           9       68014           0
</event>
<event>
      5   9999  3.19816E-02  8.36773E+01 -1.00000E+00  1.27412E-01
      21    -1     0     0   502   501  0.000000000E+00  0.000000000E+00  1.587178659E+03  1.587178659E+03  0.000000000E+00  0.00000E+00  9.000E+00
      21    -1     0     0   512   502  0.000000000E+00  0.000000000E+00 -2.093366645E+02  2.093366645E+02  0.000000000E+00  0.00000E+00  9.000E+00
      25     1     1     2     0     0 -1.423080364E+02  1.553312278E+02  1.295809967E+03  1.318759962E+03  1.250000000E+02  0.00000E+00  9.000E+00
      25     1     1     2     0     0  1.531206799E+02 -2.383070286E+02  1.725793996E+02  3.544641472E+02  1.250000000E+02  0.00000E+00  9.000E+00
      21     1     1     2   512   501 -1.081264352E+01  8.297580080E+01 -9.054737231E+01  1.232912138E+02  3.303624740E-06  0.00000E+00  9.000E+00
#rwgt            1           1   3.0840731370562643E-002           9       68125           0
</event>
<event>
      5   9999  3.19816E-02  4.20572E+01 -1.00000E+00  1.43502E-01
      21    -1     0     0   502   501  0.000000000E+00  0.000000000E+00  3.846099548E+02  3.846099548E+02  0.000000000E+00  0.00000E+00  9.000E+00
      21    -1     0     0   501   511  0.000000000E+00  0.000000000E+00 -4.923163394E+02  4.923163394E+02  0.000000000E+00  0.00000E+00  9.000E+00
      25     1     1     2     0     0  2.009508598E+02 -3.177112232E+01 -3.317901252E+02  4.087790839E+02  1.250000000E+02  0.00000E+00  9.000E+00
      25     1     1     2     0     0 -1.960693655E+02  7.354410141E+01  2.967998261E+02  3.841445922E+02  1.250000000E+02  0.00000E+00  9.000E+00
      21     1     1     2   502   511 -4.881494236E+00 -4.177297908E+01 -7.271608554E+01  8.400261820E+01  1.651812370E-06  0.00000E+00  9.000E+00
#rwgt            2          11   2.3178102630075884E-003           9       68233           0
</event>
<event>
      5   9999  3.19816E-02  4.18370E+01 -1.00000E+00  1.43641E-01
      21    -1     0     0   512   501  0.000000000E+00  0.000000000E+00  7.721815916E+01  7.721815916E+01  0.000000000E+00  0.00000E+00  9.000E+00
      21    -1     0     0   501   502  0.000000000E+00  0.000000000E+00 -1.011186137E+03  1.011186137E+03  0.000000000E+00  0.00000E+00  9.000E+00
      25     1     1     2     0     0 -1.867978396E+02 -1.397665924E+02 -6.167458694E+02  6.711397773E+02  1.250000000E+02  0.00000E+00  9.000E+00
      25     1     1     2     0     0  1.499479710E+02  1.199569120E+02 -2.724098796E+02  3.559581398E+02  1.250000000E+02  0.00000E+00  9.000E+00
      21     1     1     2   512   502  3.684986860E+01  1.980968046E+01 -4.481222846E+01  6.130637875E+01  1.168007728E-06  0.00000E+00  9.000E+00
#rwgt            1           1   2.6360327653513285E-002           9       68268           0
</event>
<event>
      5   9999  3.19816E-02  2.77846E+01 -1.00000E+00  1.55390E-01
      21    -1     0     0   502   501  0.000000000E+00  0.000000000E+00  6.696324996E+02  6.696324996E+02  0.000000000E+00  0.00000E+00  9.000E+00
      21    -1     0     0   511   502  0.000000000E+00  0.000000000E+00 -1.652674039E+02  1.652674039E+02  0.000000000E+00  0.00000E+00  9.000E+00
      25     1     1     2     0     0 -4.770115918E+01  9.563427061E+01  2.010318439E+02  2.597308541E+02  1.250000000E+02  0.00000E+00  9.000E+00
      25     1     1     2     0     0  2.342910408E+01 -1.091565981E+02  4.215954013E+02  4.536868614E+02  1.250000000E+02  0.00000E+00  9.000E+00
      21     1     1     2   511   501  2.427205510E+01  1.352232745E+01 -1.182621496E+02  1.214821881E+02  2.336015456E-06  0.00000E+00  9.000E+00
#rwgt            1           1   2.9704502846465159E-002           9       68360           0
</event>
<event>
      5   9999  3.19816E-02  2.10194E+02 -1.00000E+00  1.10868E-01
      21    -1     0     0   502   501  0.000000000E+00  0.000000000E+00  6.806831980E+02  6.806831980E+02  0.000000000E+00  0.00000E+00  9.000E+00
       1    -1     0     0   501     0  0.000000000E+00  0.000000000E+00 -1.113460337E+03  1.113460337E+03  0.000000000E+00  0.00000E+00  9.000E+00
      25     1     1     2     0     0 -1.324016661E+02  6.055874601E+01  1.366407289E+02  2.355700569E+02  1.250000000E+02  0.00000E+00  9.000E+00
      25     1     1     2     0     0  1.691629181E+02 -2.675129580E+02  4.237093686E+02  5.434463217E+02  1.250000000E+02  0.00000E+00  9.000E+00
       1     1     1     2   502     0 -3.676125199E+01  2.069542119E+02 -9.931272363E+02  1.015127156E+03  1.078959322E-05  0.00000E+00  9.000E+00
#rwgt            1           1   2.6753175039961333E-002           9       68432           0
</event>
<event>
      5   9999  3.19816E-02  2.01090E+02 -1.00000E+00  1.11562E-01
       2    -1     0     0   502     0  0.000000000E+00  0.000000000E+00  4.393977309E+02  4.393977309E+02  0.000000000E+00  0.00000E+00  9.000E+00
      21    -1     0     0   501   502  0.000000000E+00  0.000000000E+00 -4.158395799E+02  4.158395799E+02  0.000000000E+00  0.00000E+00  9.000E+00
      25     1     1     2     0     0 -2.243035618E+02  1.105034455E+02 -1.765913424E+02  3.306548072E+02  1.250000000E+02  0.00000E+00  9.000E+00
      25     1     1     2     0     0  2.347205484E+02  9.031702969E+01  8.789228483E+01  2.942804027E+02  1.250000000E+02  0.00000E+00  9.000E+00
       2     1     1     2   501     0 -1.041698664E+01 -2.008204751E+02  1.122572085E+02  2.303021010E+02  4.046097457E-06  0.00000E+00  9.000E+00
#rwgt            1           1   2.6693446143469392E-002           9       68496           0
</event>
<event>
      5   9999  3.19816E-02  1.01966E+02 -1.00000E+00  1.23449E-01
      21    -1     0     0   511   501  0.000000000E+00  0.000000000E+00  7.463333919E+02  7.463333919E+02  0.000000000E+00  0.00000E+00  9.000E+00
      21    -1     0     0   501   502  0.000000000E+00  0.000000000E+00 -8.556270434E+01  8.556270434E+01  0.000000000E+00  0.00000E+00  9.000E+00
      25     1     1     2     0     0  1.222811934E+02  1.215548795E+02  2.480593393E+02  3.269353373E+02  1.250000000E+02  0.00000E+00  9.000E+00
      25     1     1     2     0     0 -2.197632455E+01 -1.398869026E+02  2.614489572E+02  3.225397055E+02  1.250000000E+02  0.00000E+00  9.000E+00
      21     1     1     2   511   502 -1.003048689E+02  1.833202317E+01  1.512623910E+02  1.824210534E+02  3.814697266E-06  0.00000E+00  9.000E+00
#rwgt            2          11   2.9350314680661595E-003           9       68531           0
</event>
<event>
      5   9999  3.19816E-02  4.36006E+00 -1.00000E+00  2.54951E-01
      21    -1     0     0   502   501  0.000000000E+00  0.000000000E+00  2.962632653E+02  2.962632653E+02  0.000000000E+00  0.00000E+00  9.000E+00
      21    -1     0     0   512   502  0.000000000E+00  0.000000000E+00 -9.834991510E+01  9.834991510E+01  0.000000000E+00  0.00000E+00  9.000E+00
      25     1     1     2     0     0 -4.709902058E+01 -6.439234881E+01  1.898363153E+02  2.408890179E+02  1.250000000E+02  0.00000E+00  9.000E+00
      25     1     1     2     0     0  4.602664021E+01  6.016621983E+01  1.347858322E+01  1.467824847E+02  1.250000000E+02  0.00000E+00  9.000E+00
      21     1     1     2   512   501  1.072380369E+00  4.226128982E+00 -5.401548343E+00  6.941677775E+00  1.332800375E-07  0.00000E+00  9.000E+00
#rwgt            1           1   2.8178918567674082E-002           9       68566           0
</event>
<event>
      5   9999  3.22724E-02  1.31855E+02 -1.00000E+00  1.18657E-01
      21    -1     0     0   502   501  0.000000000E+00  0.000000000E+00  1.807205246E+03  1.807205246E+03  0.000000000E+00  0.00000E+00  9.000E+00
       2    -1     0     0   501     0  0.000000000E+00  0.000000000E+00 -1.480351943E+03  1.480351943E+03  0.000000000E+00  0.00000E+00  9.000E+00
      25     1     1     2     0     0 -7.058483264E+02 -8.661976624E+02 -5.362944673E+02  1.245695390E+03  1.250000000E+02  0.00000E+00  9.000E+00
      25     1     1     2     0     0  5.768380395E+02  8.389586921E+02  1.259377464E+03  1.624269192E+03  1.250000000E+02  0.00000E+00  9.000E+00
       2     1     1     2   502     0  1.290102869E+02  2.723897030E+01 -3.962296930E+02  4.175926068E+02  5.394796609E-06  0.00000E+00  9.000E+00
#rwgt            1           1   5.6653514856261952E-002           9       68961           0
</event>
<event>
      5   9999  3.19816E-02  1.96394E+02 -1.00000E+00  1.11936E-01
       1    -1     0     0   502     0  0.000000000E+00  0.000000000E+00  2.371923219E+03  2.371923219E+03  0.000000000E+00  0.00000E+00  9.000E+00
      21    -1     0     0   501   502  0.000000000E+00  0.000000000E+00 -1.184494623E+02  1.184494623E+02  0.000000000E+00  0.00000E+00  9.000E+00
      25     1     1     2     0     0 -1.250432026E+02  1.046126525E+01  1.302348069E+02  2.198439117E+02  1.250000000E+02  0.00000E+00  9.000E+00
      25     1     1     2     0     0  3.214344379E+02 -9.442957486E+00  3.683856107E+02  5.047199476E+02  1.250000000E+02  0.00000E+00  9.000E+00
       1     1     1     2   501     0 -1.963912353E+02 -1.018307768E+00  1.754853340E+03  1.765808823E+03  2.157918644E-05  0.00000E+00  9.000E+00
#rwgt            1           1   2.7603089703791796E-002           9       69048           0
</event>
<event>
      5   9999  3.19816E-02  1.81588E+02 -1.00000E+00  1.13197E-01
      21    -1     0     0   502   501  0.000000000E+00  0.000000000E+00  9.031800472E+01  9.031800472E+01  0.000000000E+00  0.00000E+00  9.000E+00
       2    -1     0     0   501     0  0.000000000E+00  0.000000000E+00 -1.572248884E+03  1.572248884E+03  0.000000000E+00  0.00000E+00  9.000E+00
      25     1     1     2     0     0  1.623766939E+01 -1.531736942E+02 -2.069952092E+02  2.867016902E+02  1.250000000E+02  0.00000E+00  9.000E+00
      25     1     1     2     0     0  1.585785719E+02  1.040457980E+02 -2.619002768E+02  3.466834962E+02  1.250000000E+02  0.00000E+00  9.000E+00
       2     1     1     2   502     0 -1.748162413E+02  4.912789626E+01 -1.013035394E+03  1.029181703E+03  1.078959322E-05  0.00000E+00  9.000E+00
#rwgt            1           1   2.6699005637444023E-002           9       69087           0
</event>
<event>
      5   9999  3.19816E-02  2.82409E+01 -1.00000E+00  1.54885E-01
       1    -1     0     0   502     0  0.000000000E+00  0.000000000E+00  1.410556950E+03  1.410556950E+03  0.000000000E+00  0.00000E+00  9.000E+00
      21    -1     0     0   501   502  0.000000000E+00  0.000000000E+00 -2.046832241E+02  2.046832241E+02  0.000000000E+00  0.00000E+00  9.000E+00
      25     1     1     2     0     0 -1.589427991E+02 -1.540231435E+02  4.751965093E+02  5.389087720E+02  1.250000000E+02  0.00000E+00  9.000E+00
      25     1     1     2     0     0  1.428692247E+02  1.308027043E+02 -9.560103749E+01  2.495706737E+02  1.250000000E+02  0.00000E+00  9.000E+00
       1     1     1     2   501     0  1.607357442E+01  2.322043924E+01  8.262782537E+02  8.267607278E+02  1.078959322E-05  0.00000E+00  9.000E+00
#rwgt            1           1   2.8314745404769765E-002           9       69134           0
</event>
<event>
      5   9999  3.19816E-02  5.47559E+01 -1.00000E+00  1.36861E-01
      21    -1     0     0   502   501  0.000000000E+00  0.000000000E+00  3.939530563E+02  3.939530563E+02  0.000000000E+00  0.00000E+00  9.000E+00
      21    -1     0     0   501   511  0.000000000E+00  0.000000000E+00 -6.664128708E+02  6.664128708E+02  0.000000000E+00  0.00000E+00  9.000E+00
      25     1     1     2     0     0 -5.626992812E+00  2.359800990E+02  2.269413097E+02  3.504934068E+02  1.250000000E+02  0.00000E+00  9.000E+00
      25     1     1     2     0     0 -2.706155215E+01 -1.920520927E+02 -2.473976031E+01  2.320633312E+02  1.250000000E+02  0.00000E+00  9.000E+00
      21     1     1     2   502   511  3.268854496E+01 -4.392800624E+01 -4.746613640E+02  4.778091891E+02  5.394796609E-06  0.00000E+00  9.000E+00
#rwgt            1           1   2.7931055701674288E-002           9       69308           0
</event>
<event>
      5   9999  3.19816E-02  8.16998E+00 -1.00000E+00  2.06484E-01
      -2    -1     0     0     0   501  0.000000000E+00  0.000000000E+00  8.097876357E+02  8.097876357E+02  0.000000000E+00  0.00000E+00  9.000E+00
      21    -1     0     0   501   502  0.000000000E+00  0.000000000E+00 -9.151372730E+01  9.151372730E+01  0.000000000E+00  0.00000E+00  9.000E+00
      25     1     1     2     0     0 -1.145124962E+02  9.269805096E+01  7.089094004E+01  2.058071083E+02  1.250000000E+02  0.00000E+00  9.000E+00
      25     1     1     2     0     0  1.184188406E+02 -9.987363876E+01  3.888991271E+02  4.368813301E+02  1.250000000E+02  0.00000E+00  9.000E+00
      -2     1     1     2     0   502 -3.906344351E+00  7.175587794E+00  2.584838413E+02  2.586129246E+02  3.814697266E-06  0.00000E+00  9.000E+00
#rwgt            1           1   2.8621739751700209E-002           9       69402           0
</event>
<event>
      5   9999  3.19816E-02  2.18678E+01 -1.00000E+00  1.63232E-01
      21    -1     0     0   502   501  0.000000000E+00  0.000000000E+00  5.135227598E+01  5.135227598E+01  0.000000000E+00  0.00000E+00  9.000E+00
      21    -1     0     0   501   511  0.000000000E+00  0.000000000E+00 -7.040906737E+02  7.040906737E+02  0.000000000E+00  0.00000E+00  9.000E+00
      25     1     1     2     0     0 -9.997293076E+01  6.143153579E+01 -2.018834863E+02  2.648591371E+02  1.250000000E+02  0.00000E+00  9.000E+00
      25     1     1     2     0     0  8.588678544E+01 -7.815820211E+01 -3.827916351E+02  4.190938802E+02  1.250000000E+02  0.00000E+00  9.000E+00
      21     1     1     2   502   511  1.408614531E+01  1.672666631E+01 -6.806327628E+01  7.148993240E+01  1.651812370E-06  0.00000E+00  9.000E+00
#rwgt            1           1   2.8297016093522719E-002           9       69681           0
</event>
<event>
      5   9999  3.19816E-02  5.57830E+01 -1.00000E+00  1.36417E-01
      21    -1     0     0   502   501  0.000000000E+00  0.000000000E+00  2.358039277E+02  2.358039277E+02  0.000000000E+00  0.00000E+00  9.000E+00
      21    -1     0     0   501   512  0.000000000E+00  0.000000000E+00 -2.977043449E+02  2.977043449E+02  0.000000000E+00  0.00000E+00  9.000E+00
      25     1     1     2     0     0  6.809373314E+01  7.772205092E+01  1.144977224E+02  1.985250667E+02  1.250000000E+02  0.00000E+00  9.000E+00
      25     1     1     2     0     0 -8.858311118E+01 -1.296058865E+02 -6.592379261E+01  2.112240513E+02  1.250000000E+02  0.00000E+00  9.000E+00
      21     1     1     2   502   512  2.048937805E+01  5.188383559E+01 -1.104743470E+02  1.237591546E+02  1.348699152E-06  0.00000E+00  9.000E+00
#rwgt            1           1   2.5461998542860392E-002           9       69812           0
</event>
<event>
      5   9999  3.19816E-02  8.48917E+01 -1.00000E+00  1.27114E-01
      21    -1     0     0   502   501  0.000000000E+00  0.000000000E+00  1.328583337E+02  1.328583337E+02  0.000000000E+00  0.00000E+00  9.000E+00
       2    -1     0     0   501     0  0.000000000E+00  0.000000000E+00 -6.921934232E+02  6.921934232E+02  0.000000000E+00  0.00000E+00  9.000E+00
      25     1     1     2     0     0 -6.733370005E+01  1.341699870E+02 -1.075603427E+02  2.230014347E+02  1.250000000E+02  0.00000E+00  9.000E+00
      25     1     1     2     0     0  4.623602964E+01 -2.163983090E+02 -1.650895091E+02  3.030602986E+02  1.250000000E+02  0.00000E+00  9.000E+00
       2     1     1     2   502     0  2.109767041E+01  8.222832204E+01 -2.866852377E+02  2.989900235E+02  3.814697266E-06  0.00000E+00  9.000E+00
#rwgt            1           1   2.6831350208285424E-002           9       69893           0
</event>
<event>
      5   9999  3.19816E-02  6.20967E+01 -1.00000E+00  1.33911E-01
      21    -1     0     0   502   511  0.000000000E+00  0.000000000E+00  8.677023470E+02  8.677023470E+02  0.000000000E+00  0.00000E+00  9.000E+00
      21    -1     0     0   501   502  0.000000000E+00  0.000000000E+00 -9.997321351E+02  9.997321351E+02  0.000000000E+00  0.00000E+00  9.000E+00
      25     1     1     2     0     0 -6.182770973E+01  7.885678569E+02  1.953955965E+02  8.242975008E+02  1.250000000E+02  0.00000E+00  9.000E+00
      25     1     1     2     0     0  8.371177922E+00 -8.201653771E+02 -4.213519009E+02  9.305394923E+02  1.250000000E+02  0.00000E+00  9.000E+00
      21     1     1     2   501   511  5.345653181E+01  3.159752014E+01  9.392651633E+01  1.125974891E+02  1.348699152E-06  0.00000E+00  9.000E+00
#rwgt            1           1   3.4203873380618158E-002           9       69932           0
</event>
<event>
      5   9999  3.19816E-02  1.23942E+02 -1.00000E+00  1.19775E-01
      21    -1     0     0   502   501  0.000000000E+00  0.000000000E+00  6.859802099E+02  6.859802099E+02  0.000000000E+00  0.00000E+00  9.000E+00
      21    -1     0     0   512   502  0.000000000E+00  0.000000000E+00 -1.120956331E+03  1.120956331E+03  0.000000000E+00  0.00000E+00  9.000E+00
      25     1     1     2     0     0 -3.588423368E+02  4.052535983E+02 -2.022806280E+02  5.912197173E+02  1.250000000E+02  0.00000E+00  9.000E+00
      25     1     1     2     0     0  4.024627404E+02 -2.892409151E+02  3.503244081E+02  6.196682622E+02  1.250000000E+02  0.00000E+00  9.000E+00
      21     1     1     2   512   501 -4.362040352E+01 -1.160126833E+02 -5.830199016E+02  5.960485618E+02  1.078959322E-05  0.00000E+00  9.000E+00
#rwgt            1           1   2.5082991259844371E-002           9       70079           0
</event>
<event>
      5   9999  3.19816E-02  2.33464E+01 -1.00000E+00  1.61010E-01
      21    -1     0     0   502   501  0.000000000E+00  0.000000000E+00  1.663383932E+02  1.663383932E+02  0.000000000E+00  0.00000E+00  9.000E+00
      21    -1     0     0   501   511  0.000000000E+00  0.000000000E+00 -3.545409256E+03  3.545409256E+03  0.000000000E+00  0.00000E+00  9.000E+00
      25     1     1     2     0     0 -7.236801189E+02  1.801551580E+02 -1.483693057E+03  1.665274417E+03  1.250000000E+02  0.00000E+00  9.000E+00
      25     1     1     2     0     0  7.135470427E+02 -1.591224272E+02 -1.772862186E+03  1.921753017E+03  1.250000000E+02  0.00000E+00  9.000E+00
      21     1     1     2   502   511  1.013307621E+01 -2.103273079E+01 -1.225156203E+02  1.247202157E+02  1.348699152E-06  0.00000E+00  9.000E+00
#rwgt            1           1   4.7623393308615369E-002           9       70213           0
</event>
<event>
      5   9999  3.19816E-02  1.46514E+02 -1.00000E+00  1.16800E-01
      21    -1     0     0   512   501  0.000000000E+00  0.000000000E+00  2.999302993E+03  2.999302993E+03  0.000000000E+00  0.00000E+00  9.000E+00
      21    -1     0     0   501   502  0.000000000E+00  0.000000000E+00 -8.489112877E+02  8.489112877E+02  0.000000000E+00  0.00000E+00  9.000E+00
      25     1     1     2     0     0 -9.868012872E+01 -1.165823912E+02 -3.009730683E+02  3.599152811E+02  1.250000000E+02  0.00000E+00  9.000E+00
      25     1     1     2     0     0  1.451468677E+02  2.555325978E+02 -4.672762300E+02  5.659828591E+02  1.250000000E+02  0.00000E+00  9.000E+00
      21     1     1     2   512   502 -4.646673898E+01 -1.389502067E+02  2.918641004E+03  2.922316141E+03  0.000000000E+00  0.00000E+00  9.000E+00
#rwgt            1           1   2.9332465567417254E-002           9       70328           0
</event>
<event>
      5   9999  3.19816E-02  1.69037E+01 -1.00000E+00  1.72631E-01
      21    -1     0     0   502   501  0.000000000E+00  0.000000000E+00  2.074492695E+02  2.074492695E+02  0.000000000E+00  0.00000E+00  9.000E+00
      21    -1     0     0   501   511  0.000000000E+00  0.000000000E+00 -9.176816619E+02  9.176816619E+02  0.000000000E+00  0.00000E+00  9.000E+00
      25     1     1     2     0     0 -1.626907599E+02 -8.816031449E+01 -3.001307257E+02  3.740908672E+02  1.250000000E+02  0.00000E+00  9.000E+00
      25     1     1     2     0     0  1.660961443E+02  7.160323126E+01  9.937818706E+01  2.412798706E+02  1.250000000E+02  0.00000E+00  9.000E+00
      21     1     1     2   502   511 -3.405384371E+00  1.655708323E+01 -5.094798537E+02  5.097601936E+02  0.000000000E+00  0.00000E+00  9.000E+00
#rwgt            1           1   2.7665535074957323E-002           9       70382           0
</event>
<event>
      5   9999  3.19816E-02  6.73962E+01 -1.00000E+00  1.32060E-01
      21    -1     0     0   502   501  0.000000000E+00  0.000000000E+00  1.576917533E+02  1.576917533E+02  0.000000000E+00  0.00000E+00  9.000E+00
      21    -1     0     0   501   512  0.000000000E+00  0.000000000E+00 -3.996685690E+02  3.996685690E+02  0.000000000E+00  0.00000E+00  9.000E+00
      25     1     1     2     0     0  2.056267014E+02 -3.681611938E+01 -1.098435293E+02  2.670737125E+02  1.250000000E+02  0.00000E+00  9.000E+00
      25     1     1     2     0     0 -1.383500529E+02  4.082911926E+01 -9.257818114E+01  2.121402219E+02  1.250000000E+02  0.00000E+00  9.000E+00
      21     1     1     2   502   512 -6.727664846E+01 -4.012999882E+00 -3.955510531E+01  7.814638796E+01  1.066240300E-06  0.00000E+00  9.000E+00
#rwgt            1           1   2.8952589831280327E-002           9       70548           0
</event>
<event>
      5   9999  3.19816E-02  6.27856E+00 -1.00000E+00  2.22454E-01
      21    -1     0     0   502   511  0.000000000E+00  0.000000000E+00  2.473833679E+02  2.473833679E+02  0.000000000E+00  0.00000E+00  9.000E+00
      21    -1     0     0   501   502  0.000000000E+00  0.000000000E+00 -2.943605599E+02  2.943605599E+02  0.000000000E+00  0.00000E+00  9.000E+00
      25     1     1     2     0     0 -9.948988246E+01 -1.076915443E+02 -2.063178135E+02  2.822901798E+02  1.250000000E+02  0.00000E+00  9.000E+00
      25     1     1     2     0     0  1.056589632E+02  1.088589259E+02  1.464847261E+02  2.451466036E+02  1.250000000E+02  0.00000E+00  9.000E+00
      21     1     1     2   501   511 -6.169080689E+00 -1.167381594E+00  1.285589540E+01  1.430714447E+01  0.000000000E+00  0.00000E+00  9.000E+00
#rwgt            2          11   1.7028600487610807E-003           9       70659           0
</event>
<event>
      5   9999  3.19816E-02  4.95630E+01 -1.00000E+00  1.39293E-01
      21    -1     0     0   512   501  0.000000000E+00  0.000000000E+00  5.880659593E+02  5.880659593E+02  0.000000000E+00  0.00000E+00  9.000E+00
      21    -1     0     0   501   502  0.000000000E+00  0.000000000E+00 -4.178192638E+02  4.178192638E+02  0.000000000E+00  0.00000E+00  9.000E+00
      25     1     1     2     0     0  3.067292903E+02  2.764251303E+02 -7.422269010E+01  4.377530331E+02  1.250000000E+02  0.00000E+00  9.000E+00
      25     1     1     2     0     0 -2.821583967E+02 -3.194688604E+02  1.637392270E+02  4.734017829E+02  1.250000000E+02  0.00000E+00  9.000E+00
      21     1     1     2   512   502 -2.457089365E+01  4.304373008E+01  8.073015858E+01  9.473040705E+01  9.536743164E-07  0.00000E+00  9.000E+00
#rwgt            1           1   2.9840030114521077E-002           9       70679           0
</event>
<event>
      5   9999  3.19816E-02  6.00825E+02 -1.00000E+00  9.66372E-02
       2    -1     0     0   502     0  0.000000000E+00  0.000000000E+00  1.670439107E+03  1.670439107E+03  0.000000000E+00  0.00000E+00  9.000E+00
      21    -1     0     0   501   502  0.000000000E+00  0.000000000E+00 -3.981035702E+02  3.981035702E+02  0.000000000E+00  0.00000E+00  9.000E+00
      25     1     1     2     0     0 -1.396959552E+02  3.144701841E+02  1.651516094E+02  4.016298180E+02  1.250000000E+02  0.00000E+00  9.000E+00
      25     1     1     2     0     0 -4.490165310E+02 -4.345062450E+02  4.750756546E+02  7.948165824E+02  1.250000000E+02  0.00000E+00  9.000E+00
       2     1     1     2   501     0  5.887124862E+02  1.200360609E+02  6.321082728E+02  8.720962767E+02  1.078959322E-05  0.00000E+00  9.000E+00
#rwgt            2          18   9.4909723845962746E-004           9       70860           0
</event>
<event>
      5   9999  3.19816E-02  3.14534E+01 -1.00000E+00  1.51626E-01
      21    -1     0     0   502   501  0.000000000E+00  0.000000000E+00  1.676015167E+02  1.676015167E+02  0.000000000E+00  0.00000E+00  9.000E+00
      21    -1     0     0   511   502  0.000000000E+00  0.000000000E+00 -8.271560700E+02  8.271560700E+02  0.000000000E+00  0.00000E+00  9.000E+00
      25     1     1     2     0     0 -1.088786532E+02 -1.571674255E+02 -1.178266355E+02  2.570297197E+02  1.250000000E+02  0.00000E+00  9.000E+00
      25     1     1     2     0     0  1.332727254E+02  1.373118642E+02 -3.642564458E+01  2.314476074E+02  1.250000000E+02  0.00000E+00  9.000E+00
      21     1     1     2   511   501 -2.439407216E+01  1.985556131E+01 -5.053022732E+02  5.062802597E+02  7.629394531E-06  0.00000E+00  9.000E+00
#rwgt            1           1   2.5361656440554093E-002           9       70879           0
</event>
<event>
      5   9999  3.19816E-02  8.12860E+01 -1.00000E+00  1.28015E-01
      21    -1     0     0   502   501  0.000000000E+00  0.000000000E+00  1.284678841E+02  1.284678841E+02  0.000000000E+00  0.00000E+00  9.000E+00
      21    -1     0     0   512   502  0.000000000E+00  0.000000000E+00 -2.249856966E+03  2.249856966E+03  0.000000000E+00  0.00000E+00  9.000E+00
      25     1     1     2     0     0  2.190452434E+02 -1.619760627E+02 -8.632781754E+02  9.138332844E+02  1.250000000E+02  0.00000E+00  9.000E+00
      25     1     1     2     0     0 -2.992994769E+02  1.748860503E+02 -2.326065528E+02  4.357707148E+02  1.250000000E+02  0.00000E+00  9.000E+00
      21     1     1     2   512   501  8.025423353E+01 -1.290998754E+01 -1.025504354E+03  1.028720851E+03  0.000000000E+00  0.00000E+00  9.000E+00
#rwgt            1           1   3.6053867892832998E-002           9       71076           0
</event>
<event>
      5   9999  3.19816E-02  4.22404E+02 -1.00000E+00  1.00978E-01
       2    -1     0     0   502     0  0.000000000E+00  0.000000000E+00  2.413193804E+03  2.413193804E+03  0.000000000E+00  0.00000E+00  9.000E+00
      21    -1     0     0   501   502  0.000000000E+00  0.000000000E+00 -6.773298523E+02  6.773298523E+02  0.000000000E+00  0.00000E+00  9.000E+00
      25     1     1     2     0     0  6.508646445E+02 -2.854401778E+02  1.491044653E+03  1.656484240E+03  1.250000000E+02  0.00000E+00  9.000E+00
      25     1     1     2     0     0 -2.536142603E+02  4.290282274E+02 -4.082563281E+02  6.562649179E+02  1.250000000E+02  0.00000E+00  9.000E+00
       2     1     1     2   501     0 -3.972503842E+02 -1.435880497E+02  6.530756273E+02  7.777744987E+02  7.629394531E-06  0.00000E+00  9.000E+00
#rwgt            2          18   1.7027146454650902E-003           9       71225           0
</event>
<event>
      5   9999  3.19816E-02  9.57461E+01 -1.00000E+00  1.24683E-01
      21    -1     0     0   502   501  0.000000000E+00  0.000000000E+00  6.779698384E+02  6.779698384E+02  0.000000000E+00  0.00000E+00  9.000E+00
      21    -1     0     0   501   511  0.000000000E+00  0.000000000E+00 -1.419203872E+02  1.419203872E+02  0.000000000E+00  0.00000E+00  9.000E+00
      25     1     1     2     0     0 -1.650492652E+02  2.758774338E+01  1.000590530E+02  2.316012902E+02  1.250000000E+02  0.00000E+00  9.000E+00
      25     1     1     2     0     0  2.299349618E+02  4.281930688E+01  4.113457803E+02  4.894220374E+02  1.250000000E+02  0.00000E+00  9.000E+00
      21     1     1     2   502   511 -6.488569652E+01 -7.040705026E+01  2.464461794E+01  9.886689807E+01  7.539457465E-07  0.00000E+00  9.000E+00
#rwgt            1           1   2.8157144864027928E-002           9       71244           0
</event>
<event>
      5   9999  3.19816E-02  6.33062E+02 -1.00000E+00  9.60254E-02
      21    -1     0     0   502   501  0.000000000E+00  0.000000000E+00  6.099832974E+02  6.099832974E+02  0.000000000E+00  0.00000E+00  9.000E+00
      21    -1     0     0   501   512  0.000000000E+00  0.000000000E+00 -1.561735102E+03  1.561735102E+03  0.000000000E+00  0.00000E+00  9.000E+00
      25     1     1     2     0     0  8.858799400E+00  2.815619576E+02 -3.271566030E+02  4.494575143E+02  1.250000000E+02  0.00000E+00  9.000E+00
      25     1     1     2     0     0 -5.297355330E+02 -6.413597676E+02 -1.190889832E+01  8.412662530E+02  1.250000000E+02  0.00000E+00  9.000E+00
      21     1     1     2   502   512  5.208767336E+02  3.597978100E+02 -6.126863034E+02  8.809946323E+02  7.629394531E-06  0.00000E+00  9.000E+00
#rwgt            1           1   2.6784749453383522E-002           9       71291           0
</event>
<event>
      5   9999  3.19816E-02  5.75245E+01 -1.00000E+00  1.35689E-01
      21    -1     0     0   502   511  0.000000000E+00  0.000000000E+00  1.306751616E+03  1.306751616E+03  0.000000000E+00  0.00000E+00  9.000E+00
      21    -1     0     0   501   502  0.000000000E+00  0.000000000E+00 -6.649506134E+02  6.649506134E+02  0.000000000E+00  0.00000E+00  9.000E+00
      25     1     1     2     0     0  2.360125628E+01 -6.546621275E+02 -2.062382263E+02  6.980678524E+02  1.250000000E+02  0.00000E+00  9.000E+00
      25     1     1     2     0     0 -6.734669377E+01  6.920171947E+02  3.801522367E+02  8.022244686E+02  1.250000000E+02  0.00000E+00  9.000E+00
      21     1     1     2   501   511  4.374543749E+01 -3.735506718E+01  4.678869920E+02  4.714099083E+02  5.394796609E-06  0.00000E+00  9.000E+00
#rwgt            1           1   3.0844852076897394E-002           9       71374           0
</event>
<event>
      5   9999  3.19816E-02  1.90730E+02 -1.00000E+00  1.12404E-01
      21    -1     0     0   512   501  0.000000000E+00  0.000000000E+00  1.969216620E+03  1.969216620E+03  0.000000000E+00  0.00000E+00  9.000E+00
      21    -1     0     0   501   502  0.000000000E+00  0.000000000E+00 -2.196455232E+03  2.196455232E+03  0.000000000E+00  0.00000E+00  9.000E+00
      25     1     1     2     0     0  1.754993969E+03  5.854685872E+02  7.042398451E+02  1.983521126E+03  1.250000000E+02  0.00000E+00  9.000E+00
      25     1     1     2     0     0 -1.596392744E+03 -6.914100792E+02 -9.574075302E+02  1.989666271E+03  1.250000000E+02  0.00000E+00  9.000E+00
      21     1     1     2   512   502 -1.586012256E+02  1.059414920E+02  2.592907345E+01  1.924844548E+02  3.216442481E-06  0.00000E+00  9.000E+00
#rwgt            1           1   1.1168613686875333E-002           9       71540           0
</event>
<event>
      5   9999  3.19816E-02  3.08186E+02 -1.00000E+00  1.05213E-01
       2    -1     0     0   502     0  0.000000000E+00  0.000000000E+00  9.109577966E+02  9.109577966E+02  0.000000000E+00  0.00000E+00  9.000E+00
      21    -1     0     0   501   502  0.000000000E+00  0.000000000E+00 -2.157089155E+02  2.157089155E+02  0.000000000E+00  0.00000E+00  9.000E+00
      25     1     1     2     0     0  4.558869859E+01 -1.553201590E+02  1.108281347E+02  2.326167592E+02  1.250000000E+02  0.00000E+00  9.000E+00
      25     1     1     2     0     0 -2.870871248E+02 -3.614050448E+01  1.212456752E+02  3.377138834E+02  1.250000000E+02  0.00000E+00  9.000E+00
       2     1     1     2   501     0  2.414984262E+02  1.914606635E+02  4.631750712E+02  5.563360694E+02  0.000000000E+00  0.00000E+00  9.000E+00
#rwgt            2          18   9.0141000360531316E-004           9       71695           0
</event>
<event>
      5   9999  3.19816E-02  2.17641E+01 -1.00000E+00  1.63396E-01
      21    -1     0     0   502   501  0.000000000E+00  0.000000000E+00  3.685119293E+02  3.685119293E+02  0.000000000E+00  0.00000E+00  9.000E+00
       2    -1     0     0   501     0  0.000000000E+00  0.000000000E+00 -2.100033734E+03  2.100033734E+03  0.000000000E+00  0.00000E+00  9.000E+00
      25     1     1     2     0     0 -7.333358394E+01  2.532222463E+02  1.997325675E+02  3.535780240E+02  1.250000000E+02  0.00000E+00  9.000E+00
      25     1     1     2     0     0  7.388272867E+01 -2.314651016E+02 -1.115488959E+02  2.951320163E+02  1.250000000E+02  0.00000E+00  9.000E+00
       2     1     1     2   502     0 -5.491447284E-01 -2.175714466E+01 -1.819705476E+03  1.819835623E+03  2.157918644E-05  0.00000E+00  9.000E+00
#rwgt            1           1   2.6242616950327712E-002           9       71714           0
</event>
<event>
      5   9999  3.19816E-02  1.38091E+02 -1.00000E+00  1.17835E-01
      21    -1     0     0   502   511  0.000000000E+00  0.000000000E+00  2.737059019E+02  2.737059019E+02  0.000000000E+00  0.00000E+00  9.000E+00
      21    -1     0     0   501   502  0.000000000E+00  0.000000000E+00 -6.567256742E+02  6.567256742E+02  0.000000000E+00  0.00000E+00  9.000E+00
      25     1     1     2     0     0 -1.568761657E+02 -2.219341821E+02 -2.284127231E+02  3.763805051E+02  1.250000000E+02  0.00000E+00  9.000E+00
      25     1     1     2     0     0  2.945542909E+02  2.112683992E+02 -1.608819161E+02  4.158179381E+02  1.250000000E+02  0.00000E+00  9.000E+00
      21     1     1     2   501   511 -1.376781251E+02  1.066578294E+01  6.274866795E+00  1.382331329E+02  3.969866229E-06  0.00000E+00  9.000E+00
#rwgt            1           1   2.8794941186478813E-002           9       71870           0
</event>
<event>
      5   9999  3.19816E-02  5.48039E+02 -1.00000E+00  9.77332E-02
       2    -1     0     0   502     0  0.000000000E+00  0.000000000E+00  3.347258621E+03  3.347258621E+03  0.000000000E+00  0.00000E+00  9.000E+00
      21    -1     0     0   501   502  0.000000000E+00  0.000000000E+00 -3.600596759E+02  3.600596759E+02  0.000000000E+00  0.00000E+00  9.000E+00
      25     1     1     2     0     0  5.810043746E+02  6.232718491E+02  1.499272176E+03  1.729010104E+03  1.250000000E+02  0.00000E+00  9.000E+00
      25     1     1     2     0     0 -1.703653500E+02 -2.603367779E+02  1.379478249E+03  1.419642501E+03  1.250000000E+02  0.00000E+00  9.000E+00
       2     1     1     2   501     0 -4.106390247E+02 -3.629350712E+02  1.084485202E+02  5.586656925E+02  5.722045898E-06  0.00000E+00  9.000E+00
#rwgt            2          18   2.5221934016046495E-003           9       71980           0
</event>
<event>
      5   9999  3.19816E-02  8.36577E+01 -1.00000E+00  1.27417E-01
      21    -1     0     0   502   501  0.000000000E+00  0.000000000E+00  3.513881082E+02  3.513881082E+02  0.000000000E+00  0.00000E+00  9.000E+00
      21    -1     0     0   501   511  0.000000000E+00  0.000000000E+00 -9.197641150E+02  9.197641150E+02  0.000000000E+00  0.00000E+00  9.000E+00
      25     1     1     2     0     0  1.628913314E+02  1.790414947E+02 -2.729476056E+02  3.856356286E+02  1.250000000E+02  0.00000E+00  9.000E+00
      25     1     1     2     0     0 -1.366138455E+02 -9.961793048E+01  2.540092620E+02  3.297465391E+02  1.250000000E+02  0.00000E+00  9.000E+00
      21     1     1     2   502   511 -2.627748581E+01 -7.942356424E+01 -5.494376633E+02  5.557700555E+02  1.078959322E-05  0.00000E+00  9.000E+00
#rwgt            1           1   2.7849368164640974E-002           9       71999           0
</event>
<event>
      5   9999  3.19816E-02  7.18929E+01 -1.00000E+00  1.30636E-01
      21    -1     0     0   502   501  0.000000000E+00  0.000000000E+00  1.699613721E+03  1.699613721E+03  0.000000000E+00  0.00000E+00  9.000E+00
      21    -1     0     0   512   502  0.000000000E+00  0.000000000E+00 -4.788765988E+01  4.788765988E+01  0.000000000E+00  0.00000E+00  9.000E+00
      25     1     1     2     0     0  1.402559289E+02 -3.992174084E+01  4.244245429E+02  4.658612064E+02  1.250000000E+02  0.00000E+00  9.000E+00
      25     1     1     2     0     0 -9.547583875E+01  9.616527035E+01  1.182815172E+03  1.197096540E+03  1.250000000E+02  0.00000E+00  9.000E+00
      21     1     1     2   512   501 -4.478009017E+01 -5.624352951E+01  4.448634565E+01  8.454363392E+01  2.861022949E-06  0.00000E+00  9.000E+00
#rwgt            1           1   2.0938983485709446E-002           9       72071           0
</event>
<event>
      5   9999  3.19816E-02  2.74114E+01 -1.00000E+00  1.55813E-01
      21    -1     0     0   502   501  0.000000000E+00  0.000000000E+00  1.381570642E+03  1.381570642E+03  0.000000000E+00  0.00000E+00  9.000E+00
      21    -1     0     0   511   502  0.000000000E+00  0.000000000E+00 -8.094911363E+01  8.094911363E+01  0.000000000E+00  0.00000E+00  9.000E+00
      25     1     1     2     0     0 -1.510193698E+02  8.638569230E+01  2.246719152E+02  3.104380894E+02  1.250000000E+02  0.00000E+00  9.000E+00
      25     1     1     2     0     0  1.778393107E+02 -9.204926352E+01  1.094053826E+03  1.119231281E+03  1.250000000E+02  0.00000E+00  9.000E+00
      21     1     1     2   511   501 -2.681994089E+01  5.663571220E+00 -1.810421268E+01  3.285038485E+01  2.384185791E-07  0.00000E+00  9.000E+00
#rwgt            1           1   2.9701300618089919E-002           9       72151           0
</event>
<event>
      5   9999  3.19816E-02  5.22413E+01 -1.00000E+00  1.37998E-01
       2    -1     0     0   502     0  0.000000000E+00  0.000000000E+00  7.348366402E+02  7.348366402E+02  0.000000000E+00  0.00000E+00  9.000E+00
      21    -1     0     0   501   502  0.000000000E+00  0.000000000E+00 -1.653147354E+02  1.653147354E+02  0.000000000E+00  0.00000E+00  9.000E+00
      25     1     1     2     0     0 -3.811720580E+01  1.250106741E+02  1.760250092E+02  2.523695582E+02  1.250000000E+02  0.00000E+00  9.000E+00
      25     1     1     2     0     0  8.985237833E+01 -1.322647424E+02 -4.358724439E+01  2.075867526E+02  1.250000000E+02  0.00000E+00  9.000E+00
       2     1     1     2   501     0 -5.173517253E+01  7.254068317E+00  4.370841401E+02  4.401950648E+02  7.629394531E-06  0.00000E+00  9.000E+00
#rwgt            1           1   2.8995506219904380E-002           9       72285           0
</event>
<event>
      5   9999  3.19816E-02  1.64459E+01 -1.00000E+00  1.73699E-01
      21    -1     0     0   502   501  0.000000000E+00  0.000000000E+00  7.999434268E+02  7.999434268E+02  0.000000000E+00  0.00000E+00  9.000E+00
      21    -1     0     0   501   511  0.000000000E+00  0.000000000E+00 -6.981346205E+01  6.981346205E+01  0.000000000E+00  0.00000E+00  9.000E+00
      25     1     1     2     0     0 -1.606990886E+02 -2.228846457E+01  1.864283826E+02  2.769503829E+02  1.250000000E+02  0.00000E+00  9.000E+00
      25     1     1     2     0     0  1.692241744E+02  8.224631836E+00  5.332751722E+02  5.733339996E+02  1.250000000E+02  0.00000E+00  9.000E+00
      21     1     1     2   502   511 -8.525085851E+00  1.406383274E+01  1.042640986E+01  1.947250632E+01  3.153981341E-07  0.00000E+00  9.000E+00
#rwgt            1           1   2.9647958428665393E-002           9       72366           0
</event>
<event>
      5   9999  3.19816E-02  6.83608E+01 -1.00000E+00  1.31744E-01
       3    -1     0     0   502     0  0.000000000E+00  0.000000000E+00  6.338996587E+02  6.338996587E+02  0.000000000E+00  0.00000E+00  9.000E+00
      21    -1     0     0   501   502  0.000000000E+00  0.000000000E+00 -3.267467755E+02  3.267467755E+02  0.000000000E+00  0.00000E+00  9.000E+00
      25     1     1     2     0     0 -5.225572922E+01  1.991837005E+02 -1.251188609E+02  2.714489586E+02  1.250000000E+02  0.00000E+00  9.000E+00
      25     1     1     2     0     0  1.002113394E+02 -1.504655496E+02 -3.006359444E+01  2.218355559E+02  1.250000000E+02  0.00000E+00  9.000E+00
       3     1     1     2   501     0 -4.795561021E+01 -4.871815091E+01  4.623353385E+02  4.673619197E+02  7.629394531E-06  0.00000E+00  9.000E+00
#rwgt            1           1   2.7343922759432281E-002           9       72529           0
</event>
<event>
      5   9999  3.19816E-02  2.72518E+01 -1.00000E+00  1.55996E-01
      21    -1     0     0   502   501  0.000000000E+00  0.000000000E+00  2.352164839E+02  2.352164839E+02  0.000000000E+00  0.00000E+00  9.000E+00
      21    -1     0     0   511   502  0.000000000E+00  0.000000000E+00 -1.454331609E+03  1.454331609E+03  0.000000000E+00  0.00000E+00  9.000E+00
      25     1     1     2     0     0 -2.519538255E+02  2.159511430E+02 -2.627329995E+02  4.413266992E+02  1.250000000E+02  0.00000E+00  9.000E+00
      25     1     1     2     0     0  2.270815502E+02 -2.270880071E+02 -5.804367491E+01  3.494696862E+02  1.250000000E+02  0.00000E+00  9.000E+00
      21     1     1     2   511   501  2.487227533E+01  1.113686406E+01 -8.983384510E+02  8.987517079E+02  1.525878906E-05  0.00000E+00  9.000E+00
#rwgt            1           1   2.7541453769515254E-002           9       72619           0
</event>
<event>
      5   9999  3.19816E-02  4.89402E+01 -1.00000E+00  1.39608E-01
      21    -1     0     0   502   512  0.000000000E+00  0.000000000E+00  6.323141103E+02  6.323141103E+02  0.000000000E+00  0.00000E+00  9.000E+00
      21    -1     0     0   501   502  0.000000000E+00  0.000000000E+00 -1.688026450E+02  1.688026450E+02  0.000000000E+00  0.00000E+00  9.000E+00
      25     1     1     2     0     0  1.264494058E+02  2.095315002E+02  1.024085476E+02  2.932667939E+02  1.250000000E+02  0.00000E+00  9.000E+00
      25     1     1     2     0     0 -8.022022324E+01 -2.255941126E+02  1.908993214E+02  3.307499641E+02  1.250000000E+02  0.00000E+00  9.000E+00
      21     1     1     2   501   512 -4.622918261E+01  1.606261239E+01  1.702035963E+02  1.770999972E+02  3.303624740E-06  0.00000E+00  9.000E+00
#rwgt            1           1   2.6522241529416558E-002           9       72797           0
</event>
<event>
      5   9999  3.19816E-02  3.68277E+01 -1.00000E+00  1.47101E-01
      21    -1     0     0   502   511  0.000000000E+00  0.000000000E+00  3.227988892E+02  3.227988892E+02  0.000000000E+00  0.00000E+00  9.000E+00
      21    -1     0     0   501   502  0.000000000E+00  0.000000000E+00 -1.283030908E+03  1.283030908E+03  0.000000000E+00  0.00000E+00  9.000E+00
      25     1     1     2     0     0 -2.576625513E+01  1.230238598E+02 -1.229834338E+03  1.242544272E+03  1.250000000E+02  0.00000E+00  9.000E+00
      25     1     1     2     0     0  2.443411871E+01 -8.622023265E+01  8.638561105E+01  1.764041623E+02  1.250000000E+02  0.00000E+00  9.000E+00
      21     1     1     2   501   511  1.332136418E+00 -3.680362714E+01  1.832167080E+02  1.868813625E+02  4.672030912E-06  0.00000E+00  9.000E+00
#rwgt            1           1   2.6934223729170276E-002           9       72909           0
</event>
<event>
      5   9999  3.19816E-02  1.66532E+02 -1.00000E+00  1.14622E-01
      21    -1     0     0   512   501  0.000000000E+00  0.000000000E+00  1.465257076E+02  1.465257076E+02  0.000000000E+00  0.00000E+00  9.000E+00
      21    -1     0     0   501   502  0.000000000E+00  0.000000000E+00 -7.678950200E+02  7.678950200E+02  0.000000000E+00  0.00000E+00  9.000E+00
      25     1     1     2     0     0 -4.237055097E+00 -7.794407246E+01 -5.704273852E+02  5.891567134E+02  1.250000000E+02  0.00000E+00  9.000E+00
      25     1     1     2     0     0 -3.457533309E+01 -8.400233111E+01 -1.883843082E+01  1.556654482E+02  1.250000000E+02  0.00000E+00  9.000E+00
      21     1     1     2   512   502  3.881238819E+01  1.619464036E+02 -3.210349637E+01  1.695985660E+02  3.504023184E-06  0.00000E+00  9.000E+00
#rwgt            1           1   2.6123194304357267E-002           9       72993           0
</event>
<event>
      5   9999  3.19816E-02  6.22704E+01 -1.00000E+00  1.33847E-01
      21    -1     0     0   502   501  0.000000000E+00  0.000000000E+00  3.004104137E+02  3.004104137E+02  0.000000000E+00  0.00000E+00  9.000E+00
      21    -1     0     0   501   511  0.000000000E+00  0.000000000E+00 -5.888118208E+02  5.888118208E+02  0.000000000E+00  0.00000E+00  9.000E+00
      25     1     1     2     0     0 -2.554957235E+01 -7.471720936E+01 -4.930840942E+02  5.147740921E+02  1.250000000E+02  0.00000E+00  9.000E+00
      25     1     1     2     0     0 -2.952923133E+01  1.037676303E+02  2.484640413E+02  2.983271299E+02  1.250000000E+02  0.00000E+00  9.000E+00
      21     1     1     2   502   511  5.507880368E+01 -2.905042089E+01 -4.378135418E+01  7.612101249E+01  1.966049969E-06  0.00000E+00  9.000E+00
#rwgt            1           1   2.9497031174170577E-002           9       73038           0
</event>
<event>
      5   9999  3.19816E-02  2.14520E+01 -1.00000E+00  1.63896E-01
      21    -1     0     0   502   501  0.000000000E+00  0.000000000E+00  2.059479313E+03  2.059479313E+03  0.000000000E+00  0.00000E+00  9.000E+00
      21    -1     0     0   512   502  0.000000000E+00  0.000000000E+00 -7.056324348E+01  7.056324348E+01  0.000000000E+00  0.00000E+00  9.000E+00
      25     1     1     2     0     0  2.662482246E+02  1.718382428E+02  6.873608048E+02  7.671416914E+02  1.250000000E+02  0.00000E+00  9.000E+00
      25     1     1     2     0     0 -2.592860555E+02 -1.515474301E+02  1.301408001E+03  1.341448347E+03  1.250000000E+02  0.00000E+00  9.000E+00
      21     1     1     2   512   501 -6.962169095E+00 -2.029081270E+01  1.472643806E-01  2.145251886E+01  5.698080853E-07  0.00000E+00  9.000E+00
#rwgt            1           1   2.4532113172650923E-002           9       73148           0
</event>
<event>
      5   9999  3.19816E-02  4.52649E+01 -1.00000E+00  1.41586E-01
      21    -1     0     0   511   501  0.000000000E+00  0.000000000E+00  8.381264779E+01  8.381264779E+01  0.000000000E+00  0.00000E+00  9.000E+00
      21    -1     0     0   501   502  0.000000000E+00  0.000000000E+00 -1.013644625E+03  1.013644625E+03  0.000000000E+00  0.00000E+00  9.000E+00
      25     1     1     2     0     0  1.482890143E+02 -5.024070987E+01 -3.254387787E+02  3.821637860E+02  1.250000000E+02  0.00000E+00  9.000E+00
      25     1     1     2     0     0 -1.088290895E+02  7.241788546E+01 -6.352598735E+02  6.605060391E+02  1.250000000E+02  0.00000E+00  9.000E+00
      21     1     1     2   511   502 -3.945992478E+01 -2.217717559E+01  3.086667504E+01  5.478744754E+01  2.158972058E-06  0.00000E+00  9.000E+00
#rwgt            1           1   3.3132157397699820E-002           9       73312           0
</event>
<event>
      5   9999  3.19816E-02  1.79650E+02 -1.00000E+00  1.13371E-01
      21    -1     0     0   502   501  0.000000000E+00  0.000000000E+00  2.635440458E+02  2.635440458E+02  0.000000000E+00  0.00000E+00  9.000E+00
      21    -1     0     0   501   512  0.000000000E+00  0.000000000E+00 -8.070301251E+02  8.070301251E+02  0.000000000E+00  0.00000E+00  9.000E+00
      25     1     1     2     0     0  1.435153064E+02  2.942828693E+02  4.956588069E+01  3.539503169E+02  1.250000000E+02  0.00000E+00  9.000E+00
      25     1     1     2     0     0 -7.718032904E+00 -1.766675731E+02 -2.614823806E+02  3.395129375E+02  1.250000000E+02  0.00000E+00  9.000E+00
      21     1     1     2   502   512 -1.357972735E+02 -1.176152962E+02 -3.315695794E+02  3.771109165E+02  3.814697266E-06  0.00000E+00  9.000E+00
#rwgt            1           1   2.7747371631649049E-002           9       73400           0
</event>
<event>
      5   9999  3.19816E-02  1.19247E+02 -1.00000E+00  1.20484E-01
      21    -1     0     0   502   501  0.000000000E+00  0.000000000E+00  2.513356143E+02  2.513356143E+02  0.000000000E+00  0.00000E+00  9.000E+00
       2    -1     0     0   501     0  0.000000000E+00  0.000000000E+00 -9.952520326E+02  9.952520326E+02  0.000000000E+00  0.00000E+00  9.000E+00
      25     1     1     2     0     0 -3.370685659E+02  1.983022285E+02 -9.271588355E+01  4.209040591E+02  1.250000000E+02  0.00000E+00  9.000E+00
      25     1     1     2     0     0  2.346482171E+02 -2.593745763E+02 -5.737817309E+02  6.835096425E+02  1.250000000E+02  0.00000E+00  9.000E+00
       2     1     1     2   502     0  1.024203488E+02  6.107234780E+01 -7.741880386E+01  1.421739452E+02  0.000000000E+00  0.00000E+00  9.000E+00
#rwgt            1           1   2.9578156459282058E-002           9       73457           0
</event>
<event>
      5   9999  3.19816E-02  9.00881E+00 -1.00000E+00  2.01148E-01
      21    -1     0     0   502   501  0.000000000E+00  0.000000000E+00  6.146678089E+02  6.146678089E+02  0.000000000E+00  0.00000E+00  9.000E+00
      21    -1     0     0   511   502  0.000000000E+00  0.000000000E+00 -9.604278090E+01  9.604278090E+01  0.000000000E+00  0.00000E+00  9.000E+00
      25     1     1     2     0     0  1.003711500E+02 -4.271909191E+01  1.688781439E+02  2.367363851E+02  1.250000000E+02  0.00000E+00  9.000E+00
      25     1     1     2     0     0 -1.089951057E+02  4.011409743E+01  3.937118850E+02  4.290957030E+02  1.250000000E+02  0.00000E+00  9.000E+00
      21     1     1     2   511   501  8.623955724E+00  2.604994473E+00 -4.396500094E+01  4.487850172E+01  9.536743164E-07  0.00000E+00  9.000E+00
#rwgt            1           1   3.2171507594498779E-002           9       73532           0
</event>
<event>
      5   9999  3.19816E-02  1.25171E+01 -1.00000E+00  1.85122E-01
      21    -1     0     0   502   501  0.000000000E+00  0.000000000E+00  2.435965565E+02  2.435965565E+02  0.000000000E+00  0.00000E+00  9.000E+00
      21    -1     0     0   501   512  0.000000000E+00  0.000000000E+00 -7.486712839E+02  7.486712839E+02  0.000000000E+00  0.00000E+00  9.000E+00
      25     1     1     2     0     0  1.286874364E+00  3.857202297E+02 -3.510460193E+02  5.363208548E+02  1.250000000E+02  0.00000E+00  9.000E+00
      25     1     1     2     0     0 -1.077848640E+01 -3.938802672E+02 -1.384197268E+02  4.359390570E+02  1.250000000E+02  0.00000E+00  9.000E+00
      21     1     1     2   502   512  9.491612031E+00  8.160037468E+00 -1.560898128E+01  2.000792861E+01  2.384185791E-07  0.00000E+00  9.000E+00
#rwgt            1           1   2.7702099089219952E-002           9       73751           0
</event>
<event>
      5   9999  3.19816E-02  8.53501E+01 -1.00000E+00  1.27003E-01
      21    -1     0     0   502   501  0.000000000E+00  0.000000000E+00  4.305432886E+02  4.305432886E+02  0.000000000E+00  0.00000E+00  9.000E+00
      21    -1     0     0   511   502  0.000000000E+00  0.000000000E+00 -3.810513548E+02  3.810513548E+02  0.000000000E+00  0.00000E+00  9.000E+00
      25     1     1     2     0     0 -1.210208645E+02 -1.049340743E+02  3.325736405E+02  3.897273867E+02  1.250000000E+02  0.00000E+00  9.000E+00
      25     1     1     2     0     0  9.327175405E+01  2.422084966E+01 -3.799151819E+01  1.623410765E+02  1.250000000E+02  0.00000E+00  9.000E+00
      21     1     1     2   511   501  2.774911042E+01  8.071322460E+01 -2.450901884E+02  2.595261802E+02  5.394796609E-06  0.00000E+00  9.000E+00
#rwgt            1           1   2.7843349513446480E-002           9       73948           0
</event>
<event>
      5   9999  3.19816E-02  4.79490E+01 -1.00000E+00  1.40121E-01
      21    -1     0     0   512   501  0.000000000E+00  0.000000000E+00  6.678714319E+01  6.678714319E+01  0.000000000E+00  0.00000E+00  9.000E+00
      21    -1     0     0   501   502  0.000000000E+00  0.000000000E+00 -1.194370326E+03  1.194370326E+03  0.000000000E+00  0.00000E+00  9.000E+00
      25     1     1     2     0     0  1.033253193E+02  5.705784648E+01 -1.140207341E+02  2.062945643E+02  1.250000000E+02  0.00000E+00  9.000E+00
      25     1     1     2     0     0 -1.364922501E+02 -2.243037946E+01 -9.768269755E+02  9.944592482E+02  1.250000000E+02  0.00000E+00  9.000E+00
      21     1     1     2   512   502  3.316693076E+01 -3.462746701E+01 -3.673547360E+01  6.040365707E+01  1.066240300E-06  0.00000E+00  9.000E+00
#rwgt            1           1   2.6999081918752256E-002           9       73992           0
</event>
<event>
      5   9999  3.19816E-02  1.21820E+02 -1.00000E+00  1.20091E-01
      21    -1     0     0   502   501  0.000000000E+00  0.000000000E+00  6.507731746E+02  6.507731746E+02  0.000000000E+00  0.00000E+00  9.000E+00
      -4    -1     0     0     0   502  0.000000000E+00  0.000000000E+00 -7.362604381E+02  7.362604381E+02  0.000000000E+00  0.00000E+00  9.000E+00
      25     1     1     2     0     0  7.888288603E+01 -1.940837139E+02 -3.996566348E+02  4.682322323E+02  1.250000000E+02  0.00000E+00  9.000E+00
      25     1     1     2     0     0  4.281696626E+01  1.994981215E+02  5.794357570E+02  6.268999838E+02  1.250000000E+02  0.00000E+00  9.000E+00
      -4     1     1     2     0   501 -1.216998523E+02 -5.414407637E+00 -2.652663859E+02  2.919013966E+02  0.000000000E+00  0.00000E+00  9.000E+00
#rwgt            1           1   3.2830144441487789E-002           9       74098           0
</event>
<event>
      5   9999  3.19816E-02  5.87704E+01 -1.00000E+00  1.35186E-01
      21    -1     0     0   502   501  0.000000000E+00  0.000000000E+00  9.547036658E+02  9.547036658E+02  0.000000000E+00  0.00000E+00  9.000E+00
       3    -1     0     0   501     0  0.000000000E+00  0.000000000E+00 -2.065800735E+02  2.065800735E+02  0.000000000E+00  0.00000E+00  9.000E+00
      25     1     1     2     0     0 -2.070345663E+01  2.695774009E+02  7.650328100E+02  8.209755225E+02  1.250000000E+02  0.00000E+00  9.000E+00
      25     1     1     2     0     0 -3.277423859E+01 -2.452032964E+02  5.985775945E+00  2.772357062E+02  1.250000000E+02  0.00000E+00  9.000E+00
       3     1     1     2   502     0  5.347769522E+01 -2.437410449E+01 -2.289499367E+01  6.307251058E+01  1.168007728E-06  0.00000E+00  9.000E+00
#rwgt            1           1   3.2180841371706161E-002           9       74165           0
</event>
<event>
      5   9999  3.19816E-02  9.82191E+01 -1.00000E+00  1.24180E-01
      21    -1     0     0   502   501  0.000000000E+00  0.000000000E+00  3.595732874E+02  3.595732874E+02  0.000000000E+00  0.00000E+00  9.000E+00
      -2    -1     0     0     0   502  0.000000000E+00  0.000000000E+00 -7.355153049E+02  7.355153049E+02  0.000000000E+00  0.00000E+00  9.000E+00
      25     1     1     2     0     0 -1.526493166E+02 -3.938129807E+02  2.160890394E+01  4.410016126E+02  1.250000000E+02  0.00000E+00  9.000E+00
      25     1     1     2     0     0  5.492039174E+01  3.840128622E+02 -2.542761873E+02  4.803785040E+02  1.250000000E+02  0.00000E+00  9.000E+00
      -2     1     1     2     0   501  9.772892482E+01  9.800118543E+00 -1.432747342E+02  1.737084757E+02  1.907348633E-06  0.00000E+00  9.000E+00
#rwgt            1           1   2.4760186835702355E-002           9       74264           0
</event>
<event>
      5   9999  3.19816E-02  4.66102E+01 -1.00000E+00  1.40838E-01
      21    -1     0     0   511   501  0.000000000E+00  0.000000000E+00  3.324966864E+02  3.324966864E+02  0.000000000E+00  0.00000E+00  9.000E+00
      21    -1     0     0   501   502  0.000000000E+00  0.000000000E+00 -4.920430075E+02  4.920430075E+02  0.000000000E+00  0.00000E+00  9.000E+00
      25     1     1     2     0     0 -3.025180803E+02  3.436763093E+01 -2.308782895E+02  4.020299834E+02  1.250000000E+02  0.00000E+00  9.000E+00
      25     1     1     2     0     0  3.466131798E+02 -1.926357678E+01  7.184393155E+01  3.758967043E+02  1.250000000E+02  0.00000E+00  9.000E+00
      21     1     1     2   511   502 -4.409509948E+01 -1.510405416E+01 -5.119631116E-01  4.661300630E+01  3.795410880E-07  0.00000E+00  9.000E+00
#rwgt            1           1   2.8618636840523279E-002           9       74373           0
</event>
<event>
      5   9999  3.19816E-02  1.79392E+02 -1.00000E+00  1.13395E-01
       1    -1     0     0   502     0  0.000000000E+00  0.000000000E+00  1.720730259E+02  1.720730259E+02  0.000000000E+00  0.00000E+00  9.000E+00
      21    -1     0     0   501   502  0.000000000E+00  0.000000000E+00 -1.166147459E+03  1.166147459E+03  0.000000000E+00  0.00000E+00  9.000E+00
      25     1     1     2     0     0 -2.448535101E+02  2.041765119E+02 -8.483260033E+01  3.527929414E+02  1.250000000E+02  0.00000E+00  9.000E+00
      25     1     1     2     0     0  8.437842742E+01 -1.239932666E+02 -5.552350316E+02  5.885617975E+02  1.250000000E+02  0.00000E+00  9.000E+00
       1     1     1     2   501     0  1.604750827E+02 -8.018324531E+01 -3.540068012E+02  3.968657459E+02  6.607249480E-06  0.00000E+00  9.000E+00
#rwgt            1           1   3.0431702183256023E-002           9       74499           0
</event>
<event>
      5   9999  3.19816E-02  6.93945E+01 -1.00000E+00  1.31412E-01
      21    -1     0     0   511   501  0.000000000E+00  0.000000000E+00  2.912817519E+02  2.912817519E+02  0.000000000E+00  0.00000E+00  9.000E+00
      21    -1     0     0   501   502  0.000000000E+00  0.000000000E+00 -1.642884603E+03  1.642884603E+03  0.000000000E+00  0.00000E+00  9.000E+00
      25     1     1     2     0     0 -4.168636344E+01 -5.866923609E+02 -3.635406985E+02  7.026610269E+02  1.250000000E+02  0.00000E+00  9.000E+00
      25     1     1     2     0     0  1.654755102E+01  5.220112890E+02 -1.021813308E+03  1.154338357E+03  1.250000000E+02  0.00000E+00  9.000E+00
      21     1     1     2   511   502  2.513881242E+01  6.468107187E+01  3.375115492E+01  7.716697096E+01  1.261592536E-06  0.00000E+00  9.000E+00
#rwgt            1           1   2.9078967500278996E-002           9       74550           0
</event>
<event>
      5   9999  3.19816E-02  4.00983E+01 -1.00000E+00  1.44774E-01
      21    -1     0     0   502   501  0.000000000E+00  0.000000000E+00  2.451172653E+03  2.451172653E+03  0.000000000E+00  0.00000E+00  9.000E+00
      21    -1     0     0   501   512  0.000000000E+00  0.000000000E+00 -2.987045186E+01  2.987045186E+01  0.000000000E+00  0.00000E+00  9.000E+00
      25     1     1     2     0     0 -5.995979552E+01  9.536120668E+01  2.072754346E+03  2.079573157E+03  1.250000000E+02  0.00000E+00  9.000E+00
      25     1     1     2     0     0  1.987527421E+01 -9.641131263E+01  2.758585822E+02  3.184542747E+02  1.250000000E+02  0.00000E+00  9.000E+00
      21     1     1     2   502   512  4.008452131E+01  1.050105953E+00  7.268927310E+01  8.301567319E+01  1.651812370E-06  0.00000E+00  9.000E+00
#rwgt            1           1   4.5744401142289060E-002           9       74642           0
</event>
<event>
      5   9999  3.19816E-02  6.43969E+01 -1.00000E+00  1.33082E-01
      21    -1     0     0   502   501  0.000000000E+00  0.000000000E+00  4.119335052E+02  4.119335052E+02  0.000000000E+00  0.00000E+00  9.000E+00
      21    -1     0     0   511   502  0.000000000E+00  0.000000000E+00 -2.529870676E+02  2.529870676E+02  0.000000000E+00  0.00000E+00  9.000E+00
      25     1     1     2     0     0  9.652690264E+01  5.194904513E+01  3.031932157E+02  3.457850088E+02  1.250000000E+02  0.00000E+00  9.000E+00
      25     1     1     2     0     0 -1.359453587E+02 -1.028720249E+02 -1.420713330E+02  2.547018997E+02  1.250000000E+02  0.00000E+00  9.000E+00
      21     1     1     2   511   501  3.941845606E+01  5.092297975E+01 -2.175445051E+00  6.443366438E+01  3.384893147E-07  0.00000E+00  9.000E+00
#rwgt            1           1   2.4032622491268977E-002           9       74745           0
</event>
<event>
      5   9999  3.19816E-02  3.00807E+01 -1.00000E+00  1.52959E-01
      21    -1     0     0   502   501  0.000000000E+00  0.000000000E+00  2.765468445E+02  2.765468445E+02  0.000000000E+00  0.00000E+00  9.000E+00
      21    -1     0     0   501   512  0.000000000E+00  0.000000000E+00 -1.036319738E+02  1.036319738E+02  0.000000000E+00  0.00000E+00  9.000E+00
      25     1     1     2     0     0 -5.303605469E+01  2.725076148E+01  3.767745156E+01  1.435270617E+02  1.250000000E+02  0.00000E+00  9.000E+00
      25     1     1     2     0     0  2.931389238E+01 -4.574698984E+01  1.503954383E+02  2.029676802E+02  1.250000000E+02  0.00000E+00  9.000E+00
      21     1     1     2   502   512  2.372216231E+01  1.849622836E+01 -1.515801916E+01  3.368407625E+01  5.057621821E-07  0.00000E+00  9.000E+00
#rwgt            1           1   3.3626398837331720E-002           9       74807           0
</event>
<event>
      5   9999  3.19816E-02  5.71952E+01 -1.00000E+00  1.35824E-01
      21    -1     0     0   511   501  0.000000000E+00  0.000000000E+00  3.523639229E+02  3.523639229E+02  0.000000000E+00  0.00000E+00  9.000E+00
      21    -1     0     0   501   502  0.000000000E+00  0.000000000E+00 -4.690989235E+02  4.690989235E+02  0.000000000E+00  0.00000E+00  9.000E+00
      25     1     1     2     0     0 -2.474207458E+02 -1.715611041E+02 -1.715245339E+02  3.683692490E+02  1.250000000E+02  0.00000E+00  9.000E+00
      25     1     1     2     0     0  1.974111857E+02  1.993160025E+02 -7.072761746E+01  3.151593898E+02  1.250000000E+02  0.00000E+00  9.000E+00
      21     1     1     2   511   502  5.000956003E+01 -2.775489838E+01  1.255171507E+02  1.379342075E+02  1.348699152E-06  0.00000E+00  9.000E+00
#rwgt            1           1   2.5942952439269803E-002           9       74939           0
</event>
<event>
      5   9999  3.19816E-02  8.89114E+00 -1.00000E+00  2.01849E-01
      21    -1     0     0   512   501  0.000000000E+00  0.000000000E+00  6.190169681E+02  6.190169681E+02  0.000000000E+00  0.00000E+00  9.000E+00
      21    -1     0     0   501   502  0.000000000E+00  0.000000000E+00 -1.254586220E+02  1.254586220E+02  0.000000000E+00  0.00000E+00  9.000E+00
      25     1     1     2     0     0  3.815646925E+01 -2.103068051E+02  1.720046749E+02  3.014887669E+02  1.250000000E+02  0.00000E+00  9.000E+00
      25     1     1     2     0     0 -2.929582441E+01  2.110425706E+02  1.913222845E+02  3.124522819E+02  1.250000000E+02  0.00000E+00  9.000E+00
      21     1     1     2   512   502 -8.860644844E+00 -7.357655524E-01  1.302313867E+02  1.305345413E+02  1.907348633E-06  0.00000E+00  9.000E+00
#rwgt            1           1   2.7530335714951237E-002           9       75078           0
</event>
<event>
      5   9999  3.19816E-02  3.85864E+01 -1.00000E+00  1.45816E-01
      21    -1     0     0   502   501  0.000000000E+00  0.000000000E+00  8.455565819E+02  8.455565819E+02  0.000000000E+00  0.00000E+00  9.000E+00
      21    -1     0     0   511   502  0.000000000E+00  0.000000000E+00 -1.297382102E+02  1.297382102E+02  0.000000000E+00  0.00000E+00  9.000E+00
      25     1     1     2     0     0 -4.950463183E+00 -2.367366032E+02  4.191237040E+02  4.973513905E+02  1.250000000E+02  0.00000E+00  9.000E+00
      25     1     1     2     0     0  4.212534873E+01  2.470775530E+02  3.257769433E+02  4.296248119E+02  1.250000000E+02  0.00000E+00  9.000E+00
      21     1     1     2   511   501 -3.717488555E+01 -1.034094981E+01 -2.908227565E+01  4.831858975E+01  4.768371582E-07  0.00000E+00  9.000E+00
#rwgt            1           1   2.7593745049912338E-002           9       75352           0
</event>
<event>
      5   9999  3.19816E-02  3.56695E+01 -1.00000E+00  1.47995E-01
      21    -1     0     0   512   501  0.000000000E+00  0.000000000E+00  2.430222426E+02  2.430222426E+02  0.000000000E+00  0.00000E+00  9.000E+00
      21    -1     0     0   501   502  0.000000000E+00  0.000000000E+00 -2.279575230E+02  2.279575230E+02  0.000000000E+00  0.00000E+00  9.000E+00
      25     1     1     2     0     0  1.377988661E-01  6.384722982E+01  6.063796636E+01  1.529001331E+02  1.250000000E+02  0.00000E+00  9.000E+00
      25     1     1     2     0     0 -3.017237372E+01 -8.308886093E+01 -1.459708030E+02  2.115339364E+02  1.250000000E+02  0.00000E+00  9.000E+00
      21     1     1     2   512   502  3.003457485E+01  1.924163111E+01  1.003975562E+02  1.065456961E+02  1.348699152E-06  0.00000E+00  9.000E+00
#rwgt            1           1   2.5698323999176056E-002           9       75420           0
</event>
<event>
      5   9999  3.19816E-02  2.64374E+02 -1.00000E+00  1.07407E-01
      21    -1     0     0   502   501  0.000000000E+00  0.000000000E+00  2.018500578E+03  2.018500578E+03  0.000000000E+00  0.00000E+00  9.000E+00
       2    -1     0     0   501     0  0.000000000E+00  0.000000000E+00 -7.711254163E+02  7.711254163E+02  0.000000000E+00  0.00000E+00  9.000E+00
      25     1     1     2     0     0  7.954951185E+01  9.726382905E+02  1.376673417E+03  1.692101671E+03  1.250000000E+02  0.00000E+00  9.000E+00
      25     1     1     2     0     0  1.142352463E+02 -7.928016696E+02 -1.856661693E+01  8.108969713E+02  1.250000000E+02  0.00000E+00  9.000E+00
       2     1     1     2   502     0 -1.937847581E+02 -1.798366209E+02 -1.107316389E+02  2.866273513E+02  4.046097457E-06  0.00000E+00  9.000E+00
#rwgt            2          13   5.9954684582456095E-004           9       75635           0
</event>
<event>
      5   9999  3.19816E-02  1.69498E+01 -1.00000E+00  1.72525E-01
      21    -1     0     0   502   501  0.000000000E+00  0.000000000E+00  3.361387642E+03  3.361387642E+03  0.000000000E+00  0.00000E+00  9.000E+00
      21    -1     0     0   511   502  0.000000000E+00  0.000000000E+00 -2.894732196E+02  2.894732196E+02  0.000000000E+00  0.00000E+00  9.000E+00
      25     1     1     2     0     0  3.960178115E+02 -1.121824690E+02  8.962768944E+02  9.941590842E+02  1.250000000E+02  0.00000E+00  9.000E+00
      25     1     1     2     0     0 -4.118649230E+02  1.061686446E+02  2.395505902E+03  2.436181032E+03  1.250000000E+02  0.00000E+00  9.000E+00
      21     1     1     2   511   501  1.584711154E+01  6.013824461E+00 -2.198683740E+02  2.205207449E+02  8.946258087E-06  0.00000E+00  9.000E+00
#rwgt            1           1   2.8888159317730779E-002           9       75654           0
</event>
<event>
      5   9999  3.19816E-02  4.46200E+01 -1.00000E+00  1.41956E-01
      21    -1     0     0   502   501  0.000000000E+00  0.000000000E+00  9.441112438E+02  9.441112438E+02  0.000000000E+00  0.00000E+00  9.000E+00
      21    -1     0     0   501   512  0.000000000E+00  0.000000000E+00 -3.066613819E+02  3.066613819E+02  0.000000000E+00  0.00000E+00  9.000E+00
      25     1     1     2     0     0  4.035207267E-01  1.288028669E+02 -2.328122950E+02  2.939675255E+02  1.250000000E+02  0.00000E+00  9.000E+00
      25     1     1     2     0     0  4.249771230E+01 -1.410676216E+02  8.880089231E+02  9.087854406E+02  1.250000000E+02  0.00000E+00  9.000E+00
      21     1     1     2   502   512 -4.290123303E+01  1.226475469E+01 -1.774676622E+01  4.801965966E+01  9.830249847E-07  0.00000E+00  9.000E+00
#rwgt            1           1   2.8013041173874965E-002           9       75820           0
</event>
<event>
      5   9999  3.19816E-02  6.65206E+00 -1.00000E+00  2.18731E-01
      21    -1     0     0   511   501  0.000000000E+00  0.000000000E+00  8.385615392E+02  8.385615392E+02  0.000000000E+00  0.00000E+00  9.000E+00
      21    -1     0     0   501   502  0.000000000E+00  0.000000000E+00 -1.341550528E+03  1.341550528E+03  0.000000000E+00  0.00000E+00  9.000E+00
      25     1     1     2     0     0 -9.178009935E+02  3.054101469E+02  1.410711927E+02  9.854745572E+02  1.250000000E+02  0.00000E+00  9.000E+00
      25     1     1     2     0     0  9.114242590E+02 -3.073041298E+02 -6.627953608E+02  1.174756442E+03  1.250000000E+02  0.00000E+00  9.000E+00
      21     1     1     2   511   502  6.376734440E+00  1.893982859E+00  1.873517932E+01  1.988106781E+01  2.384185791E-07  0.00000E+00  9.000E+00
#rwgt            1           1   3.3619419842537787E-002           9       75962           0
</event>
<event>
      5   9999  3.19816E-02  1.70772E+02 -1.00000E+00  1.14204E-01
      21    -1     0     0   502   501  0.000000000E+00  0.000000000E+00  3.599203709E+02  3.599203709E+02  0.000000000E+00  0.00000E+00  9.000E+00
      21    -1     0     0   501   512  0.000000000E+00  0.000000000E+00 -5.403799347E+02  5.403799347E+02  0.000000000E+00  0.00000E+00  9.000E+00
      25     1     1     2     0     0  1.219068419E+02 -3.006313714E+02  9.650166695E+01  3.608019835E+02  1.250000000E+02  0.00000E+00  9.000E+00
      25     1     1     2     0     0 -1.838984622E+02  1.415082608E+02 -7.301249141E+01  2.734941611E+02  1.250000000E+02  0.00000E+00  9.000E+00
      21     1     1     2   502   512  6.199162024E+01  1.591231107E+02 -2.039487394E+02  2.660041609E+02  2.697398305E-06  0.00000E+00  9.000E+00
#rwgt            1           1   2.7334513853684402E-002           9       76436           0
</event>
<event>
      5   9999  3.19816E-02  2.75507E+02 -1.00000E+00  1.06808E-01
      21    -1     0     0   502   501  0.000000000E+00  0.000000000E+00  8.210944090E+02  8.210944090E+02  0.000000000E+00  0.00000E+00  9.000E+00
      21    -1     0     0   511   502  0.000000000E+00  0.000000000E+00 -1.007291750E+03  1.007291750E+03  0.000000000E+00  0.00000E+00  9.000E+00
      25     1     1     2     0     0 -8.696232329E+00 -5.803782871E+01  4.782203049E+02  4.977586504E+02  1.250000000E+02  0.00000E+00  9.000E+00
      25     1     1     2     0     0 -3.821272391E+01 -2.134462806E+02  2.630542737E+02  3.631006443E+02  1.250000000E+02  0.00000E+00  9.000E+00
      21     1     1     2   511   501  4.690895624E+01  2.714841093E+02 -9.274719197E+02  9.675268645E+02  1.078959322E-05  0.00000E+00  9.000E+00
#rwgt            1           1   3.8078731978951653E-002           9       76497           0
</event>
<event>
      5   9999  3.19816E-02  1.15612E+02 -1.00000E+00  1.21059E-01
      21    -1     0     0   502   501  0.000000000E+00  0.000000000E+00  1.930927723E+03  1.930927723E+03  0.000000000E+00  0.00000E+00  9.000E+00
      21    -1     0     0   512   502  0.000000000E+00  0.000000000E+00 -1.600491673E+03  1.600491673E+03  0.000000000E+00  0.00000E+00  9.000E+00
      25     1     1     2     0     0  1.610668510E+02 -9.227583329E+02  4.732286706E+01  9.461976143E+02  1.250000000E+02  0.00000E+00  9.000E+00
      25     1     1     2     0     0 -7.666704488E+01  1.001769114E+03  1.251617357E+03  1.609841669E+03  1.250000000E+02  0.00000E+00  9.000E+00
      21     1     1     2   512   501 -8.439980611E+01 -7.901078056E+01 -9.685041730E+02  9.753801125E+02  1.078959322E-05  0.00000E+00  9.000E+00
#rwgt            1           1   3.2627280322666839E-002           9       76550           0
</event>
<event>
      5   9999  3.19816E-02  9.26017E+01 -1.00000E+00  1.25348E-01
       2    -1     0     0   502     0  0.000000000E+00  0.000000000E+00  6.541039573E+02  6.541039573E+02  0.000000000E+00  0.00000E+00  9.000E+00
      21    -1     0     0   501   502  0.000000000E+00  0.000000000E+00 -1.312637208E+02  1.312637208E+02  0.000000000E+00  0.00000E+00  9.000E+00
      25     1     1     2     0     0  2.009254254E+01  7.583301594E+01  4.048878797E+02  4.309449520E+02  1.250000000E+02  0.00000E+00  9.000E+00
      25     1     1     2     0     0  1.726423359E+01 -1.605651802E+02 -3.137770942E-01  2.042163787E+02  1.250000000E+02  0.00000E+00  9.000E+00
       2     1     1     2   501     0 -3.735677613E+01  8.473216430E+01  1.182661339E+02  1.502063474E+02  0.000000000E+00  0.00000E+00  9.000E+00
#rwgt            1           1   2.9809645651446646E-002           9       76651           0
</event>
<event>
      5   9999  3.19816E-02  2.01699E+02 -1.00000E+00  1.11515E-01
      21    -1     0     0   502   501  0.000000000E+00  0.000000000E+00  6.639896036E+02  6.639896036E+02  0.000000000E+00  0.00000E+00  9.000E+00
      21    -1     0     0   511   502  0.000000000E+00  0.000000000E+00 -3.073454665E+02  3.073454665E+02  0.000000000E+00  0.00000E+00  9.000E+00
      25     1     1     2     0     0 -9.753860570E+01  5.685592522E+01  4.049945182E+02  4.386250513E+02  1.250000000E+02  0.00000E+00  9.000E+00
      25     1     1     2     0     0  1.006961189E+02 -2.585297253E+02  4.987328174E+01  3.083661322E+02  1.250000000E+02  0.00000E+00  9.000E+00
      21     1     1     2   511   501 -3.157513232E+00  2.016738001E+02 -9.822366283E+01  2.243438867E+02  4.862803949E-06  0.00000E+00  9.000E+00
#rwgt            2          11   3.7176135138131034E-003           9       76787           0
</event>
<event>
      5   9999  3.19816E-02  1.30209E+02 -1.00000E+00  1.18882E-01
      21    -1     0     0   502   512  0.000000000E+00  0.000000000E+00  7.391119911E+02  7.391119911E+02  0.000000000E+00  0.00000E+00  9.000E+00
      21    -1     0     0   501   502  0.000000000E+00  0.000000000E+00 -4.897942405E+02  4.897942405E+02  0.000000000E+00  0.00000E+00  9.000E+00
      25     1     1     2     0     0  2.376946271E+02 -3.408309928E+01  1.877500614E+02  3.294472325E+02  1.250000000E+02  0.00000E+00  9.000E+00
      25     1     1     2     0     0 -3.655264310E+02  5.885224761E+01 -3.144246624E+02  5.015585979E+02  1.250000000E+02  0.00000E+00  9.000E+00
      21     1     1     2   501   512  1.278318038E+02 -2.476914833E+01  3.759923517E+02  3.979004013E+02  5.394796609E-06  0.00000E+00  9.000E+00
#rwgt            1           1   2.7496468234102393E-002           9       76807           0
</event>
<event>
      5   9999  3.19816E-02  4.95917E+01 -1.00000E+00  1.39279E-01
      21    -1     0     0   502   511  0.000000000E+00  0.000000000E+00  1.032547482E+03  1.032547482E+03  0.000000000E+00  0.00000E+00  9.000E+00
      21    -1     0     0   501   502  0.000000000E+00  0.000000000E+00 -6.025314888E+02  6.025314888E+02  0.000000000E+00  0.00000E+00  9.000E+00
      25     1     1     2     0     0  6.228543764E+02 -1.238322006E+02  3.101769833E+02  7.177163431E+02  1.250000000E+02  0.00000E+00  9.000E+00
      25     1     1     2     0     0 -5.744291618E+02  1.345248415E+02 -1.674030535E+02  6.258710548E+02  1.250000000E+02  0.00000E+00  9.000E+00
      21     1     1     2   501   511 -4.842521460E+01 -1.069264082E+01  2.872420640E+02  2.914915733E+02  3.814697266E-06  0.00000E+00  9.000E+00
#rwgt            1           1   3.1594154522821875E-002           9       76875           0
</event>
<event>
      5   9999  3.19816E-02  2.76192E+01 -1.00000E+00  1.55577E-01
      21    -1     0     0   502   501  0.000000000E+00  0.000000000E+00  1.415558675E+02  1.415558675E+02  0.000000000E+00  0.00000E+00  9.000E+00
      21    -1     0     0   512   502  0.000000000E+00  0.000000000E+00 -1.263845842E+03  1.263845842E+03  0.000000000E+00  0.00000E+00  9.000E+00
      25     1     1     2     0     0  1.242002426E+01  2.119971457E+02 -6.145624585E+01  2.539663697E+02  1.250000000E+02  0.00000E+00  9.000E+00
      25     1     1     2     0     0  2.743838329E+00 -1.889130297E+02 -2.396118366E+02  3.297491375E+02  1.250000000E+02  0.00000E+00  9.000E+00
      21     1     1     2   512   501 -1.516386259E+01 -2.308411602E+01 -8.212218920E+02  8.216862022E+02  1.078959322E-05  0.00000E+00  9.000E+00
#rwgt            1           1   2.7889406329880032E-002           9       77036           0
</event>
<event>
      5   9999  3.19816E-02  3.24351E+01 -1.00000E+00  1.50722E-01
      21    -1     0     0   502   501  0.000000000E+00  0.000000000E+00  2.259963450E+02  2.259963450E+02  0.000000000E+00  0.00000E+00  9.000E+00
      21    -1     0     0   511   502  0.000000000E+00  0.000000000E+00 -9.911995824E+02  9.911995824E+02  0.000000000E+00  0.00000E+00  9.000E+00
      25     1     1     2     0     0  4.243977077E+02 -1.436396421E+01 -3.021390999E+02  5.359410168E+02  1.250000000E+02  0.00000E+00  9.000E+00
      25     1     1     2     0     0 -4.151017450E+02  4.543837212E+01 -3.366782943E+02  5.507734363E+02  1.250000000E+02  0.00000E+00  9.000E+00
      21     1     1     2   511   501 -9.295962672E+00 -3.107440791E+01 -1.263858433E+02  1.304814743E+02  0.000000000E+00  0.00000E+00  9.000E+00
#rwgt            1           1   2.9866038903507607E-002           9       77184           0
</event>
<event>
      5   9999  3.19816E-02  3.54186E+01 -1.00000E+00  1.48194E-01
      21    -1     0     0   502   501  0.000000000E+00  0.000000000E+00  4.708647010E+02  4.708647010E+02  0.000000000E+00  0.00000E+00  9.000E+00
      21    -1     0     0   501   512  0.000000000E+00  0.000000000E+00 -5.015617933E+02  5.015617933E+02  0.000000000E+00  0.00000E+00  9.000E+00
      25     1     1     2     0     0 -1.167958464E+02  2.160395815E+02  3.336570855E+02  4.327429043E+02  1.250000000E+02  0.00000E+00  9.000E+00
      25     1     1     2     0     0  8.881243903E+01 -1.943277152E+02 -9.052442590E+01  2.635727260E+02  1.250000000E+02  0.00000E+00  9.000E+00
      21     1     1     2   502   512  2.798340741E+01 -2.171186627E+01 -2.738297518E+02  2.761108640E+02  0.000000000E+00  0.00000E+00  9.000E+00
#rwgt            1           1   2.7065988485421744E-002           9       77332           0
</event>
<event>
      5   9999  3.19816E-02  2.87307E+02 -1.00000E+00  1.06206E-01
      21    -1     0     0   502   501  0.000000000E+00  0.000000000E+00  1.087841001E+03  1.087841001E+03  0.000000000E+00  0.00000E+00  9.000E+00
      21    -1     0     0   511   502  0.000000000E+00  0.000000000E+00 -9.825467346E+02  9.825467346E+02  0.000000000E+00  0.00000E+00  9.000E+00
      25     1     1     2     0     0 -4.766049046E+02 -1.347578375E+02 -2.144946289E+02  5.540260425E+02  1.250000000E+02  0.00000E+00  9.000E+00
      25     1     1     2     0     0  2.697410154E+02  3.341391088E+02  8.231322206E+02  9.367928330E+02  1.250000000E+02  0.00000E+00  9.000E+00
      21     1     1     2   511   501  2.068638892E+02 -1.993812713E+02 -5.033433255E+02  5.795688599E+02  1.206313194E-05  0.00000E+00  9.000E+00
#rwgt            2          11   2.9041370499144634E-003           9       77528           0
</event>
<event>
      5   9999  3.19816E-02  8.42002E+02 -1.00000E+00  9.28206E-02
      21    -1     0     0   502   501  0.000000000E+00  0.000000000E+00  6.146900647E+02  6.146900647E+02  0.000000000E+00  0.00000E+00  9.000E+00
      21    -1     0     0   512   502  0.000000000E+00  0.000000000E+00 -1.671146784E+03  1.671146784E+03  0.000000000E+00  0.00000E+00  9.000E+00
      25     1     1     2     0     0  2.547465651E+02  5.147910993E+02 -3.356757722E+02  6.769113032E+02  1.250000000E+02  0.00000E+00  9.000E+00
      25     1     1     2     0     0  4.176197070E+02 -7.946289704E+00  8.418206379E+01  4.440506537E+02  1.250000000E+02  0.00000E+00  9.000E+00
      21     1     1     2   512   501 -6.723662721E+02 -5.068448096E+02 -8.049630111E+02  1.164874892E+03  2.157918644E-05  0.00000E+00  9.000E+00
#rwgt            2          11   1.2843790845064021E-003           9       77758           0
</event>
<event>
      5   9999  3.19816E-02  1.19443E+01 -1.00000E+00  1.87241E-01
      21    -1     0     0   502   501  0.000000000E+00  0.000000000E+00  1.286666009E+03  1.286666009E+03  0.000000000E+00  0.00000E+00  9.000E+00
      21    -1     0     0   501   511  0.000000000E+00  0.000000000E+00 -8.094333690E+01  8.094333690E+01  0.000000000E+00  0.00000E+00  9.000E+00
      25     1     1     2     0     0  2.732224460E+01 -1.588411153E+02  4.598666420E+02  5.030699090E+02  1.250000000E+02  0.00000E+00  9.000E+00
      25     1     1     2     0     0 -2.150294183E+01  1.692719666E+02  7.905080931E+02  8.183174325E+02  1.250000000E+02  0.00000E+00  9.000E+00
      21     1     1     2   502   511 -5.819302769E+00 -1.043085126E+01 -4.465206305E+01  4.622200425E+01  1.651812370E-06  0.00000E+00  9.000E+00
#rwgt            1           1   2.6975928663619145E-002           9       77793           0
</event>
<event>
      5   9999  3.19816E-02  2.80234E+01 -1.00000E+00  1.55125E-01
      21    -1     0     0   502   501  0.000000000E+00  0.000000000E+00  1.475207229E+03  1.475207229E+03  0.000000000E+00  0.00000E+00  9.000E+00
      21    -1     0     0   501   512  0.000000000E+00  0.000000000E+00 -1.207076621E+02  1.207076621E+02  0.000000000E+00  0.00000E+00  9.000E+00
      25     1     1     2     0     0 -2.010337536E+02 -2.553152891E+02  7.709457160E+02  8.459212517E+02  1.250000000E+02  0.00000E+00  9.000E+00
      25     1     1     2     0     0  1.793468617E+02  2.375672810E+02  6.229557354E+02  7.016426142E+02  1.250000000E+02  0.00000E+00  9.000E+00
      21     1     1     2   502   512  2.168689191E+01  1.774800811E+01 -3.940188494E+01  4.835102490E+01  1.430511475E-06  0.00000E+00  9.000E+00
#rwgt            1           1   2.9480378922453261E-002           9       77957           0
</event>
<event>
      5   9999  3.19816E-02  2.61477E+01 -1.00000E+00  1.57304E-01
       2    -1     0     0   502     0  0.000000000E+00  0.000000000E+00  1.548606510E+03  1.548606510E+03  0.000000000E+00  0.00000E+00  9.000E+00
      21    -1     0     0   501   502  0.000000000E+00  0.000000000E+00 -2.320410160E+02  2.320410160E+02  0.000000000E+00  0.00000E+00  9.000E+00
      25     1     1     2     0     0 -4.609739060E+01  2.415229507E+02 -1.129856006E+02  2.980755794E+02  1.250000000E+02  0.00000E+00  9.000E+00
      25     1     1     2     0     0  7.118995229E+01 -2.488759916E+02  7.605684293E+02  8.130784736E+02  1.250000000E+02  0.00000E+00  9.000E+00
       2     1     1     2   501     0 -2.509256169E+01  7.353040965E+00  6.689826654E+02  6.694934730E+02  7.629394531E-06  0.00000E+00  9.000E+00
#rwgt            1           1   2.5937515122753253E-002           9       78106           0
</event>
<event>
      5   9999  3.19816E-02  6.29528E+01 -1.00000E+00  1.33598E-01
      21    -1     0     0   511   501  0.000000000E+00  0.000000000E+00  2.124452086E+02  2.124452086E+02  0.000000000E+00  0.00000E+00  9.000E+00
      21    -1     0     0   501   502  0.000000000E+00  0.000000000E+00 -9.928021341E+02  9.928021341E+02  0.000000000E+00  0.00000E+00  9.000E+00
      25     1     1     2     0     0 -7.015880748E+01 -3.109966491E+02 -3.227521391E+02  4.705689294E+02  1.250000000E+02  0.00000E+00  9.000E+00
      25     1     1     2     0     0  6.628439518E+01  3.738300759E+02 -5.133361105E+02  6.506008830E+02  1.250000000E+02  0.00000E+00  9.000E+00
      21     1     1     2   511   502  3.874412297E+00 -6.283342679E+01  5.573132411E+01  8.407753017E+01  9.536743164E-07  0.00000E+00  9.000E+00
#rwgt            1           1   2.9048761635455601E-002           9       78279           0
</event>
<event>
      5   9999  3.19816E-02  5.33960E+01 -1.00000E+00  1.37467E-01
      21    -1     0     0   502   512  0.000000000E+00  0.000000000E+00  2.424424037E+02  2.424424037E+02  0.000000000E+00  0.00000E+00  9.000E+00
      21    -1     0     0   501   502  0.000000000E+00  0.000000000E+00 -5.940142064E+02  5.940142064E+02  0.000000000E+00  0.00000E+00  9.000E+00
      25     1     1     2     0     0 -9.349052130E+01  1.365228906E+02 -2.605955947E+02  3.330375973E+02  1.250000000E+02  0.00000E+00  9.000E+00
      25     1     1     2     0     0  4.995546983E+01 -1.674393702E+02 -2.535323227E+02  3.323178152E+02  1.250000000E+02  0.00000E+00  9.000E+00
      21     1     1     2   501   512  4.353505147E+01  3.091647953E+01  1.625561147E+02  1.711011976E+02  0.000000000E+00  0.00000E+00  9.000E+00
#rwgt            1           1   3.0651942511089738E-002           9       78389           0
</event>
<event>
      5   9999  3.19816E-02  6.93712E+01 -1.00000E+00  1.31419E-01
      -1    -1     0     0     0   501  0.000000000E+00  0.000000000E+00  1.213088223E+03  1.213088223E+03  0.000000000E+00  0.00000E+00  9.000E+00
      21    -1     0     0   501   502  0.000000000E+00  0.000000000E+00 -1.568125168E+03  1.568125168E+03  0.000000000E+00  0.00000E+00  9.000E+00
      25     1     1     2     0     0 -8.999522883E+01  4.582208332E+02 -6.862040243E+02  8.393845580E+02  1.250000000E+02  0.00000E+00  9.000E+00
      25     1     1     2     0     0  6.800681200E+01 -3.924266236E+02 -7.500523041E+02  8.583863002E+02  1.250000000E+02  0.00000E+00  9.000E+00
      -1     1     1     2     0   502  2.198841683E+01 -6.579420959E+01  1.081219383E+03  1.083442534E+03  2.157918644E-05  0.00000E+00  9.000E+00
#rwgt            1           1   2.9794246152640383E-002           9       78491           0
</event>
<event>
      5   9999  3.19816E-02  3.63303E+01 -1.00000E+00  1.47481E-01
      21    -1     0     0   502   501  0.000000000E+00  0.000000000E+00  2.407644349E+02  2.407644349E+02  0.000000000E+00  0.00000E+00  9.000E+00
      21    -1     0     0   501   511  0.000000000E+00  0.000000000E+00 -3.497169317E+02  3.497169317E+02  0.000000000E+00  0.00000E+00  9.000E+00
      25     1     1     2     0     0 -6.527563866E+01 -1.542732111E+02 -2.016140527E+02  2.904037860E+02  1.250000000E+02  0.00000E+00  9.000E+00
      25     1     1     2     0     0  4.806640676E+01  1.862689899E+02  1.158201791E+02  2.569938325E+02  1.250000000E+02  0.00000E+00  9.000E+00
      21     1     1     2   502   511  1.720923189E+01 -3.199577880E+01 -2.315862319E+01  4.308374811E+01  6.743495762E-07  0.00000E+00  9.000E+00
#rwgt            1           1   2.7779611478517978E-002           9       78594           0
</event>
<event>
      5   9999  3.19816E-02  1.21538E+02 -1.00000E+00  1.20134E-01
      21    -1     0     0   502   501  0.000000000E+00  0.000000000E+00  1.410090899E+03  1.410090899E+03  0.000000000E+00  0.00000E+00  9.000E+00
      21    -1     0     0   501   512  0.000000000E+00  0.000000000E+00 -6.776507545E+02  6.776507545E+02  0.000000000E+00  0.00000E+00  9.000E+00
      25     1     1     2     0     0 -4.445340782E+02  2.158266358E+02  1.014188496E+03  1.135074883E+03  1.250000000E+02  0.00000E+00  9.000E+00
      25     1     1     2     0     0  5.597287998E+02 -2.545772086E+02  1.954440044E+01  6.277840935E+02  1.250000000E+02  0.00000E+00  9.000E+00
      21     1     1     2   502   512 -1.151947217E+02  3.875057276E+01 -3.012927527E+02  3.248826767E+02  6.607249480E-06  0.00000E+00  9.000E+00
#rwgt            1           1   2.7140403736343615E-002           9       78723           0
</event>
<event>
      5   9999  3.19816E-02  1.05173E+02 -1.00000E+00  1.22851E-01
      21    -1     0     0   502   511  0.000000000E+00  0.000000000E+00  1.389679834E+03  1.389679834E+03  0.000000000E+00  0.00000E+00  9.000E+00
      21    -1     0     0   501   502  0.000000000E+00  0.000000000E+00 -2.620019372E+02  2.620019372E+02  0.000000000E+00  0.00000E+00  9.000E+00
      25     1     1     2     0     0 -2.090734731E-02 -7.642680879E+01  5.838298947E+02  6.019330556E+02  1.250000000E+02  0.00000E+00  9.000E+00
      25     1     1     2     0     0 -4.420616422E+01 -1.899521965E+01 -2.314164548E+02  2.673828321E+02  1.250000000E+02  0.00000E+00  9.000E+00
      21     1     1     2   501   511  4.422707157E+01  9.542202844E+01  7.752644566E+02  7.823658831E+02  1.078959322E-05  0.00000E+00  9.000E+00
#rwgt            1           1   2.8278663345862241E-002           9       78877           0
</event>
<event>
      5   9999  3.19816E-02  3.36367E+01 -1.00000E+00  1.49667E-01
      21    -1     0     0   502   501  0.000000000E+00  0.000000000E+00  5.927548394E+02  5.927548394E+02  0.000000000E+00  0.00000E+00  9.000E+00
      21    -1     0     0   512   502  0.000000000E+00  0.000000000E+00 -1.511558881E+03  1.511558881E+03  0.000000000E+00  0.00000E+00  9.000E+00
      25     1     1     2     0     0  8.454099144E+02  1.477707041E+01 -6.392907926E+02  1.067358423E+03  1.250000000E+02  0.00000E+00  9.000E+00
      25     1     1     2     0     0 -8.750865636E+02  1.057146864E+00 -1.418949297E+02  8.952858663E+02  1.250000000E+02  0.00000E+00  9.000E+00
      21     1     1     2   512   501  2.967664924E+01 -1.583421727E+01 -1.376183197E+02  1.416694317E+02  1.907348633E-06  0.00000E+00  9.000E+00
#rwgt            1           1   3.1901891889975921E-002           9       79040           0
</event>
<event>
      5   9999  3.19816E-02  7.00553E+01 -1.00000E+00  1.31203E-01
      21    -1     0     0   511   501  0.000000000E+00  0.000000000E+00  8.720869526E+02  8.720869526E+02  0.000000000E+00  0.00000E+00  9.000E+00
      21    -1     0     0   501   502  0.000000000E+00  0.000000000E+00 -9.386084442E+02  9.386084442E+02  0.000000000E+00  0.00000E+00  9.000E+00
      25     1     1     2     0     0 -1.401896023E+02 -4.701305762E+02 -1.330705439E+02  5.234583584E+02  1.250000000E+02  0.00000E+00  9.000E+00
      25     1     1     2     0     0  2.089930346E+02  4.833153914E+02 -4.877322014E+02  7.285461937E+02  1.250000000E+02  0.00000E+00  9.000E+00
      21     1     1     2   511   502 -6.880343236E+01 -1.318481523E+01  5.542812538E+02  5.586908447E+02  1.078959322E-05  0.00000E+00  9.000E+00
#rwgt            1           1   2.8327373799680387E-002           9       79220           0
</event>
<event>
      5   9999  3.19816E-02  6.95108E+01 -1.00000E+00  1.31375E-01
      21    -1     0     0   502   501  0.000000000E+00  0.000000000E+00  1.216428316E+02  1.216428316E+02  0.000000000E+00  0.00000E+00  9.000E+00
       2    -1     0     0   501     0  0.000000000E+00  0.000000000E+00 -2.293614483E+03  2.293614483E+03  0.000000000E+00  0.00000E+00  9.000E+00
      25     1     1     2     0     0  6.840589249E+01 -4.020237301E+01 -2.071111138E+02  2.545891011E+02  1.250000000E+02  0.00000E+00  9.000E+00
      25     1     1     2     0     0 -2.143523531E+01 -1.103738224E+01  5.566881414E+01  1.389435496E+02  1.250000000E+02  0.00000E+00  9.000E+00
       2     1     1     2   502     0 -4.697065717E+01  5.123975525E+01 -2.020529352E+03  2.021724664E+03  3.051757812E-05  0.00000E+00  9.000E+00
#rwgt            1           1   2.7687768472012798E-002           9       79322           0
</event>
<event>
      5   9999  3.19816E-02  7.57046E+01 -1.00000E+00  1.29520E-01
      21    -1     0     0   502   501  0.000000000E+00  0.000000000E+00  3.185147877E+01  3.185147877E+01  0.000000000E+00  0.00000E+00  9.000E+00
       2    -1     0     0   501     0  0.000000000E+00  0.000000000E+00 -3.179475739E+03  3.179475739E+03  0.000000000E+00  0.00000E+00  9.000E+00
      25     1     1     2     0     0 -1.200879993E+02  8.281699617E+01 -4.052684299E+02  4.484944623E+02  1.250000000E+02  0.00000E+00  9.000E+00
      25     1     1     2     0     0  1.943956592E+02 -9.729324206E+01 -1.790978430E+03  1.808448060E+03  1.250000000E+02  0.00000E+00  9.000E+00
       2     1     1     2   502     0 -7.430765992E+01  1.447624589E+01 -9.513774004E+02  9.543846961E+02  1.868812365E-05  0.00000E+00  9.000E+00
#rwgt            1           1   7.0481310767615921E-002           9       79365           0
</event>
<event>
      5   9999  3.19816E-02  1.15035E+02 -1.00000E+00  1.21152E-01
      21    -1     0     0   502   501  0.000000000E+00  0.000000000E+00  1.379351713E+03  1.379351713E+03  0.000000000E+00  0.00000E+00  9.000E+00
       2    -1     0     0   501     0  0.000000000E+00  0.000000000E+00 -2.198527841E+03  2.198527841E+03  0.000000000E+00  0.00000E+00  9.000E+00
      25     1     1     2     0     0 -6.403625207E+02  3.076788365E+02 -1.110130973E+02  7.298488420E+02  1.250000000E+02  0.00000E+00  9.000E+00
      25     1     1     2     0     0  5.322516489E+02 -3.469856228E+02  9.698068626E+02  1.166122288E+03  1.250000000E+02  0.00000E+00  9.000E+00
       2     1     1     2   502     0  1.081108718E+02  3.930678624E+01 -1.677969894E+03  1.681908424E+03  2.157918644E-05  0.00000E+00  9.000E+00
#rwgt            1           1   3.1326498077242422E-002           9       79435           0
</event>
<event>
      5   9999  3.19816E-02  1.16650E+02 -1.00000E+00  1.20892E-01
      21    -1     0     0   511   501  0.000000000E+00  0.000000000E+00  5.008873061E+02  5.008873061E+02  0.000000000E+00  0.00000E+00  9.000E+00
      21    -1     0     0   501   502  0.000000000E+00  0.000000000E+00 -1.567484233E+03  1.567484233E+03  0.000000000E+00  0.00000E+00  9.000E+00
      25     1     1     2     0     0 -1.720928333E+02 -2.570190962E+02 -3.067869479E+02  4.532306151E+02  1.250000000E+02  0.00000E+00  9.000E+00
      25     1     1     2     0     0  2.859786794E+02  2.822643917E+02 -1.141198253E+03  1.216312231E+03  1.250000000E+02  0.00000E+00  9.000E+00
      21     1     1     2   511   502 -1.138858461E+02 -2.524529550E+01  3.813882737E+02  3.988286928E+02  0.000000000E+00  0.00000E+00  9.000E+00
#rwgt            1           1   2.0265998596419185E-002           9       79529           0
</event>
<event>
      5   9999  3.19816E-02  1.24514E+01 -1.00000E+00  1.85358E-01
      21    -1     0     0   502   512  0.000000000E+00  0.000000000E+00  1.100488704E+02  1.100488704E+02  0.000000000E+00  0.00000E+00  9.000E+00
      21    -1     0     0   501   502  0.000000000E+00  0.000000000E+00 -3.483710658E+02  3.483710658E+02  0.000000000E+00  0.00000E+00  9.000E+00
      25     1     1     2     0     0  1.201049268E+02 -6.477292865E+01 -1.073010120E+02  2.139140783E+02  1.250000000E+02  0.00000E+00  9.000E+00
      25     1     1     2     0     0 -1.323987076E+02  6.674789386E+01 -1.244212514E+02  2.304134260E+02  1.250000000E+02  0.00000E+00  9.000E+00
      21     1     1     2   501   512  1.229378077E+01 -1.974965206E+00 -6.599932055E+00  1.409243188E+01  3.039252468E-07  0.00000E+00  9.000E+00
#rwgt            1           1   2.8287211290987047E-002           9       79621           0
</event>
<event>
      5   9999  3.19816E-02  1.76991E+02 -1.00000E+00  1.13615E-01
      21    -1     0     0   502   501  0.000000000E+00  0.000000000E+00  4.231584131E+02  4.231584131E+02  0.000000000E+00  0.00000E+00  9.000E+00
      21    -1     0     0   511   502  0.000000000E+00  0.000000000E+00 -1.124216687E+03  1.124216687E+03  0.000000000E+00  0.00000E+00  9.000E+00
      25     1     1     2     0     0  4.401018727E+02 -4.011230679E+02 -3.002113345E+02  6.784845018E+02  1.250000000E+02  0.00000E+00  9.000E+00
      25     1     1     2     0     0 -2.935971706E+02  5.004320552E+02 -2.968744673E+02  6.636196123E+02  1.250000000E+02  0.00000E+00  9.000E+00
      21     1     1     2   511   501 -1.465047020E+02 -9.930898732E+01 -1.039724719E+02  2.052709858E+02  3.568322551E-06  0.00000E+00  9.000E+00
#rwgt            1           1   2.9794087203548002E-002           9       79826           0
</event>
<event>
      5   9999  3.19816E-02  7.63685E+01 -1.00000E+00  1.29334E-01
      21    -1     0     0   502   501  0.000000000E+00  0.000000000E+00  1.197194135E+03  1.197194135E+03  0.000000000E+00  0.00000E+00  9.000E+00
      21    -1     0     0   501   512  0.000000000E+00  0.000000000E+00 -1.970347553E+02  1.970347553E+02  0.000000000E+00  0.00000E+00  9.000E+00
      25     1     1     2     0     0  1.521864361E+02  2.098711123E+02  1.727747552E+00  2.878099724E+02  1.250000000E+02  0.00000E+00  9.000E+00
      25     1     1     2     0     0 -1.120626724E+02 -2.748498239E+02  9.745730321E+02  1.026410280E+03  1.250000000E+02  0.00000E+00  9.000E+00
      21     1     1     2   502   512 -4.012376372E+01  6.497871153E+01  2.385860054E+01  8.000863820E+01  1.430511475E-06  0.00000E+00  9.000E+00
#rwgt            1           1   2.7220621509844271E-002           9       79891           0
</event>
<event>
      5   9999  3.19816E-02  5.34575E+01 -1.00000E+00  1.37439E-01
      21    -1     0     0   511   501  0.000000000E+00  0.000000000E+00  5.275739223E+02  5.275739223E+02  0.000000000E+00  0.00000E+00  9.000E+00
      21    -1     0     0   501   502  0.000000000E+00  0.000000000E+00 -1.241535127E+03  1.241535127E+03  0.000000000E+00  0.00000E+00  9.000E+00
      25     1     1     2     0     0 -2.556359373E+02  1.149485082E+02 -1.059905403E+03  1.103443408E+03  1.250000000E+02  0.00000E+00  9.000E+00
      25     1     1     2     0     0  2.268067716E+02 -6.993091387E+01 -4.421009512E+01  2.718661010E+02  1.250000000E+02  0.00000E+00  9.000E+00
      21     1     1     2   511   502  2.882916567E+01 -4.501759433E+01  3.901542937E+02  3.937995397E+02  5.394796609E-06  0.00000E+00  9.000E+00
#rwgt            1           1   2.8207652231251629E-002           9       79965           0
</event>
<event>
      5   9999  3.19816E-02  3.55853E+01 -1.00000E+00  1.48062E-01
      21    -1     0     0   502   501  0.000000000E+00  0.000000000E+00  1.530899312E+02  1.530899312E+02  0.000000000E+00  0.00000E+00  9.000E+00
      21    -1     0     0   501   512  0.000000000E+00  0.000000000E+00 -1.519954480E+03  1.519954480E+03  0.000000000E+00  0.00000E+00  9.000E+00
      25     1     1     2     0     0 -9.849019080E+01  1.291461124E+02 -1.847892963E+02  2.759549239E+02  1.250000000E+02  0.00000E+00  9.000E+00
      25     1     1     2     0     0  6.537511717E+01 -1.161190712E+02  2.942807302E+01  1.850636542E+02  1.250000000E+02  0.00000E+00  9.000E+00
      21     1     1     2   502   512  3.311507363E+01 -1.302704118E+01 -1.211503326E+03  1.212025833E+03  0.000000000E+00  0.00000E+00  9.000E+00
#rwgt            1           1   2.9424979963648731E-002           9       80072           0
</event>
<event>
      5   9999  3.19816E-02  3.41549E+01 -1.00000E+00  1.49228E-01
      21    -1     0     0   502   501  0.000000000E+00  0.000000000E+00  7.110807068E+02  7.110807068E+02  0.000000000E+00  0.00000E+00  9.000E+00
      -5    -1     0     0     0   502  0.000000000E+00  0.000000000E+00 -2.680695997E+02  2.680695997E+02  0.000000000E+00  0.00000E+00  9.000E+00
      25     1     1     2     0     0 -1.828929869E+01  1.522723795E+02  4.813537902E+02  5.204304442E+02  1.250000000E+02  0.00000E+00  9.000E+00
      25     1     1     2     0     0  4.964705234E+01 -1.658092613E+02  1.540777605E+02  2.632916581E+02  1.250000000E+02  0.00000E+00  9.000E+00
      -5     1     1     2     0   501 -3.135775365E+01  1.353688176E+01 -1.924204436E+02  1.954282042E+02  3.814697266E-06  0.00000E+00  9.000E+00
#rwgt            1           1   2.7263394224002459E-002           9       80192           0
</event>
<event>
      5   9999  3.19816E-02  2.04596E+02 -1.00000E+00  1.11290E-01
      21    -1     0     0   502   501  0.000000000E+00  0.000000000E+00  7.941596492E+02  7.941596492E+02  0.000000000E+00  0.00000E+00  9.000E+00
      21    -1     0     0   501   511  0.000000000E+00  0.000000000E+00 -2.991055670E+02  2.991055670E+02  0.000000000E+00  0.00000E+00  9.000E+00
      25     1     1     2     0     0 -1.064811900E+02  8.056821280E+01 -1.176581864E+02  2.174808717E+02  1.250000000E+02  0.00000E+00  9.000E+00
      25     1     1     2     0     0  1.272934278E+02 -2.841026292E+02  5.779473950E+02  6.682560228E+02  1.250000000E+02  0.00000E+00  9.000E+00
      21     1     1     2   502   511 -2.081223780E+01  2.035344164E+02  3.476487366E+01  2.075283218E+02  2.431401974E-06  0.00000E+00  9.000E+00
#rwgt            1           1   2.7591049002303573E-002           9       80332           0
</event>
<event>
      5   9999  3.19816E-02  7.58535E+01 -1.00000E+00  1.29478E-01
      21    -1     0     0   502   501  0.000000000E+00  0.000000000E+00  1.244299509E+02  1.244299509E+02  0.000000000E+00  0.00000E+00  9.000E+00
       1    -1     0     0   501     0  0.000000000E+00  0.000000000E+00 -1.505485717E+03  1.505485717E+03  0.000000000E+00  0.00000E+00  9.000E+00
      25     1     1     2     0     0  3.006114551E+02 -1.770866368E+02 -7.772785056E+02  8.611119550E+02  1.250000000E+02  0.00000E+00  9.000E+00
      25     1     1     2     0     0 -2.604302755E+02  1.127498367E+02 -2.265855350E+02  3.840604884E+02  1.250000000E+02  0.00000E+00  9.000E+00
       1     1     1     2   502     0 -4.018117964E+01  6.433680013E+01 -3.771917260E+02  3.847432250E+02  0.000000000E+00  0.00000E+00  9.000E+00
#rwgt            1           1   2.5187877920403078E-002           9       80401           0
</event>
<event>
      5   9999  3.19816E-02  1.03571E+02 -1.00000E+00  1.23146E-01
      21    -1     0     0   502   501  0.000000000E+00  0.000000000E+00  2.116979413E+02  2.116979413E+02  0.000000000E+00  0.00000E+00  9.000E+00
      21    -1     0     0   511   502  0.000000000E+00  0.000000000E+00 -8.148752492E+02  8.148752492E+02  0.000000000E+00  0.00000E+00  9.000E+00
      25     1     1     2     0     0  6.151172572E+01  7.988367853E+01  1.504054742E+02  2.200270464E+02  1.250000000E+02  0.00000E+00  9.000E+00
      25     1     1     2     0     0  4.159082711E+01 -8.972062102E+01 -6.035180105E+02  6.242103618E+02  1.250000000E+02  0.00000E+00  9.000E+00
      21     1     1     2   511   501 -1.031025528E+02  9.836942489E+00 -1.500647715E+02  1.823357822E+02  1.907348633E-06  0.00000E+00  9.000E+00
#rwgt            1           1   2.8416362631728087E-002           9       80458           0
</event>
<event>
      5   9999  3.19816E-02  3.79198E+01 -1.00000E+00  1.46293E-01
      21    -1     0     0   502   501  0.000000000E+00  0.000000000E+00  4.657682823E+02  4.657682823E+02  0.000000000E+00  0.00000E+00  9.000E+00
      21    -1     0     0   512   502  0.000000000E+00  0.000000000E+00 -6.346975664E+02  6.346975664E+02  0.000000000E+00  0.00000E+00  9.000E+00
      25     1     1     2     0     0 -2.643548731E+02 -3.964239092E+02 -2.282674547E+02  5.429239778E+02  1.250000000E+02  0.00000E+00  9.000E+00
      25     1     1     2     0     0  2.493281708E+02  4.312392311E+02  6.957681301E+01  5.182641645E+02  1.250000000E+02  0.00000E+00  9.000E+00
      21     1     1     2   512   501  1.502670231E+01 -3.481532194E+01 -1.023864235E+01  3.927770642E+01  1.111910230E-06  0.00000E+00  9.000E+00
#rwgt            1           1   3.2644507501553323E-002           9       80571           0
</event>
<event>
      5   9999  3.19816E-02  1.78024E+02 -1.00000E+00  1.13520E-01
      21    -1     0     0   511   501  0.000000000E+00  0.000000000E+00  1.291634745E+03  1.291634745E+03  0.000000000E+00  0.00000E+00  9.000E+00
      21    -1     0     0   501   502  0.000000000E+00  0.000000000E+00 -4.540145901E+02  4.540145901E+02  0.000000000E+00  0.00000E+00  9.000E+00
      25     1     1     2     0     0  2.864997343E+02  5.841954614E+02  2.120831682E+02  6.956800307E+02  1.250000000E+02  0.00000E+00  9.000E+00
      25     1     1     2     0     0 -1.261452882E+02 -5.068711260E+02  1.739329110E+02  5.645428501E+02  1.250000000E+02  0.00000E+00  9.000E+00
      21     1     1     2   511   502 -1.603544461E+02 -7.732433541E+01  4.516040753E+02  4.854264538E+02  5.394796609E-06  0.00000E+00  9.000E+00
#rwgt            1           1   2.7013267321508376E-002           9       80717           0
</event>
<event>
      5   9999  3.19816E-02  7.64199E+00 -1.00000E+00  2.10305E-01
      21    -1     0     0   502   512  0.000000000E+00  0.000000000E+00  1.787259334E+03  1.787259334E+03  0.000000000E+00  0.00000E+00  9.000E+00
      21    -1     0     0   501   502  0.000000000E+00  0.000000000E+00 -1.344852891E+02  1.344852891E+02  0.000000000E+00  0.00000E+00  9.000E+00
      25     1     1     2     0     0 -3.952989108E+02 -7.340438500E+01  1.269945735E+03  1.337922495E+03  1.250000000E+02  0.00000E+00  9.000E+00
      25     1     1     2     0     0  4.018946476E+02  7.726394503E+01  3.582507089E+02  5.580838606E+02  1.250000000E+02  0.00000E+00  9.000E+00
      21     1     1     2   501   512 -6.595736761E+00 -3.859560038E+00  2.457760113E+01  2.573826770E+01  3.371747881E-07  0.00000E+00  9.000E+00
#rwgt            1           1   3.0131249248419461E-002           9       80792           0
</event>
<event>
      5   9999  3.19816E-02  2.10588E+02 -1.00000E+00  1.10839E-01
      21    -1     0     0   511   501  0.000000000E+00  0.000000000E+00  4.539061430E+02  4.539061430E+02  0.000000000E+00  0.00000E+00  9.000E+00
      21    -1     0     0   501   502  0.000000000E+00  0.000000000E+00 -8.041242886E+02  8.041242886E+02  0.000000000E+00  0.00000E+00  9.000E+00
      25     1     1     2     0     0  4.513924608E+01 -1.991779444E+02 -6.363662072E+02  6.799237859E+02  1.250000000E+02  0.00000E+00  9.000E+00
      25     1     1     2     0     0 -2.077892993E+02  6.541610861E+01  2.671336776E+02  3.666620541E+02  1.250000000E+02  0.00000E+00  9.000E+00
      21     1     1     2   511   502  1.626500532E+02  1.337618357E+02  1.901438403E+01  2.114445916E+02  1.862108630E-06  0.00000E+00  9.000E+00
#rwgt            2          11   4.8275009010865892E-003           9       81182           0
</event>
<event>
      5   9999  3.19816E-02  9.24403E+01 -1.00000E+00  1.25383E-01
      21    -1     0     0   502   501  0.000000000E+00  0.000000000E+00  1.665494582E+03  1.665494582E+03  0.000000000E+00  0.00000E+00  9.000E+00
      21    -1     0     0   501   512  0.000000000E+00  0.000000000E+00 -3.391533204E+02  3.391533204E+02  0.000000000E+00  0.00000E+00  9.000E+00
      25     1     1     2     0     0  3.749640344E+02 -6.001522829E+02  9.395308463E+02  1.182845722E+03  1.250000000E+02  0.00000E+00  9.000E+00
      25     1     1     2     0     0 -3.108542970E+02  5.335554241E+02  3.129218332E+02  7.034606302E+02  1.250000000E+02  0.00000E+00  9.000E+00
      21     1     1     2   502   512 -6.410973747E+01  6.659685884E+01  7.388858164E+01  1.183415504E+02  9.536743164E-07  0.00000E+00  9.000E+00
#rwgt            1           1   2.4828666210136890E-002           9       81202           0
</event>
<event>
      5   9999  3.19816E-02  5.74841E+01 -1.00000E+00  1.35705E-01
      21    -1     0     0   511   501  0.000000000E+00  0.000000000E+00  1.014725155E+03  1.014725155E+03  0.000000000E+00  0.00000E+00  9.000E+00
      21    -1     0     0   501   502  0.000000000E+00  0.000000000E+00 -1.738395725E+02  1.738395725E+02  0.000000000E+00  0.00000E+00  9.000E+00
      25     1     1     2     0     0 -1.758926343E+02  2.504434132E+02  2.698946362E+02  4.267648494E+02  1.250000000E+02  0.00000E+00  9.000E+00
      25     1     1     2     0     0  1.973985225E+02 -1.971337210E+02  1.566676225E+02  3.435078232E+02  1.250000000E+02  0.00000E+00  9.000E+00
      21     1     1     2   511   502 -2.150588817E+01 -5.330969217E+01  4.143233240E+02  4.182920550E+02  7.629394531E-06  0.00000E+00  9.000E+00
#rwgt            1           1   2.9326411328867718E-002           9       81391           0
</event>
<event>
      5   9999  3.19816E-02  2.08598E+01 -1.00000E+00  1.64875E-01
      21    -1     0     0   512   501  0.000000000E+00  0.000000000E+00  2.463480054E+02  2.463480054E+02  0.000000000E+00  0.00000E+00  9.000E+00
      21    -1     0     0   501   502  0.000000000E+00  0.000000000E+00 -1.981517282E+02  1.981517282E+02  0.000000000E+00  0.00000E+00  9.000E+00
      25     1     1     2     0     0 -8.767729318E+01  6.512744308E+01  4.820204187E+01  1.728505957E+02  1.250000000E+02  0.00000E+00  9.000E+00
      25     1     1     2     0     0  1.041576771E+02 -5.233961213E+01 -8.019044685E+01  1.887955626E+02  1.250000000E+02  0.00000E+00  9.000E+00
      21     1     1     2   512   502 -1.648038391E+01 -1.278783095E+01  8.018468226E+01  8.285357532E+01  1.651812370E-06  0.00000E+00  9.000E+00
#rwgt            1           1   2.8556247420242604E-002           9       81471           0
</event>
<event>
      5   9999  3.19816E-02  5.25880E+01 -1.00000E+00  1.37836E-01
       3    -1     0     0   502     0  0.000000000E+00  0.000000000E+00  7.865056307E+02  7.865056307E+02  0.000000000E+00  0.00000E+00  9.000E+00
      21    -1     0     0   501   502  0.000000000E+00  0.000000000E+00 -1.313305049E+02  1.313305049E+02  0.000000000E+00  0.00000E+00  9.000E+00
      25     1     1     2     0     0  2.956411575E+01  9.066717966E+01  1.336056390E+02  2.063250861E+02  1.250000000E+02  0.00000E+00  9.000E+00
      25     1     1     2     0     0 -4.336301661E+01 -3.992182067E+01 -4.281662757E+01  1.446802218E+02  1.250000000E+02  0.00000E+00  9.000E+00
       3     1     1     2   501     0  1.379890086E+01 -5.074535899E+01  5.643861144E+02  5.668308277E+02  1.078959322E-05  0.00000E+00  9.000E+00
#rwgt            1           1   2.6484758926415417E-002           9       81589           0
</event>
<event>
      5   9999  3.19816E-02  2.65677E+01 -1.00000E+00  1.56798E-01
      21    -1     0     0   502   501  0.000000000E+00  0.000000000E+00  1.496118504E+02  1.496118504E+02  0.000000000E+00  0.00000E+00  9.000E+00
      21    -1     0     0   511   502  0.000000000E+00  0.000000000E+00 -3.722060747E+02  3.722060747E+02  0.000000000E+00  0.00000E+00  9.000E+00
      25     1     1     2     0     0 -6.928956277E+01  4.345202696E+01  7.763834758E+01  1.683503346E+02  1.250000000E+02  0.00000E+00  9.000E+00
      25     1     1     2     0     0  4.387206741E+01 -3.571939076E+01 -1.601494851E+02  2.108873888E+02  1.250000000E+02  0.00000E+00  9.000E+00
      21     1     1     2   511   501  2.541749536E+01 -7.732636201E+00 -1.400830867E+02  1.425802017E+02  0.000000000E+00  0.00000E+00  9.000E+00
#rwgt            1           1   2.8686470047762896E-002           9       81661           0
</event>
<event>
      5   9999  3.19816E-02  6.10878E+01 -1.00000E+00  1.34288E-01
      21    -1     0     0   502   512  0.000000000E+00  0.000000000E+00  8.765059765E+02  8.765059765E+02  0.000000000E+00  0.00000E+00  9.000E+00
      21    -1     0     0   501   502  0.000000000E+00  0.000000000E+00 -1.198542912E+03  1.198542912E+03  0.000000000E+00  0.00000E+00  9.000E+00
      25     1     1     2     0     0  5.940549137E+01  7.441688615E+02 -6.269747924E+02  9.828726759E+02  1.250000000E+02  0.00000E+00  9.000E+00
      25     1     1     2     0     0 -1.492588404E+00 -7.636064058E+02 -7.514941457E+00  7.738077572E+02  1.250000000E+02  0.00000E+00  9.000E+00
      21     1     1     2   501   512 -5.791290297E+01  1.943754432E+01  3.124527981E+02  3.183684556E+02  5.394796609E-06  0.00000E+00  9.000E+00
#rwgt            1           1   2.9615972862996186E-002           9       81738           0
</event>
<event>
      5   9999  3.19816E-02  2.54598E+01 -1.00000E+00  1.58160E-01
       2    -1     0     0   502     0  0.000000000E+00  0.000000000E+00  6.162698983E+02  6.162698983E+02  0.000000000E+00  0.00000E+00  9.000E+00
      21    -1     0     0   501   502  0.000000000E+00  0.000000000E+00 -2.733716143E+02  2.733716143E+02  0.000000000E+00  0.00000E+00  9.000E+00
      25     1     1     2     0     0  2.266296855E+02 -5.665069927E+01  3.736896427E+02  4.580821598E+02  1.250000000E+02  0.00000E+00  9.000E+00
      25     1     1     2     0     0 -2.059332653E+02  4.182308472E+01 -1.649912547E+02  2.949657511E+02  1.250000000E+02  0.00000E+00  9.000E+00
       2     1     1     2   501     0 -2.069642021E+01  1.482761455E+01  1.341998960E+02  1.365936018E+02  2.697398305E-06  0.00000E+00  9.000E+00
#rwgt            1           1   2.8169748053341982E-002           9       81914           0
</event>
<event>
      5   9999  3.19816E-02  3.23614E+01 -1.00000E+00  1.50789E-01
      21    -1     0     0   502   501  0.000000000E+00  0.000000000E+00  5.721926299E+02  5.721926299E+02  0.000000000E+00  0.00000E+00  9.000E+00
      21    -1     0     0   501   511  0.000000000E+00  0.000000000E+00 -5.325961874E+02  5.325961874E+02  0.000000000E+00  0.00000E+00  9.000E+00
      25     1     1     2     0     0 -1.565596479E+02 -6.677516227E+01  2.804280972E+02  3.510480927E+02  1.250000000E+02  0.00000E+00  9.000E+00
      25     1     1     2     0     0  1.300419360E+02  4.822593759E+01  2.218300357E+02  2.899486349E+02  1.250000000E+02  0.00000E+00  9.000E+00
      21     1     1     2   502   511  2.651771188E+01  1.854922468E+01 -4.626616903E+02  4.637920897E+02  5.394796609E-06  0.00000E+00  9.000E+00
#rwgt            1           1   2.8342055038432852E-002           9       82051           0
</event>
<event>
      5   9999  3.19816E-02  1.78505E+01 -1.00000E+00  1.70549E-01
      21    -1     0     0   502   501  0.000000000E+00  0.000000000E+00  1.111490099E+03  1.111490099E+03  0.000000000E+00  0.00000E+00  9.000E+00
      21    -1     0     0   501   512  0.000000000E+00  0.000000000E+00 -2.403778640E+02  2.403778640E+02  0.000000000E+00  0.00000E+00  9.000E+00
      25     1     1     2     0     0 -3.886986058E+02 -2.737758417E+02  2.948725263E+02  5.732491818E+02  1.250000000E+02  0.00000E+00  9.000E+00
      25     1     1     2     0     0  3.844707061E+02  2.911184759E+02  5.748895892E+02  7.607172475E+02  1.250000000E+02  0.00000E+00  9.000E+00
      21     1     1     2   502   512  4.227899711E+00 -1.734263422E+01  1.350119683E+00  1.790153404E+01  3.801986820E-07  0.00000E+00  9.000E+00
#rwgt            1           1   2.7491782967866720E-002           9       82137           0
</event>
<event>
      5   9999  3.19816E-02  7.23238E+01 -1.00000E+00  1.30506E-01
      21    -1     0     0   502   501  0.000000000E+00  0.000000000E+00  1.083178487E+02  1.083178487E+02  0.000000000E+00  0.00000E+00  9.000E+00
       1    -1     0     0   501     0  0.000000000E+00  0.000000000E+00 -8.221724755E+02  8.221724755E+02  0.000000000E+00  0.00000E+00  9.000E+00
      25     1     1     2     0     0  1.077748268E+02  1.077356371E+01 -6.340008660E+01  1.771328709E+02  1.250000000E+02  0.00000E+00  9.000E+00
      25     1     1     2     0     0 -1.798895779E+02 -5.278906769E+00 -1.985259746E+02  2.956783551E+02  1.250000000E+02  0.00000E+00  9.000E+00
       1     1     1     2   502     0  7.211475110E+01 -5.494656937E+00 -4.519285655E+02  4.576790982E+02  5.394796609E-06  0.00000E+00  9.000E+00
#rwgt            1           1   2.9810739689246666E-002           9       82294           0
</event>
<event>
      5   9999  3.19816E-02  6.38892E+02 -1.00000E+00  9.59189E-02
      -2    -1     0     0     0   501  0.000000000E+00  0.000000000E+00  1.125994985E+03  1.125994985E+03  0.000000000E+00  0.00000E+00  9.000E+00
      21    -1     0     0   501   502  0.000000000E+00  0.000000000E+00 -1.429303166E+03  1.429303166E+03  0.000000000E+00  0.00000E+00  9.000E+00
      25     1     1     2     0     0 -6.045751342E+02  3.744125550E+02 -3.953770474E+02  8.231912681E+02  1.250000000E+02  0.00000E+00  9.000E+00
      25     1     1     2     0     0  4.956197739E+02  2.551203595E+02 -5.735308836E+02  8.094986304E+02  1.250000000E+02  0.00000E+00  9.000E+00
      -2     1     1     2     0   502  1.089553603E+02 -6.295329145E+02  6.655997500E+02  9.226082528E+02  7.629394531E-06  0.00000E+00  9.000E+00
#rwgt            1           1   3.1982287028638291E-002           9       82345           0
</event>
<event>
      5   9999  3.19816E-02  5.96748E+01 -1.00000E+00  1.34830E-01
      21    -1     0     0   502   501  0.000000000E+00  0.000000000E+00  6.764339140E+01  6.764339140E+01  0.000000000E+00  0.00000E+00  9.000E+00
       2    -1     0     0   501     0  0.000000000E+00  0.000000000E+00 -6.031190387E+02  6.031190387E+02  0.000000000E+00  0.00000E+00  9.000E+00
      25     1     1     2     0     0  9.395284021E+01 -4.175733187E+01 -1.108088231E+02  1.961489389E+02  1.250000000E+02  0.00000E+00  9.000E+00
      25     1     1     2     0     0 -3.534316784E+01  3.053263076E+01 -3.713223457E+02  3.945714960E+02  1.250000000E+02  0.00000E+00  9.000E+00
       2     1     1     2   502     0 -5.860967237E+01  1.122470111E+01 -5.334447851E+01  8.004199521E+01  6.743495762E-07  0.00000E+00  9.000E+00
#rwgt            1           1   3.4155869668729640E-002           9       82388           0
</event>
<event>
      5   9999  3.19816E-02  2.28435E+01 -1.00000E+00  1.61742E-01
      -3    -1     0     0     0   501  0.000000000E+00  0.000000000E+00  1.186953022E+03  1.186953022E+03  0.000000000E+00  0.00000E+00  9.000E+00
      21    -1     0     0   501   502  0.000000000E+00  0.000000000E+00 -7.687286925E+01  7.687286925E+01  0.000000000E+00  0.00000E+00  9.000E+00
      25     1     1     2     0     0  1.261632049E+02  9.401570989E+01  3.359655910E+02  3.914766740E+02  1.250000000E+02  0.00000E+00  9.000E+00
      25     1     1     2     0     0 -1.367504375E+02 -1.142576204E+02  1.933745325E+02  2.911600862E+02  1.250000000E+02  0.00000E+00  9.000E+00
      -3     1     1     2     0   502  1.058723258E+01  2.024191051E+01  5.807400290E+02  5.811891307E+02  0.000000000E+00  0.00000E+00  9.000E+00
#rwgt            1           1   3.1602774250402012E-002           9       82461           0
</event>
<event>
      5   9999  3.19816E-02  1.09911E+02 -1.00000E+00  1.22010E-01
       2    -1     0     0   502     0  0.000000000E+00  0.000000000E+00  1.374320154E+03  1.374320154E+03  0.000000000E+00  0.00000E+00  9.000E+00
      21    -1     0     0   501   502  0.000000000E+00  0.000000000E+00 -1.017927630E+02  1.017927630E+02  0.000000000E+00  0.00000E+00  9.000E+00
      25     1     1     2     0     0 -1.629989823E+02 -4.291975259E+01  2.494789769E+02  3.259992842E+02  1.250000000E+02  0.00000E+00  9.000E+00
      25     1     1     2     0     0  2.635207493E+02  8.737009124E+01  3.323739725E+02  4.507484617E+02  1.250000000E+02  0.00000E+00  9.000E+00
       2     1     1     2   501     0 -1.005217670E+02 -4.445033865E+01  6.906744416E+02  6.993651711E+02  7.629394531E-06  0.00000E+00  9.000E+00
#rwgt            1           1   2.7403057703397196E-002           9       82544           0
</event>
<event>
      5   9999  3.19816E-02  2.12260E+01 -1.00000E+00  1.64265E-01
      21    -1     0     0   511   501  0.000000000E+00  0.000000000E+00  5.519928220E+01  5.519928220E+01  0.000000000E+00  0.00000E+00  9.000E+00
      21    -1     0     0   501   502  0.000000000E+00  0.000000000E+00 -1.499387696E+03  1.499387696E+03  0.000000000E+00  0.00000E+00  9.000E+00
      25     1     1     2     0     0  4.618187774E+01 -2.240497445E+02 -5.468873118E+02  6.058397359E+02  1.250000000E+02  0.00000E+00  9.000E+00
      25     1     1     2     0     0 -4.339615321E+01  2.450921639E+02 -8.736176744E+02  9.169439656E+02  1.250000000E+02  0.00000E+00  9.000E+00
      21     1     1     2   511   502 -2.785724532E+00 -2.104241935E+01 -2.368342795E+01  3.180327708E+01  4.768371582E-07  0.00000E+00  9.000E+00
#rwgt            1           1   2.8093466899426035E-002           9       82589           0
</event>
<event>
      5   9999  3.19816E-02  5.81754E+01 -1.00000E+00  1.35424E-01
      21    -1     0     0   502   501  0.000000000E+00  0.000000000E+00  8.370213061E+02  8.370213061E+02  0.000000000E+00  0.00000E+00  9.000E+00
      21    -1     0     0   512   502  0.000000000E+00  0.000000000E+00 -3.098260553E+03  3.098260553E+03  0.000000000E+00  0.00000E+00  9.000E+00
      25     1     1     2     0     0  1.494419427E+03  2.738421938E+02 -7.625746771E+02  1.704530466E+03  1.250000000E+02  0.00000E+00  9.000E+00
      25     1     1     2     0     0 -1.547723803E+03 -2.971449717E+02 -1.379676731E+03  2.098303359E+03  1.250000000E+02  0.00000E+00  9.000E+00
      21     1     1     2   512   501  5.330437538E+01  2.330277787E+01 -1.189878389E+02  1.324480340E+02  1.907348633E-06  0.00000E+00  9.000E+00
#rwgt            1           1   2.9920398607956228E-002           9       82709           0
</event>
<event>
      5   9999  3.19816E-02  4.02187E+01 -1.00000E+00  1.44693E-01
      21    -1     0     0   502   511  0.000000000E+00  0.000000000E+00  4.263413089E+02  4.263413089E+02  0.000000000E+00  0.00000E+00  9.000E+00
      21    -1     0     0   501   502  0.000000000E+00  0.000000000E+00 -3.060248372E+02  3.060248372E+02  0.000000000E+00  0.00000E+00  9.000E+00
      25     1     1     2     0     0  9.403055324E+01  2.889595540E+02 -1.666233122E+01  3.290015229E+02  1.250000000E+02  0.00000E+00  9.000E+00
      25     1     1     2     0     0 -5.689824492E+01 -3.044106821E+02  9.969222296E+01  3.485208931E+02  1.250000000E+02  0.00000E+00  9.000E+00
      21     1     1     2   501   511 -3.713230832E+01  1.545112809E+01  3.728657997E+01  5.484373005E+01  4.768371582E-07  0.00000E+00  9.000E+00
#rwgt            1           1   2.8988623005036761E-002           9       82933           0
</event>
<event>
      5   9999  3.19816E-02  2.04800E+02 -1.00000E+00  1.11274E-01
      21    -1     0     0   502   501  0.000000000E+00  0.000000000E+00  8.494443377E+02  8.494443377E+02  0.000000000E+00  0.00000E+00  9.000E+00
      21    -1     0     0   512   502  0.000000000E+00  0.000000000E+00 -1.549309863E+03  1.549309863E+03  0.000000000E+00  0.00000E+00  9.000E+00
      25     1     1     2     0     0 -1.183003548E+02  1.191156059E+02  6.679456121E+02  6.999713153E+02  1.250000000E+02  0.00000E+00  9.000E+00
      25     1     1     2     0     0  9.914676975E+01 -3.230181331E+02 -4.832594832E+01  3.634985468E+02  1.250000000E+02  0.00000E+00  9.000E+00
      21     1     1     2   512   501  1.915358510E+01  2.039025272E+02 -1.319485189E+03  1.335284338E+03  2.157918644E-05  0.00000E+00  9.000E+00
#rwgt            2          11   5.2021839666134941E-003           9       83072           0
</event>
<event>
      5   9999  3.19816E-02  1.96011E+01 -1.00000E+00  1.67094E-01
      -5    -1     0     0     0   501  0.000000000E+00  0.000000000E+00  8.220558949E+02  8.220558949E+02  0.000000000E+00  0.00000E+00  9.000E+00
      21    -1     0     0   501   502  0.000000000E+00  0.000000000E+00 -1.108113413E+03  1.108113413E+03  0.000000000E+00  0.00000E+00  9.000E+00
      25     1     1     2     0     0  3.878960242E+02 -4.093425550E+02 -8.608163226E+02  1.036655388E+03  1.250000000E+02  0.00000E+00  9.000E+00
      25     1     1     2     0     0 -3.683014323E+02  4.098493155E+02  3.431124593E+02  6.610397614E+02  1.250000000E+02  0.00000E+00  9.000E+00
      -5     1     1     2     0   502 -1.959459192E+01 -5.067604816E-01  2.316463453E+02  2.324741580E+02  2.697398305E-06  0.00000E+00  9.000E+00
#rwgt            1           1   2.9273367672512374E-002           9       83092           0
</event>
<event>
      5   9999  3.19816E-02  3.19195E+01 -1.00000E+00  1.51192E-01
      21    -1     0     0   502   511  0.000000000E+00  0.000000000E+00  4.368947178E+02  4.368947178E+02  0.000000000E+00  0.00000E+00  9.000E+00
      21    -1     0     0   501   502  0.000000000E+00  0.000000000E+00 -5.422358924E+02  5.422358924E+02  0.000000000E+00  0.00000E+00  9.000E+00
      25     1     1     2     0     0  6.457238196E+00  8.187379447E+01 -4.983305163E+02  5.202915698E+02  1.250000000E+02  0.00000E+00  9.000E+00
      25     1     1     2     0     0  2.352236200E+01 -9.283190916E+01  1.629755523E+02  2.266210394E+02  1.250000000E+02  0.00000E+00  9.000E+00
      21     1     1     2   501   511 -2.997960019E+01  1.095811469E+01  2.300137894E+02  2.322180011E+02  2.697398305E-06  0.00000E+00  9.000E+00
#rwgt            1           1   2.9412369147666307E-002           9       83306           0
</event>
<event>
      5   9999  3.19816E-02  1.47704E+02 -1.00000E+00  1.16660E-01
      21    -1     0     0   502   512  0.000000000E+00  0.000000000E+00  9.730962006E+02  9.730962006E+02  0.000000000E+00  0.00000E+00  9.000E+00
      21    -1     0     0   501   502  0.000000000E+00  0.000000000E+00 -5.959682054E+02  5.959682054E+02  0.000000000E+00  0.00000E+00  9.000E+00
      25     1     1     2     0     0  2.961903284E+02  2.929108910E+02 -3.755808897E+02  5.746403270E+02  1.250000000E+02  0.00000E+00  9.000E+00
      25     1     1     2     0     0 -1.493079036E+02 -3.084695537E+02  1.873455634E+02  4.100849616E+02  1.250000000E+02  0.00000E+00  9.000E+00
      21     1     1     2   501   512 -1.468824248E+02  1.555866271E+01  5.653633216E+02  5.843391174E+02  1.078959322E-05  0.00000E+00  9.000E+00
#rwgt            2          11   2.9392797186409275E-003           9       83456           0
</event>
<event>
      5   9999  3.19816E-02  1.71576E+01 -1.00000E+00  1.72056E-01
      21    -1     0     0   502   501  0.000000000E+00  0.000000000E+00  1.204043493E+02  1.204043493E+02  0.000000000E+00  0.00000E+00  9.000E+00
      21    -1     0     0   501   511  0.000000000E+00  0.000000000E+00 -1.881703191E+03  1.881703191E+03  0.000000000E+00  0.00000E+00  9.000E+00
      25     1     1     2     0     0 -9.818525584E+01  1.030081966E+02 -1.963995520E+02  2.728531053E+02  1.250000000E+02  0.00000E+00  9.000E+00
      25     1     1     2     0     0  9.660038315E+01 -8.592397554E+01 -1.631005719E+01  1.805701569E+02  1.250000000E+02  0.00000E+00  9.000E+00
      21     1     1     2   502   511  1.584872686E+00 -1.708422110E+01 -1.548589232E+03  1.548684278E+03  3.051757812E-05  0.00000E+00  9.000E+00
#rwgt            1           1   2.6125484118723070E-002           9       83476           0
</event>
<event>
      5   9999  3.19816E-02  2.45163E+01 -1.00000E+00  1.59389E-01
      21    -1     0     0   502   512  0.000000000E+00  0.000000000E+00  1.410105004E+03  1.410105004E+03  0.000000000E+00  0.00000E+00  9.000E+00
      21    -1     0     0   501   502  0.000000000E+00  0.000000000E+00 -4.641100021E+01  4.641100021E+01  0.000000000E+00  0.00000E+00  9.000E+00
      25     1     1     2     0     0 -3.516425646E+01  1.568890241E+02  3.104384720E+02  3.712785150E+02  1.250000000E+02  0.00000E+00  9.000E+00
      25     1     1     2     0     0  5.895424744E+01 -1.628124458E+02  7.180265169E+02  7.491131922E+02  1.250000000E+02  0.00000E+00  9.000E+00
      21     1     1     2   501   512 -2.378999098E+01  5.923421734E+00  3.352290148E+02  3.361242969E+02  3.814697266E-06  0.00000E+00  9.000E+00
#rwgt            1           1   2.7932091572622039E-002           9       83596           0
</event>
<event>
      5   9999  3.19816E-02  1.46158E+01 -1.00000E+00  1.78452E-01
      21    -1     0     0   511   501  0.000000000E+00  0.000000000E+00  5.596347279E+02  5.596347279E+02  0.000000000E+00  0.00000E+00  9.000E+00
      21    -1     0     0   501   502  0.000000000E+00  0.000000000E+00 -3.686983364E+02  3.686983364E+02  0.000000000E+00  0.00000E+00  9.000E+00
      25     1     1     2     0     0  3.137491099E+02  1.529469393E+02 -1.346791325E+02  3.944549897E+02  1.250000000E+02  0.00000E+00  9.000E+00
      25     1     1     2     0     0 -3.093150358E+02 -1.390200128E+02  2.113546700E+02  4.186862212E+02  1.250000000E+02  0.00000E+00  9.000E+00
      21     1     1     2   511   502 -4.434074019E+00 -1.392692654E+01  1.142608541E+02  1.151918533E+02  0.000000000E+00  0.00000E+00  9.000E+00
#rwgt            1           1   2.9210658201593988E-002           9       83740           0
</event>
<event>
      5   9999  3.19816E-02  4.58775E+01 -1.00000E+00  1.41242E-01
      21    -1     0     0   502   501  0.000000000E+00  0.000000000E+00  5.682116958E+02  5.682116958E+02  0.000000000E+00  0.00000E+00  9.000E+00
      21    -1     0     0   512   502  0.000000000E+00  0.000000000E+00 -6.063828596E+01  6.063828596E+01  0.000000000E+00  0.00000E+00  9.000E+00
      25     1     1     2     0     0 -4.360474048E+01  5.232939505E+01  1.689259686E+02  2.209088542E+02  1.250000000E+02  0.00000E+00  9.000E+00
      25     1     1     2     0     0  8.562044263E+01 -7.075287501E+01  3.142728637E+02  3.559905369E+02  1.250000000E+02  0.00000E+00  9.000E+00
      21     1     1     2   512   501 -4.201570216E+01  1.842347996E+01  2.437457755E+01  5.195059068E+01  8.920806376E-07  0.00000E+00  9.000E+00
#rwgt            1           1   6.8203385583522014E-002           9       83983           0
</event>
<event>
      5   9999  3.19816E-02  7.25015E+01 -1.00000E+00  1.30453E-01
      21    -1     0     0   502   501  0.000000000E+00  0.000000000E+00  1.344324324E+03  1.344324324E+03  0.000000000E+00  0.00000E+00  9.000E+00
      21    -1     0     0   511   502  0.000000000E+00  0.000000000E+00 -1.130501109E+03  1.130501109E+03  0.000000000E+00  0.00000E+00  9.000E+00
      25     1     1     2     0     0 -6.120354948E+02  4.008241506E+02 -2.811067607E+02  7.936582751E+02  1.250000000E+02  0.00000E+00  9.000E+00
      25     1     1     2     0     0  6.523661584E+02 -3.405755119E+02  9.568604899E+02  1.213581592E+03  1.250000000E+02  0.00000E+00  9.000E+00
      21     1     1     2   511   501 -4.033066354E+01 -6.024863871E+01 -4.619305141E+02  4.675855651E+02  7.629394531E-06  0.00000E+00  9.000E+00
#rwgt            1           1   3.4014861862925572E-002           9       84097           0
</event>
<event>
      5   9999  3.19816E-02  1.28050E+02 -1.00000E+00  1.19183E-01
       1    -1     0     0   502     0  0.000000000E+00  0.000000000E+00  2.596972009E+03  2.596972009E+03  0.000000000E+00  0.00000E+00  9.000E+00
      21    -1     0     0   501   502  0.000000000E+00  0.000000000E+00 -4.327367442E+01  4.327367442E+01  0.000000000E+00  0.00000E+00  9.000E+00
      25     1     1     2     0     0 -1.714626145E+02 -9.478484708E+00  5.345715436E+02  5.752225700E+02  1.250000000E+02  0.00000E+00  9.000E+00
      25     1     1     2     0     0  2.628512055E+02 -8.021530811E+01  1.301218173E+03  1.335784034E+03  1.250000000E+02  0.00000E+00  9.000E+00
       1     1     1     2   501     0 -9.138859098E+01  8.969379282E+01  7.179086182E+02  7.292390795E+02  1.525878906E-05  0.00000E+00  9.000E+00
#rwgt            1           1   2.6895284936246287E-002           9       84232           0
</event>
<event>
      5   9999  3.19816E-02  4.64373E+01 -1.00000E+00  1.40932E-01
      21    -1     0     0   502   501  0.000000000E+00  0.000000000E+00  4.239004621E+02  4.239004621E+02  0.000000000E+00  0.00000E+00  9.000E+00
      21    -1     0     0   511   502  0.000000000E+00  0.000000000E+00 -1.705789902E+03  1.705789902E+03  0.000000000E+00  0.00000E+00  9.000E+00
      25     1     1     2     0     0  2.369217148E+02 -5.951566278E+01 -1.013970110E+03  1.050444857E+03  1.250000000E+02  0.00000E+00  9.000E+00
      25     1     1     2     0     0 -2.043176284E+02  2.644907141E+01  3.689557524E+02  4.406796953E+02  1.250000000E+02  0.00000E+00  9.000E+00
      21     1     1     2   511   501 -3.260408641E+01  3.306659136E+01 -6.368750824E+02  6.385658122E+02  7.629394531E-06  0.00000E+00  9.000E+00
#rwgt            1           1   2.7747199403334932E-002           9       84277           0
</event>
<event>
      5   9999  3.19816E-02  3.41347E+01 -1.00000E+00  1.49244E-01
      21    -1     0     0   502   501  0.000000000E+00  0.000000000E+00  7.833632358E+02  7.833632358E+02  0.000000000E+00  0.00000E+00  9.000E+00
      21    -1     0     0   512   502  0.000000000E+00  0.000000000E+00 -8.271950043E+02  8.271950043E+02  0.000000000E+00  0.00000E+00  9.000E+00
      25     1     1     2     0     0  7.510318430E+02 -1.221288167E+02  6.422252712E+01  7.737659918E+02  1.250000000E+02  0.00000E+00  9.000E+00
      25     1     1     2     0     0 -7.516353124E+02  1.562582231E+02 -6.313357438E+01  7.803737075E+02  1.250000000E+02  0.00000E+00  9.000E+00
      21     1     1     2   512   501  6.034693872E-01 -3.412940635E+01 -4.492072122E+01  5.641854082E+01  4.768371582E-07  0.00000E+00  9.000E+00
#rwgt            1           1   1.9430939035683450E-002           9       84440           0
</event>
<event>
      5   9999  3.19816E-02  7.18817E+01 -1.00000E+00  1.30640E-01
       2    -1     0     0   502     0  0.000000000E+00  0.000000000E+00  1.076308752E+03  1.076308752E+03  0.000000000E+00  0.00000E+00  9.000E+00
      21    -1     0     0   501   502  0.000000000E+00  0.000000000E+00 -1.232783854E+02  1.232783854E+02  0.000000000E+00  0.00000E+00  9.000E+00
      25     1     1     2     0     0 -2.912038806E+02  1.404874732E+02  4.008010368E+02  5.299083895E+02  1.250000000E+02  0.00000E+00  9.000E+00
      25     1     1     2     0     0  2.225158080E+02 -1.616753439E+02  3.994748130E+02  5.008565941E+02  1.250000000E+02  0.00000E+00  9.000E+00
       2     1     1     2   501     0  6.868807258E+01  2.118787075E+01  1.527545166E+02  1.688221535E+02  2.697398305E-06  0.00000E+00  9.000E+00
#rwgt            1           1   2.7532652115368275E-002           9       84572           0
</event>
<event>
      5   9999  3.19816E-02  1.97164E+01 -1.00000E+00  1.66882E-01
      21    -1     0     0   502   511  0.000000000E+00  0.000000000E+00  1.054380077E+02  1.054380077E+02  0.000000000E+00  0.00000E+00  9.000E+00
      21    -1     0     0   501   502  0.000000000E+00  0.000000000E+00 -1.007931357E+03  1.007931357E+03  0.000000000E+00  0.00000E+00  9.000E+00
      25     1     1     2     0     0 -3.957161244E+01  1.782421419E+02 -8.266689305E+01  2.362096291E+02  1.250000000E+02  0.00000E+00  9.000E+00
      25     1     1     2     0     0  5.550814319E+01 -1.666332939E+02 -8.281573655E+02  8.557554736E+02  1.250000000E+02  0.00000E+00  9.000E+00
      21     1     1     2   501   511 -1.593653076E+01 -1.160884800E+01  8.330909611E+00  2.140426171E+01  1.685873940E-07  0.00000E+00  9.000E+00
#rwgt            1           1   1.7839449046772426E-002           9       84655           0
</event>
<event>
      5   9999  3.19816E-02  4.28322E+01 -1.00000E+00  1.43021E-01
      21    -1     0     0   502   501  0.000000000E+00  0.000000000E+00  4.388928310E+02  4.388928310E+02  0.000000000E+00  0.00000E+00  9.000E+00
      21    -1     0     0   512   502  0.000000000E+00  0.000000000E+00 -3.816628721E+02  3.816628721E+02  0.000000000E+00  0.00000E+00  9.000E+00
      25     1     1     2     0     0 -8.813428509E+01  2.650551100E+01 -6.921561949E+01  1.699588077E+02  1.250000000E+02  0.00000E+00  9.000E+00
      25     1     1     2     0     0  1.232063732E+02 -5.109301223E+01  3.650062464E+02  4.082215896E+02  1.250000000E+02  0.00000E+00  9.000E+00
      21     1     1     2   512   501 -3.507208810E+01  2.458750123E+01 -2.385606680E+02  2.423753059E+02  3.814697266E-06  0.00000E+00  9.000E+00
#rwgt            1           1   2.5904670880773247E-002           9       84786           0
</event>
<event>
      5   9999  3.19816E-02  8.30949E+01 -1.00000E+00  1.27557E-01
      21    -1     0     0   502   511  0.000000000E+00  0.000000000E+00  1.433183848E+02  1.433183848E+02  0.000000000E+00  0.00000E+00  9.000E+00
      21    -1     0     0   501   502  0.000000000E+00  0.000000000E+00 -2.603910348E+03  2.603910348E+03  0.000000000E+00  0.00000E+00  9.000E+00
      25     1     1     2     0     0 -2.566971690E+02 -1.143152932E+02 -9.034002709E+01  3.205428884E+02  1.250000000E+02  0.00000E+00  9.000E+00
      25     1     1     2     0     0  3.155227331E+02  1.730035545E+02 -2.240180967E+03  2.272338133E+03  1.250000000E+02  0.00000E+00  9.000E+00
      21     1     1     2   501   511 -5.882556413E+01 -5.868826131E+01 -1.300709688E+02  1.543477111E+02  0.000000000E+00  0.00000E+00  9.000E+00
#rwgt            1           1   2.2050890793692501E-002           9       84880           0
</event>
<event>
      5   9999  3.19816E-02  5.46971E+01 -1.00000E+00  1.36887E-01
      21    -1     0     0   512   501  0.000000000E+00  0.000000000E+00  1.844828459E+03  1.844828459E+03  0.000000000E+00  0.00000E+00  9.000E+00
      21    -1     0     0   501   502  0.000000000E+00  0.000000000E+00 -1.277953842E+02  1.277953842E+02  0.000000000E+00  0.00000E+00  9.000E+00
      25     1     1     2     0     0  4.000047429E+01 -1.749051743E+01  1.273757404E+03  1.280620506E+03  1.250000000E+02  0.00000E+00  9.000E+00
      25     1     1     2     0     0 -2.596098805E+01  7.035511045E+01 -7.972706953E+01  1.661481871E+02  1.250000000E+02  0.00000E+00  9.000E+00
      21     1     1     2   512   502 -1.403948624E+01 -5.286459303E+01  5.230027402E+02  5.258551498E+02  1.078959322E-05  0.00000E+00  9.000E+00
#rwgt            1           1   3.0678277634303294E-002           9       84966           0
</event>
<event>
      5   9999  3.19816E-02  3.62662E+01 -1.00000E+00  1.47530E-01
      21    -1     0     0   511   501  0.000000000E+00  0.000000000E+00  1.203859590E+02  1.203859590E+02  0.000000000E+00  0.00000E+00  9.000E+00
      21    -1     0     0   501   502  0.000000000E+00  0.000000000E+00 -6.522963846E+02  6.522963846E+02  0.000000000E+00  0.00000E+00  9.000E+00
      25     1     1     2     0     0  2.063812945E+01 -1.212804950E+02 -1.294814070E+02  2.180030404E+02  1.250000000E+02  0.00000E+00  9.000E+00
      25     1     1     2     0     0  8.379040238E+00  1.430345874E+02 -4.536687769E+02  4.919039140E+02  1.250000000E+02  0.00000E+00  9.000E+00
      21     1     1     2   511   502 -2.901716969E+01 -2.175409240E+01  5.123975824E+01  6.277538927E+01  1.907348633E-06  0.00000E+00  9.000E+00
#rwgt            1           1   3.1017251925788223E-002           9       85113           0
</event>
<event>
      5   9999  3.19816E-02  1.81793E+02 -1.00000E+00  1.13178E-01
       1    -1     0     0   502     0  0.000000000E+00  0.000000000E+00  8.974066563E+02  8.974066563E+02  0.000000000E+00  0.00000E+00  9.000E+00
      21    -1     0     0   501   502  0.000000000E+00  0.000000000E+00 -2.632527584E+03  2.632527584E+03  0.000000000E+00  0.00000E+00  9.000E+00
      25     1     1     2     0     0 -9.728342834E+02 -1.037803401E+02 -7.189395855E+02  1.220522851E+03  1.250000000E+02  0.00000E+00  9.000E+00
      25     1     1     2     0     0  1.056165585E+03 -5.778842722E+01 -1.473005116E+03  1.817744294E+03  1.250000000E+02  0.00000E+00  9.000E+00
       1     1     1     2   501     0 -8.333130149E+01  1.615687673E+02  4.568237740E+02  4.916670956E+02  5.394796609E-06  0.00000E+00  9.000E+00
#rwgt            1           1   2.4301963211047668E-002           9       85200           0
</event>
<event>
      5   9999  3.19816E-02  1.25199E+02 -1.00000E+00  1.19592E-01
      -4    -1     0     0     0   501  0.000000000E+00  0.000000000E+00  4.813404483E+02  4.813404483E+02  0.000000000E+00  0.00000E+00  9.000E+00
      21    -1     0     0   501   502  0.000000000E+00  0.000000000E+00 -1.273768914E+02  1.273768914E+02  0.000000000E+00  0.00000E+00  9.000E+00
      25     1     1     2     0     0  9.305149275E+01  4.818036242E+01  1.554016815E+02  2.252878386E+02  1.250000000E+02  0.00000E+00  9.000E+00
      25     1     1     2     0     0 -3.014484408E+01 -1.564280803E+02  1.144378235E+02  2.325929306E+02  1.250000000E+02  0.00000E+00  9.000E+00
      -4     1     1     2     0   502 -6.290664867E+01  1.082477179E+02  8.412405192E+01  1.508365704E+02  2.697398305E-06  0.00000E+00  9.000E+00
#rwgt            1           1   2.6008454934189119E-002           9       85270           0
</event>
<event>
      5   9999  3.19816E-02  5.19476E+02 -1.00000E+00  9.83828E-02
      21    -1     0     0   511   501  0.000000000E+00  0.000000000E+00  1.543946407E+03  1.543946407E+03  0.000000000E+00  0.00000E+00  9.000E+00
      21    -1     0     0   501   502  0.000000000E+00  0.000000000E+00 -2.558252946E+02  2.558252946E+02  0.000000000E+00  0.00000E+00  9.000E+00
      25     1     1     2     0     0 -4.781376265E+01 -2.862543264E+02  1.623825620E+02  3.552756559E+02  1.250000000E+02  0.00000E+00  9.000E+00
      25     1     1     2     0     0 -2.464808345E+02 -1.418184914E+02  1.636017767E+02  3.510780934E+02  1.250000000E+02  0.00000E+00  9.000E+00
      21     1     1     2   511   502  2.942945972E+02  4.280728178E+02  9.621367734E+02  1.093417952E+03  1.078959322E-05  0.00000E+00  9.000E+00
#rwgt            2          11   3.1015854120398229E-003           9       85426           0
</event>
<event>
      5   9999  3.19816E-02  7.47920E+01 -1.00000E+00  1.29781E-01
       2    -1     0     0   502     0  0.000000000E+00  0.000000000E+00  6.470583498E+02  6.470583498E+02  0.000000000E+00  0.00000E+00  9.000E+00
      21    -1     0     0   501   502  0.000000000E+00  0.000000000E+00 -3.827971299E+02  3.827971299E+02  0.000000000E+00  0.00000E+00  9.000E+00
      25     1     1     2     0     0 -5.270923728E+01 -1.152674351E+02 -1.295720691E+02  2.201789417E+02  1.250000000E+02  0.00000E+00  9.000E+00
      25     1     1     2     0     0  4.367656714E+01  4.102292469E+01 -1.821276054E+02  2.288798539E+02  1.250000000E+02  0.00000E+00  9.000E+00
       2     1     1     2   501     0  9.032670133E+00  7.424451043E+01  5.759608943E+02  5.807966841E+02  7.629394531E-06  0.00000E+00  9.000E+00
#rwgt            1           1   7.3219886965477932E-002           9       85446           0
</event>
<event>
      5   9999  3.19816E-02  2.18481E+02 -1.00000E+00  1.10268E-01
       2    -1     0     0   502     0  0.000000000E+00  0.000000000E+00  2.168860072E+03  2.168860072E+03  0.000000000E+00  0.00000E+00  9.000E+00
      21    -1     0     0   501   502  0.000000000E+00  0.000000000E+00 -9.715256269E+01  9.715256269E+01  0.000000000E+00  0.00000E+00  9.000E+00
      25     1     1     2     0     0  2.125328015E+02  1.243291789E+02  2.774225503E+02  3.914284199E+02  1.250000000E+02  0.00000E+00  9.000E+00
      25     1     1     2     0     0 -5.202108476E+01 -2.725516891E+02  7.850922588E+02  8.420127501E+02  1.250000000E+02  0.00000E+00  9.000E+00
       2     1     1     2   501     0 -1.605117167E+02  1.482225102E+02  1.009192700E+03  1.032571464E+03  1.868812365E-05  0.00000E+00  9.000E+00
#rwgt            1           1   3.2933969188158246E-002           9       85499           0
</event>
<event>
      5   9999  3.19816E-02  7.35546E+01 -1.00000E+00  1.30140E-01
      21    -1     0     0   502   511  0.000000000E+00  0.000000000E+00  6.484976611E+01  6.484976611E+01  0.000000000E+00  0.00000E+00  9.000E+00
      21    -1     0     0   501   502  0.000000000E+00  0.000000000E+00 -2.947482599E+03  2.947482599E+03  0.000000000E+00  0.00000E+00  9.000E+00
      25     1     1     2     0     0  2.400911582E+02 -1.036463976E+02 -2.413883038E+03  2.431222462E+03  1.250000000E+02  0.00000E+00  9.000E+00
      25     1     1     2     0     0 -1.823905650E+02  1.492635628E+02 -3.327119930E+02  4.264600798E+02  1.250000000E+02  0.00000E+00  9.000E+00
      21     1     1     2   501   511 -5.770059312E+01 -4.561716519E+01 -1.360378017E+02  1.546498228E+02  0.000000000E+00  0.00000E+00  9.000E+00
#rwgt            1           1   5.2119816136148488E-002           9       85540           0
</event>
<event>
      5   9999  3.19816E-02  2.11933E+01 -1.00000E+00  1.64319E-01
      21    -1     0     0   502   501  0.000000000E+00  0.000000000E+00  2.726555791E+02  2.726555791E+02  0.000000000E+00  0.00000E+00  9.000E+00
      21    -1     0     0   512   502  0.000000000E+00  0.000000000E+00 -1.067951312E+03  1.067951312E+03  0.000000000E+00  0.00000E+00  9.000E+00
      25     1     1     2     0     0 -3.424075216E+02  3.681915397E+01  6.362737365E+01  3.718494368E+02  1.250000000E+02  0.00000E+00  9.000E+00
      25     1     1     2     0     0  3.235894337E+02 -2.707059951E+01 -4.996860714E+02  6.088958112E+02  1.250000000E+02  0.00000E+00  9.000E+00
      21     1     1     2   512   501  1.881808792E+01 -9.748554462E+00 -3.592370353E+02  3.598616433E+02  0.000000000E+00  0.00000E+00  9.000E+00
#rwgt            1           1   2.9047856520491092E-002           9       85614           0
</event>
<event>
      5   9999  3.19816E-02  4.71594E+02 -1.00000E+00  9.95790E-02
      21    -1     0     0   502   501  0.000000000E+00  0.000000000E+00  3.398559189E+02  3.398559189E+02  0.000000000E+00  0.00000E+00  9.000E+00
      21    -1     0     0   511   502  0.000000000E+00  0.000000000E+00 -8.795928894E+02  8.795928894E+02  0.000000000E+00  0.00000E+00  9.000E+00
      25     1     1     2     0     0 -1.969201927E+02 -6.282573369E+01  4.802135648E+01  2.462837505E+02  1.250000000E+02  0.00000E+00  9.000E+00
      25     1     1     2     0     0 -2.005211964E+02 -1.910270838E+02 -2.201561834E+02  3.752250552E+02  1.250000000E+02  0.00000E+00  9.000E+00
      21     1     1     2   511   501  3.974413891E+02  2.538528175E+02 -3.676021436E+02  5.979400026E+02  9.344061824E-06  0.00000E+00  9.000E+00
#rwgt            2          11   4.8095570382484642E-003           9       85800           0
</event>
<event>
      5   9999  3.19816E-02  1.37984E+01 -1.00000E+00  1.80869E-01
      21    -1     0     0   502   501  0.000000000E+00  0.000000000E+00  9.075644521E+01  9.075644521E+01  0.000000000E+00  0.00000E+00  9.000E+00
      21    -1     0     0   512   502  0.000000000E+00  0.000000000E+00 -3.055112519E+02  3.055112519E+02  0.000000000E+00  0.00000E+00  9.000E+00
      25     1     1     2     0     0  8.779702354E+00 -9.544190267E+01 -1.225777819E+02  1.995909632E+02  1.250000000E+02  0.00000E+00  9.000E+00
      25     1     1     2     0     0  4.982173426E+00  9.644496741E+01 -7.563277731E+01  1.751335799E+02  1.250000000E+02  0.00000E+00  9.000E+00
      21     1     1     2   512   501 -1.376187578E+01 -1.003064738E+00 -1.654424744E+01  2.154315407E+01  4.129530925E-07  0.00000E+00  9.000E+00
#rwgt            1           1   7.1561163507252182E-002           9       85820           0
</event>
<event>
      5   9999  3.19816E-02  2.45889E+01 -1.00000E+00  1.59292E-01
      21    -1     0     0   502   501  0.000000000E+00  0.000000000E+00  5.076018646E+02  5.076018646E+02  0.000000000E+00  0.00000E+00  9.000E+00
       1    -1     0     0   501     0  0.000000000E+00  0.000000000E+00 -4.918466465E+02  4.918466465E+02  0.000000000E+00  0.00000E+00  9.000E+00
      25     1     1     2     0     0 -9.990956557E+01  5.044383558E+01  3.616416135E+02  3.986679802E+02  1.250000000E+02  0.00000E+00  9.000E+00
      25     1     1     2     0     0  9.444852454E+01 -2.646901456E+01  7.742849503E+01  1.767520986E+02  1.250000000E+02  0.00000E+00  9.000E+00
       1     1     1     2   502     0  5.461041028E+00 -2.397482102E+01 -4.233148903E+02  4.240284323E+02  0.000000000E+00  0.00000E+00  9.000E+00
#rwgt            1           1   2.9975061023096335E-002           9       85986           0
</event>
<event>
      5   9999  3.19816E-02  6.96716E+01 -1.00000E+00  1.31324E-01
      21    -1     0     0   511   501  0.000000000E+00  0.000000000E+00  3.106286995E+02  3.106286995E+02  0.000000000E+00  0.00000E+00  9.000E+00
      21    -1     0     0   501   502  0.000000000E+00  0.000000000E+00 -3.207914864E+02  3.207914864E+02  0.000000000E+00  0.00000E+00  9.000E+00
      25     1     1     2     0     0  1.629765593E+02  8.789264670E+01 -1.212083642E+02  2.541710915E+02  1.250000000E+02  0.00000E+00  9.000E+00
      25     1     1     2     0     0 -1.120693280E+02 -4.032604314E+01 -6.766058414E+01  1.854418472E+02  1.250000000E+02  0.00000E+00  9.000E+00
      21     1     1     2   511   502 -5.090723129E+01 -4.756660356E+01  1.787061614E+02  1.918072473E+02  1.907348633E-06  0.00000E+00  9.000E+00
#rwgt            1           1   3.2907533851148037E-002           9       86105           0
</event>
<event>
      5   9999  3.19816E-02  4.83977E+01 -1.00000E+00  1.39887E-01
      21    -1     0     0   512   501  0.000000000E+00  0.000000000E+00  1.550816296E+03  1.550816296E+03  0.000000000E+00  0.00000E+00  9.000E+00
      21    -1     0     0   501   502  0.000000000E+00  0.000000000E+00 -2.630269379E+02  2.630269379E+02  0.000000000E+00  0.00000E+00  9.000E+00
      25     1     1     2     0     0 -4.012781584E+02 -3.816338869E+02  2.400345888E+02  6.163685487E+02  1.250000000E+02  0.00000E+00  9.000E+00
      25     1     1     2     0     0  3.934762459E+02  3.338691457E+02  9.467558575E+02  1.085478612E+03  1.250000000E+02  0.00000E+00  9.000E+00
      21     1     1     2   512   502  7.801912520E+00  4.776474119E+01  1.009989122E+02  1.119960740E+02  0.000000000E+00  0.00000E+00  9.000E+00
#rwgt            1           1   3.2323237890654631E-002           9       86151           0
</event>
<event>
      5   9999  3.19816E-02  2.36073E+02 -1.00000E+00  1.09088E-01
      21    -1     0     0   511   501  0.000000000E+00  0.000000000E+00  1.148689454E+03  1.148689454E+03  0.000000000E+00  0.00000E+00  9.000E+00
      21    -1     0     0   501   502  0.000000000E+00  0.000000000E+00 -2.149836133E+03  2.149836133E+03  0.000000000E+00  0.00000E+00  9.000E+00
      25     1     1     2     0     0  6.252977095E+02 -2.805904541E+02 -1.910328158E+02  7.223896214E+02  1.250000000E+02  0.00000E+00  9.000E+00
      25     1     1     2     0     0 -5.893371545E+02  4.727208584E+01 -1.621847593E+03  1.730770795E+03  1.250000000E+02  0.00000E+00  9.000E+00
      21     1     1     2   511   502 -3.596055495E+01  2.333183682E+02  8.117337298E+02  8.453651699E+02  1.868812365E-05  0.00000E+00  9.000E+00
#rwgt            1           1   1.8513494688167032E-002           9       86270           0
</event>
<event>
      5   9999  3.19816E-02  3.51205E+02 -1.00000E+00  1.03415E-01
      21    -1     0     0   502   501  0.000000000E+00  0.000000000E+00  4.822228820E+02  4.822228820E+02  0.000000000E+00  0.00000E+00  9.000E+00
       2    -1     0     0   501     0  0.000000000E+00  0.000000000E+00 -1.694499223E+03  1.694499223E+03  0.000000000E+00  0.00000E+00  9.000E+00
      25     1     1     2     0     0 -3.074591638E+02 -8.666523229E+01 -7.566962721E+02  8.308166152E+02  1.250000000E+02  0.00000E+00  9.000E+00
      25     1     1     2     0     0  2.793671461E+02 -2.634149089E+02  3.063940699E+02  5.068882940E+02  1.250000000E+02  0.00000E+00  9.000E+00
       2     1     1     2   502     0  2.809201770E+01  3.500801412E+02 -7.619741392E+02  8.390171962E+02  1.078959322E-05  0.00000E+00  9.000E+00
#rwgt            2          13   1.2558717314176231E-003           9       86344           0
</event>
<event>
      5   9999  3.19816E-02  7.18661E+01 -1.00000E+00  1.30645E-01
      21    -1     0     0   511   501  0.000000000E+00  0.000000000E+00  4.079146982E+02  4.079146982E+02  0.000000000E+00  0.00000E+00  9.000E+00
      21    -1     0     0   501   502  0.000000000E+00  0.000000000E+00 -2.402645853E+02  2.402645853E+02  0.000000000E+00  0.00000E+00  9.000E+00
      25     1     1     2     0     0 -1.060896121E+02  1.348138390E+02  1.838636066E+02  2.808213005E+02  1.250000000E+02  0.00000E+00  9.000E+00
      25     1     1     2     0     0  1.721726567E+02 -1.630585920E+02 -7.063550521E+01  2.772109354E+02  1.250000000E+02  0.00000E+00  9.000E+00
      21     1     1     2   511   502 -6.608304457E+01  2.824475302E+01  5.442201154E+01  9.014704761E+01  6.743495762E-07  0.00000E+00  9.000E+00
#rwgt            1           1   2.7016122732022266E-002           9       86363           0
</event>
<event>
      5   9999  3.19816E-02  1.01636E+01 -1.00000E+00  1.94946E-01
      21    -1     0     0   512   501  0.000000000E+00  0.000000000E+00  1.255676140E+02  1.255676140E+02  0.000000000E+00  0.00000E+00  9.000E+00
      21    -1     0     0   501   502  0.000000000E+00  0.000000000E+00 -2.277448903E+03  2.277448903E+03  0.000000000E+00  0.00000E+00  9.000E+00
      25     1     1     2     0     0  2.066594073E+02 -3.163854205E+02 -1.833267669E+03  1.875980595E+03  1.250000000E+02  0.00000E+00  9.000E+00
      25     1     1     2     0     0 -2.078157372E+02  3.264829997E+02 -2.984514910E+02  5.044569577E+02  1.250000000E+02  0.00000E+00  9.000E+00
      21     1     1     2   512   502  1.156329899E+00 -1.009757920E+01 -2.016212895E+01  2.257896474E+01  3.371747881E-07  0.00000E+00  9.000E+00
#rwgt            1           1   2.9510697665883649E-002           9       86458           0
</event>
<event>
      5   9999  3.19816E-02  7.97812E+01 -1.00000E+00  1.28407E-01
      21    -1     0     0   502   501  0.000000000E+00  0.000000000E+00  2.350802901E+02  2.350802901E+02  0.000000000E+00  0.00000E+00  9.000E+00
      21    -1     0     0   511   502  0.000000000E+00  0.000000000E+00 -6.771168813E+02  6.771168813E+02  0.000000000E+00  0.00000E+00  9.000E+00
      25     1     1     2     0     0  2.274862726E+02 -1.904142801E+02 -3.590333743E+02  4.822214907E+02  1.250000000E+02  0.00000E+00  9.000E+00
      25     1     1     2     0     0 -1.809350361E+02  1.256221591E+02  6.532339552E+01  2.615541247E+02  1.250000000E+02  0.00000E+00  9.000E+00
      21     1     1     2   511   501 -4.655123648E+01  6.479212101E+01 -1.483266124E+02  1.684215560E+02  1.907348633E-06  0.00000E+00  9.000E+00
#rwgt            1           1   2.5572504133395877E-002           9       86747           0
</event>
<event>
      5   9999  3.19816E-02  9.29057E+01 -1.00000E+00  1.25283E-01
      21    -1     0     0   502   501  0.000000000E+00  0.000000000E+00  1.786994401E+02  1.786994401E+02  0.000000000E+00  0.00000E+00  9.000E+00
      21    -1     0     0   501   512  0.000000000E+00  0.000000000E+00 -4.917386441E+02  4.917386441E+02  0.000000000E+00  0.00000E+00  9.000E+00
      25     1     1     2     0     0  1.373644159E+02  5.125997507E+01 -1.179528721E+02  2.259080517E+02  1.250000000E+02  0.00000E+00  9.000E+00
      25     1     1     2     0     0 -1.878721343E+02  2.671723587E+01  1.344014277E+00  2.272367838E+02  1.250000000E+02  0.00000E+00  9.000E+00
      21     1     1     2   502   512  5.050771832E+01 -7.797721094E+01 -1.964303461E+02  2.172932487E+02  2.697398305E-06  0.00000E+00  9.000E+00
#rwgt            1           1   3.0739752422715448E-002           9       86817           0
</event>
<event>
      5   9999  3.19816E-02  1.64703E+02 -1.00000E+00  1.14807E-01
      21    -1     0     0   502   501  0.000000000E+00  0.000000000E+00  1.589581811E+03  1.589581811E+03  0.000000000E+00  0.00000E+00  9.000E+00
      21    -1     0     0   501   511  0.000000000E+00  0.000000000E+00 -2.247051410E+02  2.247051410E+02  0.000000000E+00  0.00000E+00  9.000E+00
      25     1     1     2     0     0  3.045709684E+02  4.690852232E+01  1.027650399E+03  1.080117691E+03  1.250000000E+02  0.00000E+00  9.000E+00
      25     1     1     2     0     0 -4.143361582E+02 -1.697042570E+02  1.585418978E+02  4.911563093E+02  1.250000000E+02  0.00000E+00  9.000E+00
      21     1     1     2   502   511  1.097651898E+02  1.227957347E+02  1.786843732E+02  2.430129515E+02  4.264961200E-06  0.00000E+00  9.000E+00
#rwgt            2          11   5.2252019224107603E-003           9       86991           0
</event>
<event>
      5   9999  3.19816E-02  2.09473E+02 -1.00000E+00  1.10921E-01
       1    -1     0     0   502     0  0.000000000E+00  0.000000000E+00  2.300860361E+02  2.300860361E+02  0.000000000E+00  0.00000E+00  9.000E+00
      21    -1     0     0   501   502  0.000000000E+00  0.000000000E+00 -3.906561096E+02  3.906561096E+02  0.000000000E+00  0.00000E+00  9.000E+00
      25     1     1     2     0     0  1.582344061E+02  1.137930093E+02 -1.286272269E+02  2.648715533E+02  1.250000000E+02  0.00000E+00  9.000E+00
      25     1     1     2     0     0 -3.646486675E+01  5.665045507E+01  9.578043531E+00  1.423225192E+02  1.250000000E+02  0.00000E+00  9.000E+00
       1     1     1     2   501     0 -1.217695394E+02 -1.704434643E+02 -4.152089007E+01  2.135480732E+02  2.739220927E-06  0.00000E+00  9.000E+00
#rwgt            1           1   3.2353695921302841E-002           9       87011           0
</event>
<event>
      5   9999  3.19816E-02  7.73816E+01 -1.00000E+00  1.29053E-01
      21    -1     0     0   502   501  0.000000000E+00  0.000000000E+00  1.365940086E+03  1.365940086E+03  0.000000000E+00  0.00000E+00  9.000E+00
      21    -1     0     0   501   511  0.000000000E+00  0.000000000E+00 -1.536634148E+02  1.536634148E+02  0.000000000E+00  0.00000E+00  9.000E+00
      25     1     1     2     0     0 -3.262857132E+01  3.070912761E+02  2.161350274E+02  3.971259568E+02  1.250000000E+02  0.00000E+00  9.000E+00
      25     1     1     2     0     0  1.152857008E+01 -3.815406521E+02  9.522966570E+02  1.033537663E+03  1.250000000E+02  0.00000E+00  9.000E+00
      21     1     1     2   502   511  2.110000123E+01  7.444937600E+01  4.384498713E+01  8.893988158E+01  1.507891493E-06  0.00000E+00  9.000E+00
#rwgt            1           1   2.7292920328688675E-002           9       87063           0
</event>
<event>
      5   9999  3.19816E-02  6.81893E+01 -1.00000E+00  1.31800E-01
      21    -1     0     0   502   512  0.000000000E+00  0.000000000E+00  5.139762302E+02  5.139762302E+02  0.000000000E+00  0.00000E+00  9.000E+00
      21    -1     0     0   501   502  0.000000000E+00  0.000000000E+00 -1.398852507E+02  1.398852507E+02  0.000000000E+00  0.00000E+00  9.000E+00
      25     1     1     2     0     0  2.049745685E+01  3.700329532E+01  3.526227933E+02  3.765066054E+02  1.250000000E+02  0.00000E+00  9.000E+00
      25     1     1     2     0     0 -6.255377743E+01  1.667206495E+01 -7.478046571E+01  1.593990303E+02  1.250000000E+02  0.00000E+00  9.000E+00
      21     1     1     2   501   512  4.205632058E+01 -5.367536028E+01  9.624865200E+01  1.179558452E+02  1.348699152E-06  0.00000E+00  9.000E+00
#rwgt            1           1   2.4917301226477454E-002           9       87167           0
</event>
<event>
      5   9999  3.19816E-02  1.82594E+02 -1.00000E+00  1.13107E-01
      21    -1     0     0   502   501  0.000000000E+00  0.000000000E+00  7.858790106E+02  7.858790106E+02  0.000000000E+00  0.00000E+00  9.000E+00
      21    -1     0     0   511   502  0.000000000E+00  0.000000000E+00 -2.675543364E+02  2.675543364E+02  0.000000000E+00  0.00000E+00  9.000E+00
      25     1     1     2     0     0 -1.601135228E+02  1.917606911E+02  2.731083516E+02  3.906682410E+02  1.250000000E+02  0.00000E+00  9.000E+00
      25     1     1     2     0     0  1.335906427E+02 -3.724185046E+02  2.415827081E+02  4.801345721E+02  1.250000000E+02  0.00000E+00  9.000E+00
      21     1     1     2   511   501  2.652288011E+01  1.806578135E+02  3.633614439E+00  1.826305339E+02  2.026996144E-06  0.00000E+00  9.000E+00
#rwgt            2          11   4.1109831714947389E-003           9       87223           0
</event>
<event>
      5   9999  3.19816E-02  3.07383E+02 -1.00000E+00  1.05250E-01
      21    -1     0     0   502   501  0.000000000E+00  0.000000000E+00  1.200250551E+03  1.200250551E+03  0.000000000E+00  0.00000E+00  9.000E+00
       2    -1     0     0   501     0  0.000000000E+00  0.000000000E+00 -2.841132329E+03  2.841132329E+03  0.000000000E+00  0.00000E+00  9.000E+00
      25     1     1     2     0     0 -7.773014833E+01 -1.721986983E+02 -1.658100571E+02  2.807353606E+02  1.250000000E+02  0.00000E+00  9.000E+00
      25     1     1     2     0     0 -2.215582575E+02  1.021219742E+02  1.117137411E+03  1.150277338E+03  1.250000000E+02  0.00000E+00  9.000E+00
       2     1     1     2   502     0  2.992884059E+02  7.007672408E+01 -2.592209132E+03  2.610370181E+03  3.051757812E-05  0.00000E+00  9.000E+00
#rwgt            2          13   7.7546274494466058E-003           9       87363           0
</event>
<event>
      5   9999  3.19816E-02  9.42839E+01 -1.00000E+00  1.24989E-01
      21    -1     0     0   502   501  0.000000000E+00  0.000000000E+00  3.696414981E+02  3.696414981E+02  0.000000000E+00  0.00000E+00  9.000E+00
      21    -1     0     0   511   502  0.000000000E+00  0.000000000E+00 -1.747341532E+02  1.747341532E+02  0.000000000E+00  0.00000E+00  9.000E+00
      25     1     1     2     0     0 -4.396988484E+01  8.201371162E+01  1.236148599E+02  1.989101135E+02  1.250000000E+02  0.00000E+00  9.000E+00
      25     1     1     2     0     0 -1.647356942E+01 -1.543742312E+02  1.266299484E+02  2.361417489E+02  1.250000000E+02  0.00000E+00  9.000E+00
      21     1     1     2   511   501  6.044345426E+01  7.236051955E+01 -5.533746343E+01  1.093237889E+02  1.507891493E-06  0.00000E+00  9.000E+00
#rwgt            1           1   2.4537892069577183E-002           9       87397           0
</event>
<event>
      5   9999  3.19816E-02  1.61615E+02 -1.00000E+00  1.15124E-01
      21    -1     0     0   512   501  0.000000000E+00  0.000000000E+00  1.846438059E+02  1.846438059E+02  0.000000000E+00  0.00000E+00  9.000E+00
      21    -1     0     0   501   502  0.000000000E+00  0.000000000E+00 -1.293577786E+03  1.293577786E+03  0.000000000E+00  0.00000E+00  9.000E+00
      25     1     1     2     0     0 -2.036686446E+01  3.074876246E+02 -7.207094215E+02  7.937320194E+02  1.250000000E+02  0.00000E+00  9.000E+00
      25     1     1     2     0     0  1.809507270E+02 -3.257168504E+02 -2.166052281E+02  4.487509967E+02  1.250000000E+02  0.00000E+00  9.000E+00
      21     1     1     2   512   502 -1.605838625E+02  1.822922584E+01 -1.716193310E+02  2.357385762E+02  1.907348633E-06  0.00000E+00  9.000E+00
#rwgt            2          11   4.2714332426166705E-003           9       87471           0
</event>
<event>
      5   9999  3.19816E-02  1.04352E+02 -1.00000E+00  1.23001E-01
      21    -1     0     0   502   501  0.000000000E+00  0.000000000E+00  4.402220898E+02  4.402220898E+02  0.000000000E+00  0.00000E+00  9.000E+00
      21    -1     0     0   511   502  0.000000000E+00  0.000000000E+00 -5.959659144E+02  5.959659144E+02  0.000000000E+00  0.00000E+00  9.000E+00
      25     1     1     2     0     0 -1.571132919E+02  2.429629316E+02  2.517894647E+02  4.034086106E+02  1.250000000E+02  0.00000E+00  9.000E+00
      25     1     1     2     0     0  2.614583883E+02 -2.441639055E+02 -3.044538536E+02  4.861004531E+02  1.250000000E+02  0.00000E+00  9.000E+00
      21     1     1     2   511   501 -1.043450965E+02  1.200973871E+00 -1.030794356E+02  1.466789404E+02  1.907348633E-06  0.00000E+00  9.000E+00
#rwgt            1           1   2.5917760914200758E-002           9       87491           0
</event>
<event>
      5   9999  3.19816E-02  9.74067E+00 -1.00000E+00  1.97086E-01
      21    -1     0     0   512   501  0.000000000E+00  0.000000000E+00  5.544365538E+02  5.544365538E+02  0.000000000E+00  0.00000E+00  9.000E+00
      21    -1     0     0   501   502  0.000000000E+00  0.000000000E+00 -1.421291117E+02  1.421291117E+02  0.000000000E+00  0.00000E+00  9.000E+00
      25     1     1     2     0     0 -1.529394418E+02  9.188304618E+00 -2.473354620E+01  1.992778114E+02  1.250000000E+02  0.00000E+00  9.000E+00
      25     1     1     2     0     0  1.535079590E+02 -1.891237104E+01  3.001572276E+02  3.600579572E+02  1.250000000E+02  0.00000E+00  9.000E+00
      21     1     1     2   512   502 -5.685171978E-01  9.724066424E+00  1.368837606E+02  1.372298969E+02  2.697398305E-06  0.00000E+00  9.000E+00
#rwgt            1           1   2.7096875977517913E-002           9       87599           0
</event>
<event>
      5   9999  3.19816E-02  1.09098E+02 -1.00000E+00  1.22151E-01
      21    -1     0     0   502   501  0.000000000E+00  0.000000000E+00  1.861463523E+02  1.861463523E+02  0.000000000E+00  0.00000E+00  9.000E+00
       2    -1     0     0   501     0  0.000000000E+00  0.000000000E+00 -1.612357526E+03  1.612357526E+03  0.000000000E+00  0.00000E+00  9.000E+00
      25     1     1     2     0     0 -7.950775333E+01 -3.232721293E+02 -8.328565171E+01  3.652230171E+02  1.250000000E+02  0.00000E+00  9.000E+00
      25     1     1     2     0     0  1.560959231E+02  2.455761007E+02 -5.646941943E+02  6.474396431E+02  1.250000000E+02  0.00000E+00  9.000E+00
       2     1     1     2   502     0 -7.658816976E+01  7.769602869E+01 -7.782313275E+02  7.858412179E+02  1.078959322E-05  0.00000E+00  9.000E+00
#rwgt            1           1   2.9250890224260407E-002           9       87747           0
</event>
<event>
      5   9999  3.19816E-02  3.60491E+01 -1.00000E+00  1.47698E-01
      21    -1     0     0   502   511  0.000000000E+00  0.000000000E+00  1.372569528E+02  1.372569528E+02  0.000000000E+00  0.00000E+00  9.000E+00
      21    -1     0     0   501   502  0.000000000E+00  0.000000000E+00 -1.440826650E+03  1.440826650E+03  0.000000000E+00  0.00000E+00  9.000E+00
      25     1     1     2     0     0 -3.329627198E+01 -2.294092763E+02 -1.248833166E+03  1.276301897E+03  1.250000000E+02  0.00000E+00  9.000E+00
      25     1     1     2     0     0  6.131587341E+01  2.067279999E+02 -7.518837681E+01  2.603351576E+02  1.250000000E+02  0.00000E+00  9.000E+00
      21     1     1     2   501   511 -2.801960144E+01  2.268127635E+01  2.045184518E+01  4.144654790E+01  1.092571186E-06  0.00000E+00  9.000E+00
#rwgt            1           1   3.6455863146777845E-002           9       87798           0
</event>
<event>
      5   9999  3.19816E-02  6.28689E+01 -1.00000E+00  1.33628E-01
      21    -1     0     0   502   512  0.000000000E+00  0.000000000E+00  4.491921517E+02  4.491921517E+02  0.000000000E+00  0.00000E+00  9.000E+00
      21    -1     0     0   501   502  0.000000000E+00  0.000000000E+00 -3.572130348E+02  3.572130348E+02  0.000000000E+00  0.00000E+00  9.000E+00
      25     1     1     2     0     0 -2.473575654E+02 -1.909306242E+02 -3.233387947E+01  3.380987255E+02  1.250000000E+02  0.00000E+00  9.000E+00
      25     1     1     2     0     0  3.070443878E+02  1.711827491E+02  5.915259164E+01  3.777615898E+02  1.250000000E+02  0.00000E+00  9.000E+00
      21     1     1     2   501   512 -5.968682240E+01  1.974787511E+01  6.516040479E+01  9.054487115E+01  1.348699152E-06  0.00000E+00  9.000E+00
#rwgt            2          11   3.1228354436392261E-003           9       87892           0
</event>
<event>
      5   9999  3.19816E-02  1.55961E+01 -1.00000E+00  1.75804E-01
      21    -1     0     0   511   501  0.000000000E+00  0.000000000E+00  1.231432752E+02  1.231432752E+02  0.000000000E+00  0.00000E+00  9.000E+00
      21    -1     0     0   501   502  0.000000000E+00  0.000000000E+00 -2.556013051E+03  2.556013051E+03  0.000000000E+00  0.00000E+00  9.000E+00
      25     1     1     2     0     0 -2.483432046E+01 -4.031783486E+02 -1.904566996E+03  1.950940791E+03  1.250000000E+02  0.00000E+00  9.000E+00
      25     1     1     2     0     0  3.933248941E+01  4.089265735E+02 -5.523024620E+02  6.995934511E+02  1.250000000E+02  0.00000E+00  9.000E+00
      21     1     1     2   511   502 -1.449816895E+01 -5.748224931E+00  2.399968234E+01  2.862208492E+01  1.066240300E-06  0.00000E+00  9.000E+00
#rwgt            1           1   8.9552447104352631E-002           9       87912           0
</event>
<event>
      5   9999  3.19816E-02  9.09518E+01 -1.00000E+00  1.25709E-01
      21    -1     0     0   502   501  0.000000000E+00  0.000000000E+00  1.062957210E+03  1.062957210E+03  0.000000000E+00  0.00000E+00  9.000E+00
      21    -1     0     0   501   512  0.000000000E+00  0.000000000E+00 -1.749969385E+03  1.749969385E+03  0.000000000E+00  0.00000E+00  9.000E+00
      25     1     1     2     0     0 -1.610370027E+01  7.561590070E+02  1.835454816E+01  7.668100563E+02  1.250000000E+02  0.00000E+00  9.000E+00
      25     1     1     2     0     0  7.368442387E+01 -8.265627756E+02  4.051486038E+02  9.318829366E+02  1.250000000E+02  0.00000E+00  9.000E+00
      21     1     1     2   502   512 -5.758072360E+01  7.040376869E+01 -1.110515327E+03  1.114233603E+03  2.157918644E-05  0.00000E+00  9.000E+00
#rwgt            1           1   2.1874182787000304E-002           9       88241           0
</event>
<event>
      5   9999  3.19816E-02  9.08538E+02 -1.00000E+00  9.20024E-02
       2    -1     0     0   502     0  0.000000000E+00  0.000000000E+00  2.426405374E+03  2.426405374E+03  0.000000000E+00  0.00000E+00  9.000E+00
      21    -1     0     0   501   502  0.000000000E+00  0.000000000E+00 -7.293532227E+02  7.293532227E+02  0.000000000E+00  0.00000E+00  9.000E+00
      25     1     1     2     0     0 -1.164789117E+02 -2.034336350E+01 -9.181422637E+00  1.723092796E+02  1.250000000E+02  0.00000E+00  9.000E+00
      25     1     1     2     0     0  9.944516321E+02  2.540201108E+02 -1.841303341E+01  1.034129733E+03  1.250000000E+02  0.00000E+00  9.000E+00
       2     1     1     2   501     0 -8.779727204E+02 -2.336767473E+02  1.724646608E+03  1.949319584E+03  2.157918644E-05  0.00000E+00  9.000E+00
#rwgt            2          18   1.7022782971179218E-003           9       88478           0
</event>
<event>
      5   9999  3.19816E-02  2.06144E+01 -1.00000E+00  1.65292E-01
       2    -1     0     0   502     0  0.000000000E+00  0.000000000E+00  1.781185662E+03  1.781185662E+03  0.000000000E+00  0.00000E+00  9.000E+00
      21    -1     0     0   501   502  0.000000000E+00  0.000000000E+00 -1.317118533E+03  1.317118533E+03  0.000000000E+00  0.00000E+00  9.000E+00
      25     1     1     2     0     0 -1.765478551E+02  2.016294968E+01 -2.089972804E+02  3.014640159E+02  1.250000000E+02  0.00000E+00  9.000E+00
      25     1     1     2     0     0  1.870669679E+02 -2.434437542E+00 -1.049906910E+03  1.073745546E+03  1.250000000E+02  0.00000E+00  9.000E+00
       2     1     1     2   501     0 -1.051911274E+01 -1.772851214E+01  1.722971319E+03  1.723094634E+03  3.051757812E-05  0.00000E+00  9.000E+00
#rwgt            1           1   3.1266370613340359E-002           9       88497           0
</event>
<event>
      5   9999  3.19816E-02  3.66605E+02 -1.00000E+00  1.02838E-01
       2    -1     0     0   502     0  0.000000000E+00  0.000000000E+00  8.881781431E+02  8.881781431E+02  0.000000000E+00  0.00000E+00  9.000E+00
      21    -1     0     0   501   502  0.000000000E+00  0.000000000E+00 -1.282779270E+03  1.282779270E+03  0.000000000E+00  0.00000E+00  9.000E+00
      25     1     1     2     0     0 -3.640691573E+02  4.756406339E+02 -9.451634456E+02  1.125939298E+03  1.250000000E+02  0.00000E+00  9.000E+00
      25     1     1     2     0     0 -1.392346023E+00 -5.045709643E+02  2.899709821E+02  5.952327000E+02  1.250000000E+02  0.00000E+00  9.000E+00
       2     1     1     2   501     0  3.654615033E+02  2.893033046E+01  2.605913370E+02  4.497854148E+02  7.629394531E-06  0.00000E+00  9.000E+00
#rwgt            1           1   2.1122406412992893E-002           9       88643           0
</event>
<event>
      5   9999  3.19816E-02  1.13879E+02 -1.00000E+00  1.21341E-01
      21    -1     0     0   502   501  0.000000000E+00  0.000000000E+00  1.296745627E+02  1.296745627E+02  0.000000000E+00  0.00000E+00  9.000E+00
      21    -1     0     0   511   502  0.000000000E+00  0.000000000E+00 -2.399534101E+03  2.399534101E+03  0.000000000E+00  0.00000E+00  9.000E+00
      25     1     1     2     0     0 -2.528886387E+02 -2.563332345E+02 -1.240430136E+03  1.297671497E+03  1.250000000E+02  0.00000E+00  9.000E+00
      25     1     1     2     0     0  1.758438523E+02  1.724727286E+02 -9.786293124E+01  2.930359293E+02  1.250000000E+02  0.00000E+00  9.000E+00
      21     1     1     2   511   501  7.704478638E+01  8.386050583E+01 -9.315664707E+02  9.385012376E+02  1.078959322E-05  0.00000E+00  9.000E+00
#rwgt            1           1   3.8502136067993548E-002           9       88672           0
</event>
<event>
      5   9999  3.19816E-02  4.28668E+02 -1.00000E+00  1.00789E-01
      21    -1     0     0   502   501  0.000000000E+00  0.000000000E+00  1.174848442E+03  1.174848442E+03  0.000000000E+00  0.00000E+00  9.000E+00
      21    -1     0     0   512   502  0.000000000E+00  0.000000000E+00 -5.151210039E+02  5.151210039E+02  0.000000000E+00  0.00000E+00  9.000E+00
      25     1     1     2     0     0 -2.223940312E+02 -2.936698073E+02  9.378469750E+02  1.015324091E+03  1.250000000E+02  0.00000E+00  9.000E+00
      25     1     1     2     0     0 -1.247745447E+02  4.221368799E+01 -4.670655770E+01  1.875024933E+02  1.250000000E+02  0.00000E+00  9.000E+00
      21     1     1     2   512   501  3.471685760E+02  2.514561193E+02 -2.314129797E+02  4.871428613E+02  8.092194914E-06  0.00000E+00  9.000E+00
#rwgt            2          11   4.1084968269540266E-003           9       88739           0
</event>
<event>
      5   9999  3.19816E-02  1.36212E+02 -1.00000E+00  1.18078E-01
      21    -1     0     0   502   501  0.000000000E+00  0.000000000E+00  1.019321123E+03  1.019321123E+03  0.000000000E+00  0.00000E+00  9.000E+00
      21    -1     0     0   501   511  0.000000000E+00  0.000000000E+00 -1.935380205E+02  1.935380205E+02  0.000000000E+00  0.00000E+00  9.000E+00
      25     1     1     2     0     0 -3.016236726E+01  2.839753040E+01  1.948388935E+02  2.351667123E+02  1.250000000E+02  0.00000E+00  9.000E+00
      25     1     1     2     0     0 -9.376419317E+01 -8.493044501E+01  7.657020370E+02  7.860849279E+02  1.250000000E+02  0.00000E+00  9.000E+00
      21     1     1     2   502   511  1.239265604E+02  5.653291461E+01 -1.347578284E+02  1.916075028E+02  0.000000000E+00  0.00000E+00  9.000E+00
#rwgt            1           1   7.1399661642555332E-002           9       88759           0
</event>
<event>
      5   9999  3.19816E-02  2.78017E+01 -1.00000E+00  1.55371E-01
      21    -1     0     0   512   501  0.000000000E+00  0.000000000E+00  6.689298639E+01  6.689298639E+01  0.000000000E+00  0.00000E+00  9.000E+00
      21    -1     0     0   501   502  0.000000000E+00  0.000000000E+00 -1.266298206E+03  1.266298206E+03  0.000000000E+00  0.00000E+00  9.000E+00
      25     1     1     2     0     0  4.634794714E+01 -1.873915083E+01 -3.060590775E+01  1.380616151E+02  1.250000000E+02  0.00000E+00  9.000E+00
      25     1     1     2     0     0 -4.413861656E+01  4.645296374E+01 -1.156034992E+03  1.164537676E+03  1.250000000E+02  0.00000E+00  9.000E+00
      21     1     1     2   512   502 -2.209330577E+00 -2.771381291E+01 -1.276431943E+01  3.059190118E+01  5.057621821E-07  0.00000E+00  9.000E+00
#rwgt            1           1   3.5210040154949482E-002           9       88797           0
</event>
<event>
      5   9999  3.19816E-02  5.17054E+00 -1.00000E+00  2.35999E-01
      21    -1     0     0   502   501  0.000000000E+00  0.000000000E+00  1.346703909E+03  1.346703909E+03  0.000000000E+00  0.00000E+00  9.000E+00
      21    -1     0     0   511   502  0.000000000E+00  0.000000000E+00 -5.372387698E+01  5.372387698E+01  0.000000000E+00  0.00000E+00  9.000E+00
      25     1     1     2     0     0 -1.145573712E+02 -2.020770359E+02  6.017383198E+02  6.570179033E+02  1.250000000E+02  0.00000E+00  9.000E+00
      25     1     1     2     0     0  1.093921174E+02  2.023108391E+02  6.901506416E+02  7.381254765E+02  1.250000000E+02  0.00000E+00  9.000E+00
      21     1     1     2   511   501  5.165253785E+00 -2.338032311E-01  1.091070265E+00  5.284405826E+00  1.255594160E-07  0.00000E+00  9.000E+00
#rwgt            1           1   2.8963720005721984E-002           9       88921           0
</event>
<event>
      5   9999  3.19816E-02  1.66443E+01 -1.00000E+00  1.73231E-01
      21    -1     0     0   502   501  0.000000000E+00  0.000000000E+00  6.719089230E+02  6.719089230E+02  0.000000000E+00  0.00000E+00  9.000E+00
      21    -1     0     0   501   512  0.000000000E+00  0.000000000E+00 -2.681140370E+02  2.681140370E+02  0.000000000E+00  0.00000E+00  9.000E+00
      25     1     1     2     0     0 -2.655494795E+02  1.682349805E+02  4.574601214E+02  5.689589593E+02  1.250000000E+02  0.00000E+00  9.000E+00
      25     1     1     2     0     0  2.817778944E+02 -1.645373515E+02 -5.713137660E+01  3.540625877E+02  1.250000000E+02  0.00000E+00  9.000E+00
      21     1     1     2   502   512 -1.622841490E+01 -3.697628994E+00  3.466141256E+00  1.700141305E+01  2.308477966E-07  0.00000E+00  9.000E+00
#rwgt            1           1   2.6441423613852617E-002           9       89163           0
</event>
<event>
      5   9999  3.19816E-02  1.88500E+02 -1.00000E+00  1.12592E-01
      21    -1     0     0   511   501  0.000000000E+00  0.000000000E+00  1.243238857E+02  1.243238857E+02  0.000000000E+00  0.00000E+00  9.000E+00
      21    -1     0     0   501   502  0.000000000E+00  0.000000000E+00 -1.209904554E+03  1.209904554E+03  0.000000000E+00  0.00000E+00  9.000E+00
      25     1     1     2     0     0 -6.734295632E+01  1.987776446E+02 -8.206689073E+02  8.562535145E+02  1.250000000E+02  0.00000E+00  9.000E+00
      25     1     1     2     0     0 -6.853959571E+01 -6.813302851E+01 -2.407013759E+02  2.879269666E+02  1.250000000E+02  0.00000E+00  9.000E+00
      21     1     1     2   511   502  1.358825520E+02 -1.306446161E+02 -2.421038464E+01  1.900479581E+02  2.132480600E-06  0.00000E+00  9.000E+00
#rwgt            1           1   1.3935381082184319E-002           9       89359           0
</event>
<event>
      5   9999  3.19816E-02  5.73025E+01 -1.00000E+00  1.35780E-01
      21    -1     0     0   502   501  0.000000000E+00  0.000000000E+00  3.090251313E+02  3.090251313E+02  0.000000000E+00  0.00000E+00  9.000E+00
      21    -1     0     0   512   502  0.000000000E+00  0.000000000E+00 -1.912831021E+02  1.912831021E+02  0.000000000E+00  0.00000E+00  9.000E+00
      25     1     1     2     0     0 -1.127095509E+02  6.563985762E+01  1.822310597E+02  2.566031817E+02  1.250000000E+02  0.00000E+00  9.000E+00
      25     1     1     2     0     0  1.250078498E+02 -9.672664532E+00 -4.072382123E+01  1.816699000E+02  1.250000000E+02  0.00000E+00  9.000E+00
      21     1     1     2   512   501 -1.229829895E+01 -5.596719308E+01 -2.376520926E+01  6.203515157E+01  4.768371582E-07  0.00000E+00  9.000E+00
#rwgt            1           1   2.4113608465193587E-002           9       89387           0
</event>
<event>
      5   9999  3.19816E-02  4.47099E+02 -1.00000E+00  1.00252E-01
      21    -1     0     0   502   501  0.000000000E+00  0.000000000E+00  1.120590147E+03  1.120590147E+03  0.000000000E+00  0.00000E+00  9.000E+00
      21    -1     0     0   501   511  0.000000000E+00  0.000000000E+00 -8.263271273E+02  8.263271273E+02  0.000000000E+00  0.00000E+00  9.000E+00
      25     1     1     2     0     0  5.987278059E+02 -2.387433568E+02  6.424424142E+02  9.186025427E+02  1.250000000E+02  0.00000E+00  9.000E+00
      25     1     1     2     0     0 -4.401536050E+02 -1.792902440E+02 -5.692770173E+01  4.947180518E+02  1.250000000E+02  0.00000E+00  9.000E+00
      21     1     1     2   502   511 -1.585742010E+02  4.180336008E+02 -2.912516924E+02  5.335966800E+02  5.394796609E-06  0.00000E+00  9.000E+00
#rwgt            1           1   2.9774641455027527E-002           9       89455           0
</event>
<event>
      5   9999  3.19816E-02  1.16398E+01 -1.00000E+00  1.88430E-01
      21    -1     0     0   502   501  0.000000000E+00  0.000000000E+00  1.535371206E+02  1.535371206E+02  0.000000000E+00  0.00000E+00  9.000E+00
      21    -1     0     0   501   512  0.000000000E+00  0.000000000E+00 -2.611453224E+02  2.611453224E+02  0.000000000E+00  0.00000E+00  9.000E+00
      25     1     1     2     0     0  2.927888430E+01 -6.006830420E+01 -1.857121902E+02  2.336224985E+02  1.250000000E+02  0.00000E+00  9.000E+00
      25     1     1     2     0     0 -3.600809599E+01  5.057078421E+01  8.865964675E+01  1.653466666E+02  1.250000000E+02  0.00000E+00  9.000E+00
      21     1     1     2   502   512  6.729211692E+00  9.497519982E+00 -1.055565839E+01  1.571327782E+01  2.665600750E-07  0.00000E+00  9.000E+00
#rwgt            1           1   2.6858868409406229E-002           9       89508           0
</event>
<event>
      5   9999  3.19816E-02  4.49878E+01 -1.00000E+00  1.41745E-01
      21    -1     0     0   502   501  0.000000000E+00  0.000000000E+00  5.018924389E+02  5.018924389E+02  0.000000000E+00  0.00000E+00  9.000E+00
      21    -1     0     0   501   511  0.000000000E+00  0.000000000E+00 -6.263552769E+02  6.263552769E+02  0.000000000E+00  0.00000E+00  9.000E+00
      25     1     1     2     0     0 -1.698563331E+02 -1.679298781E+01  3.495304997E+02  4.085703716E+02  1.250000000E+02  0.00000E+00  9.000E+00
      25     1     1     2     0     0  1.726959036E+02  6.169108509E+01  2.074171405E+01  2.229010628E+02  1.250000000E+02  0.00000E+00  9.000E+00
      21     1     1     2   502   511 -2.839570447E+00 -4.489809728E+01 -4.947350517E+02  4.967762814E+02  7.629394531E-06  0.00000E+00  9.000E+00
#rwgt            1           1   2.7994184757132255E-002           9       89637           0
</event>
<event>
      5   9999  3.19816E-02  5.30395E+01 -1.00000E+00  1.37629E-01
      21    -1     0     0   512   501  0.000000000E+00  0.000000000E+00  3.753728923E+02  3.753728923E+02  0.000000000E+00  0.00000E+00  9.000E+00
      21    -1     0     0   501   502  0.000000000E+00  0.000000000E+00 -1.567299041E+03  1.567299041E+03  0.000000000E+00  0.00000E+00  9.000E+00
      25     1     1     2     0     0  4.732200038E+02 -1.077462716E+02  4.196816456E+01  5.029242069E+02  1.250000000E+02  0.00000E+00  9.000E+00
      25     1     1     2     0     0 -4.737982133E+02  1.607826324E+02 -1.273233354E+03  1.373711751E+03  1.250000000E+02  0.00000E+00  9.000E+00
      21     1     1     2   512   502  5.782095058E-01 -5.303636082E+01  3.933904066E+01  6.603597516E+01  8.259061849E-07  0.00000E+00  9.000E+00
#rwgt            1           1   3.0117137384849228E-002           9       89709           0
</event>
<event>
      5   9999  3.19816E-02  4.33129E+01 -1.00000E+00  1.42729E-01
      21    -1     0     0   502   511  0.000000000E+00  0.000000000E+00  9.103339206E+02  9.103339206E+02  0.000000000E+00  0.00000E+00  9.000E+00
      21    -1     0     0   501   502  0.000000000E+00  0.000000000E+00 -7.200997569E+02  7.200997569E+02  0.000000000E+00  0.00000E+00  9.000E+00
      25     1     1     2     0     0 -2.538639718E+01 -1.678791158E+02  5.241345057E+02  5.649511897E+02  1.250000000E+02  0.00000E+00  9.000E+00
      25     1     1     2     0     0 -9.187047525E+00  1.939690604E+02 -6.792456903E+02  7.174316037E+02  1.250000000E+02  0.00000E+00  9.000E+00
      21     1     1     2   501   511  3.457344470E+01 -2.608994458E+01  3.453453483E+02  3.480508840E+02  0.000000000E+00  0.00000E+00  9.000E+00
#rwgt            1           1   3.0520222852874847E-002           9       89828           0
</event>
<event>
      5   9999  3.19816E-02  5.14271E+01 -1.00000E+00  1.38382E-01
      21    -1     0     0   512   501  0.000000000E+00  0.000000000E+00  7.914077838E+02  7.914077838E+02  0.000000000E+00  0.00000E+00  9.000E+00
      21    -1     0     0   501   502  0.000000000E+00  0.000000000E+00 -4.042787205E+02  4.042787205E+02  0.000000000E+00  0.00000E+00  9.000E+00
      25     1     1     2     0     0  3.204648898E+02 -3.471128452E+02  2.595598717E+02  5.533366063E+02  1.250000000E+02  0.00000E+00  9.000E+00
      25     1     1     2     0     0 -2.739810857E+02  3.251126916E+02 -6.059780705E+01  4.472817812E+02  1.250000000E+02  0.00000E+00  9.000E+00
      21     1     1     2   512   502 -4.648380415E+01  2.200015362E+01  1.881669987E+02  1.950681168E+02  0.000000000E+00  0.00000E+00  9.000E+00
#rwgt            1           1   3.0386198278117959E-002           9       90038           0
</event>
<event>
      5   9999  3.19816E-02  3.03829E+02 -1.00000E+00  1.05413E-01
       2    -1     0     0   502     0  0.000000000E+00  0.000000000E+00  1.864387355E+03  1.864387355E+03  0.000000000E+00  0.00000E+00  9.000E+00
      21    -1     0     0   501   502  0.000000000E+00  0.000000000E+00 -4.181399628E+02  4.181399628E+02  0.000000000E+00  0.00000E+00  9.000E+00
      25     1     1     2     0     0  2.298642477E+02 -5.501717577E+01  4.067877091E+02  4.867912307E+02  1.250000000E+02  0.00000E+00  9.000E+00
      25     1     1     2     0     0 -6.006939220E+01  3.069726807E+02 -2.823045873E+02  4.395013522E+02  1.250000000E+02  0.00000E+00  9.000E+00
       2     1     1     2   501     0 -1.697948555E+02 -2.519555049E+02  1.321764271E+03  1.356234735E+03  2.157918644E-05  0.00000E+00  9.000E+00
#rwgt            2          18   1.9591883506024340E-003           9       90333           0
</event>
<event>
      5   9999  3.19816E-02  2.01746E+02 -1.00000E+00  1.11511E-01
      21    -1     0     0   502   501  0.000000000E+00  0.000000000E+00  2.491255486E+02  2.491255486E+02  0.000000000E+00  0.00000E+00  9.000E+00
       2    -1     0     0   501     0  0.000000000E+00  0.000000000E+00 -1.644102746E+03  1.644102746E+03  0.000000000E+00  0.00000E+00  9.000E+00
      25     1     1     2     0     0  2.241328848E+02  4.071896445E+02 -8.961490267E+02  1.017225164E+03  1.250000000E+02  0.00000E+00  9.000E+00
      25     1     1     2     0     0 -3.088967424E+02 -2.241141680E+02 -7.768170645E+01  4.090278783E+02  1.250000000E+02  0.00000E+00  9.000E+00
       2     1     1     2   502     0  8.476385760E+01 -1.830754765E+02 -4.211464641E+02  4.669752519E+02  5.394796609E-06  0.00000E+00  9.000E+00
#rwgt            1           1   3.0806110765940468E-002           9       90352           0
</event>
<event>
      5   9999  3.19816E-02  2.49238E+02 -1.00000E+00  1.08276E-01
      21    -1     0     0   502   501  0.000000000E+00  0.000000000E+00  6.554307739E+02  6.554307739E+02  0.000000000E+00  0.00000E+00  9.000E+00
      21    -1     0     0   501   511  0.000000000E+00  0.000000000E+00 -1.164243813E+03  1.164243813E+03  0.000000000E+00  0.00000E+00  9.000E+00
      25     1     1     2     0     0  8.460661201E+01 -2.680587184E+02  5.103270037E+02  5.958795231E+02  1.250000000E+02  0.00000E+00  9.000E+00
      25     1     1     2     0     0  1.487411773E+02  3.556286602E+02 -7.768657807E+02  8.762083788E+02  1.250000000E+02  0.00000E+00  9.000E+00
      21     1     1     2   502   511 -2.333477893E+02 -8.756994182E+01 -2.422742621E+02  3.475866850E+02  2.697398305E-06  0.00000E+00  9.000E+00
#rwgt            1           1   3.3749042603057319E-002           9       90417           0
</event>
<event>
      5   9999  3.19816E-02  1.00514E+02 -1.00000E+00  1.23728E-01
      21    -1     0     0   502   501  0.000000000E+00  0.000000000E+00  1.993074624E+02  1.993074624E+02  0.000000000E+00  0.00000E+00  9.000E+00
      -2    -1     0     0     0   502  0.000000000E+00  0.000000000E+00 -1.888560500E+03  1.888560500E+03  0.000000000E+00  0.00000E+00  9.000E+00
      25     1     1     2     0     0 -1.275785951E+02 -2.334317295E+02 -1.720926051E+01  2.944279690E+02  1.250000000E+02  0.00000E+00  9.000E+00
      25     1     1     2     0     0  3.993896050E+01  1.842141610E+02 -1.576082007E+02  2.756724916E+02  1.250000000E+02  0.00000E+00  9.000E+00
      -2     1     1     2     0   501  8.763963460E+01  4.921756848E+01 -1.514435577E+03  1.517767502E+03  0.000000000E+00  0.00000E+00  9.000E+00
#rwgt            1           1   2.8910957586648734E-002           9       90494           0
</event>
<event>
      5   9999  3.19816E-02  2.61041E+01 -1.00000E+00  1.57358E-01
      21    -1     0     0   502   501  0.000000000E+00  0.000000000E+00  1.630443203E+02  1.630443203E+02  0.000000000E+00  0.00000E+00  9.000E+00
      21    -1     0     0   511   502  0.000000000E+00  0.000000000E+00 -3.093701372E+03  3.093701372E+03  0.000000000E+00  0.00000E+00  9.000E+00
      25     1     1     2     0     0  2.755410908E+01 -3.989489370E+02 -2.334581847E+03  2.371880453E+03  1.250000000E+02  0.00000E+00  9.000E+00
      25     1     1     2     0     0 -4.973271944E+01  3.851818124E+02 -1.449456567E+02  4.329810797E+02  1.250000000E+02  0.00000E+00  9.000E+00
      21     1     1     2   511   501  2.217861036E+01  1.376712456E+01 -4.511295488E+02  4.518841602E+02  7.629394531E-06  0.00000E+00  9.000E+00
#rwgt            1           1   2.2429463828152030E-002           9       90531           0
</event>
<event>
      5   9999  3.19816E-02  1.67359E+01 -1.00000E+00  1.73017E-01
      21    -1     0     0   512   501  0.000000000E+00  0.000000000E+00  3.384927125E+01  3.384927125E+01  0.000000000E+00  0.00000E+00  9.000E+00
      21    -1     0     0   501   502  0.000000000E+00  0.000000000E+00 -1.687845570E+03  1.687845570E+03  0.000000000E+00  0.00000E+00  9.000E+00
      25     1     1     2     0     0  1.573513068E+02  8.892674481E+01 -6.073412264E+02  6.458759672E+02  1.250000000E+02  0.00000E+00  9.000E+00
      25     1     1     2     0     0 -1.731216052E+02 -8.332418066E+01 -1.007356183E+03  1.033104781E+03  1.250000000E+02  0.00000E+00  9.000E+00
      21     1     1     2   512   502  1.577029839E+01 -5.602564148E+00 -3.929888909E+01  4.271409276E+01  4.768371582E-07  0.00000E+00  9.000E+00
#rwgt            1           1   2.7699224837237527E-002           9       90651           0
</event>
<event>
      5   9999  3.19816E-02  1.17322E+02 -1.00000E+00  1.20786E-01
      21    -1     0     0   511   501  0.000000000E+00  0.000000000E+00  2.152121040E+03  2.152121040E+03  0.000000000E+00  0.00000E+00  9.000E+00
      21    -1     0     0   501   502  0.000000000E+00  0.000000000E+00 -4.689107686E+02  4.689107686E+02  0.000000000E+00  0.00000E+00  9.000E+00
      25     1     1     2     0     0 -1.178625204E+02 -4.016343161E+02  1.741836393E+03  1.795778583E+03  1.250000000E+02  0.00000E+00  9.000E+00
      25     1     1     2     0     0  4.097008599E+01  4.902459873E+02 -2.763439666E+02  5.779365570E+02  1.250000000E+02  0.00000E+00  9.000E+00
      21     1     1     2   511   502  7.689243441E+01 -8.861167125E+01  2.177178451E+02  2.473166691E+02  3.814697266E-06  0.00000E+00  9.000E+00
#rwgt            1           1   2.4142820575265050E-002           9       90905           0
</event>
<event>
      5   9999  3.19816E-02  1.89697E+02 -1.00000E+00  1.12491E-01
      21    -1     0     0   502   501  0.000000000E+00  0.000000000E+00  2.391153899E+03  2.391153899E+03  0.000000000E+00  0.00000E+00  9.000E+00
       3    -1     0     0   501     0  0.000000000E+00  0.000000000E+00 -9.423182014E+01  9.423182014E+01  0.000000000E+00  0.00000E+00  9.000E+00
      25     1     1     2     0     0  2.839199634E+02 -1.534737065E+02  8.951658540E+02  9.597456071E+02  1.250000000E+02  0.00000E+00  9.000E+00
      25     1     1     2     0     0 -1.109956240E+02  2.314618682E+02  1.251468234E+03  1.283624698E+03  1.250000000E+02  0.00000E+00  9.000E+00
       3     1     1     2   502     0 -1.729243394E+02 -7.798816169E+01  1.502879917E+02  2.420154147E+02  6.325959759E-06  0.00000E+00  9.000E+00
#rwgt            1           1   8.5250604148835465E-002           9       91080           0
</event>
<event>
      5   9999  3.19816E-02  6.01306E+01 -1.00000E+00  1.34653E-01
      21    -1     0     0   502   501  0.000000000E+00  0.000000000E+00  9.495760803E+01  9.495760803E+01  0.000000000E+00  0.00000E+00  9.000E+00
       2    -1     0     0   501     0  0.000000000E+00  0.000000000E+00 -1.281817422E+03  1.281817422E+03  0.000000000E+00  0.00000E+00  9.000E+00
      25     1     1     2     0     0 -1.004794689E+02  1.362225091E+02 -8.992852112E+02  9.235754364E+02  1.250000000E+02  0.00000E+00  9.000E+00
      25     1     1     2     0     0  4.088740859E+01 -1.281926666E+02 -2.682479345E+01  1.856063294E+02  1.250000000E+02  0.00000E+00  9.000E+00
       2     1     1     2   502     0  5.959206031E+01 -8.029842508E+00 -2.607498096E+02  2.675932645E+02  3.814697266E-06  0.00000E+00  9.000E+00
#rwgt            1           1   3.3562650205832802E-002           9       91153           0
</event>
<event>
      5   9999  3.19816E-02  1.37616E+02 -1.00000E+00  1.17896E-01
      21    -1     0     0   502   501  0.000000000E+00  0.000000000E+00  1.339665984E+03  1.339665984E+03  0.000000000E+00  0.00000E+00  9.000E+00
      21    -1     0     0   501   511  0.000000000E+00  0.000000000E+00 -3.005017485E+02  3.005017485E+02  0.000000000E+00  0.00000E+00  9.000E+00
      25     1     1     2     0     0 -6.110374756E+01  4.345121865E+02  1.237316703E+02  4.727251150E+02  1.250000000E+02  0.00000E+00  9.000E+00
      25     1     1     2     0     0 -1.759364865E+01 -3.216191356E+02  9.619986112E+02  1.022161794E+03  1.250000000E+02  0.00000E+00  9.000E+00
      21     1     1     2   502   511  7.869739620E+01 -1.128930508E+02 -4.656604593E+01  1.452808237E+02  2.236564522E-06  0.00000E+00  9.000E+00
#rwgt            2          11   4.4401421649780393E-003           9       91271           0
</event>
<event>
      5   9999  3.19816E-02  1.03180E+02 -1.00000E+00  1.23219E-01
      21    -1     0     0   502   512  0.000000000E+00  0.000000000E+00  7.063844997E+02  7.063844997E+02  0.000000000E+00  0.00000E+00  9.000E+00
      21    -1     0     0   501   502  0.000000000E+00  0.000000000E+00 -3.619711544E+02  3.619711544E+02  0.000000000E+00  0.00000E+00  9.000E+00
      25     1     1     2     0     0  1.109426884E+02 -4.192843191E+02  2.207232137E+01  4.519068574E+02  1.250000000E+02  0.00000E+00  9.000E+00
      25     1     1     2     0     0 -1.300988645E+02  3.178980570E+02  1.122266875E+02  3.823672562E+02  1.250000000E+02  0.00000E+00  9.000E+00
      21     1     1     2   501   512  1.915617609E+01  1.013862621E+02  2.101143364E+02  2.340815405E+02  0.000000000E+00  0.00000E+00  9.000E+00
#rwgt            1           1   2.6749691658547951E-002           9       91291           0
</event>
<event>
      5   9999  3.19816E-02  4.23244E+02 -1.00000E+00  1.00953E-01
      21    -1     0     0   502   501  0.000000000E+00  0.000000000E+00  3.414110901E+02  3.414110901E+02  0.000000000E+00  0.00000E+00  9.000E+00
       2    -1     0     0   501     0  0.000000000E+00  0.000000000E+00 -1.369195857E+03  1.369195857E+03  0.000000000E+00  0.00000E+00  9.000E+00
      25     1     1     2     0     0 -1.661132013E+02  3.537928391E+02 -1.585439928E+02  4.399138169E+02  1.250000000E+02  0.00000E+00  9.000E+00
      25     1     1     2     0     0  2.282564480E+02  6.486447807E+01 -7.975259844E+02  8.414161292E+02  1.250000000E+02  0.00000E+00  9.000E+00
       2     1     1     2   502     0 -6.214324669E+01 -4.186573172E+02 -7.171478937E+01  4.292770007E+02  4.955437110E-06  0.00000E+00  9.000E+00
#rwgt            2          13   5.2280162146648541E-004           9       91872           0
</event>
<event>
      5   9999  3.19816E-02  4.87978E+01 -1.00000E+00  1.39681E-01
      21    -1     0     0   502   501  0.000000000E+00  0.000000000E+00  5.116140813E+02  5.116140813E+02  0.000000000E+00  0.00000E+00  9.000E+00
      21    -1     0     0   511   502  0.000000000E+00  0.000000000E+00 -3.300392840E+02  3.300392840E+02  0.000000000E+00  0.00000E+00  9.000E+00
      25     1     1     2     0     0 -1.643995641E+00 -7.402960386E+01 -2.714495898E+02  3.078846615E+02  1.250000000E+02  0.00000E+00  9.000E+00
      25     1     1     2     0     0  4.377544978E+01  9.865006210E+01  4.558966230E+02  4.848864358E+02  1.250000000E+02  0.00000E+00  9.000E+00
      21     1     1     2   511   501 -4.213145414E+01 -2.462045824E+01 -2.872235794E+00  4.888226805E+01  4.823927300E-07  0.00000E+00  9.000E+00
#rwgt            1           1   2.6288675579463742E-002           9       91891           0
</event>
<event>
      5   9999  3.19816E-02  2.41336E+02 -1.00000E+00  1.08756E-01
       1    -1     0     0   502     0  0.000000000E+00  0.000000000E+00  1.381148936E+03  1.381148936E+03  0.000000000E+00  0.00000E+00  9.000E+00
      21    -1     0     0   501   502  0.000000000E+00  0.000000000E+00 -6.702038710E+02  6.702038710E+02  0.000000000E+00  0.00000E+00  9.000E+00
      25     1     1     2     0     0 -3.723345971E+02 -5.084727935E+02 -3.008166176E+01  6.432010108E+02  1.250000000E+02  0.00000E+00  9.000E+00
      25     1     1     2     0     0  4.069739606E+02  7.473101744E+02  3.101389942E+02  9.142819571E+02  1.250000000E+02  0.00000E+00  9.000E+00
       1     1     1     2   501     0 -3.463936347E+01 -2.388373808E+02  4.308877329E+02  4.938698394E+02  5.394796609E-06  0.00000E+00  9.000E+00
#rwgt            1           1   3.0481357818356539E-002           9       92004           0
</event>
<event>
      5   9999  3.19816E-02  3.03958E+02 -1.00000E+00  1.05407E-01
      21    -1     0     0   511   501  0.000000000E+00  0.000000000E+00  9.600602741E+02  9.600602741E+02  0.000000000E+00  0.00000E+00  9.000E+00
      21    -1     0     0   501   502  0.000000000E+00  0.000000000E+00 -2.264092965E+02  2.264092965E+02  0.000000000E+00  0.00000E+00  9.000E+00
      25     1     1     2     0     0 -4.916093034E+01  2.417665063E+02  7.219370571E+01  2.858404656E+02  1.250000000E+02  0.00000E+00  9.000E+00
      25     1     1     2     0     0  3.641053611E+01  6.192441250E+01 -2.825068030E+01  1.469131068E+02  1.250000000E+02  0.00000E+00  9.000E+00
      21     1     1     2   511   502  1.275039423E+01 -3.036909188E+02  6.897079522E+02  7.537159982E+02  7.629394531E-06  0.00000E+00  9.000E+00
#rwgt            1           1   6.9680974731479439E-002           9       92074           0
</event>
<event>
      5   9999  3.19816E-02  7.84309E+01 -1.00000E+00  1.28767E-01
      21    -1     0     0   512   501  0.000000000E+00  0.000000000E+00  1.148941360E+03  1.148941360E+03  0.000000000E+00  0.00000E+00  9.000E+00
      21    -1     0     0   501   502  0.000000000E+00  0.000000000E+00 -1.198482397E+03  1.198482397E+03  0.000000000E+00  0.00000E+00  9.000E+00
      25     1     1     2     0     0 -9.672056093E+02 -3.101120844E+01  3.110853171E+02  1.024132540E+03  1.250000000E+02  0.00000E+00  9.000E+00
      25     1     1     2     0     0  9.004255478E+02  7.214300529E+01 -5.864645440E+02  1.084221583E+03  1.250000000E+02  0.00000E+00  9.000E+00
      21     1     1     2   512   502  6.678006154E+01 -4.113179685E+01  2.258381899E+02  2.390696329E+02  0.000000000E+00  0.00000E+00  9.000E+00
#rwgt            1           1   3.8809212529689205E-002           9       92112           0
</event>
<event>
      5   9999  3.19816E-02  2.53093E+01 -1.00000E+00  1.58352E-01
      21    -1     0     0   502   511  0.000000000E+00  0.000000000E+00  2.517675038E+02  2.517675038E+02  0.000000000E+00  0.00000E+00  9.000E+00
      21    -1     0     0   501   502  0.000000000E+00  0.000000000E+00 -3.393755606E+02  3.393755606E+02  0.000000000E+00  0.00000E+00  9.000E+00
      25     1     1     2     0     0  1.234634456E+02 -1.974101688E+02 -1.101529864E+02  2.863087103E+02  1.250000000E+02  0.00000E+00  9.000E+00
      25     1     1     2     0     0 -1.390121600E+02  1.774402635E+02 -1.653069550E+01  2.582783220E+02  1.250000000E+02  0.00000E+00  9.000E+00
      21     1     1     2   501   511  1.554871440E+01  1.996990536E+01  3.907562517E+01  4.655603206E+01  0.000000000E+00  0.00000E+00  9.000E+00
#rwgt            1           1   2.8258492706024301E-002           9       92226           0
</event>
<event>
      5   9999  3.19816E-02  1.41883E+01 -1.00000E+00  1.79690E-01
      21    -1     0     0   502   501  0.000000000E+00  0.000000000E+00  1.348770764E+02  1.348770764E+02  0.000000000E+00  0.00000E+00  9.000E+00
      21    -1     0     0   512   502  0.000000000E+00  0.000000000E+00 -2.563438898E+03  2.563438898E+03  0.000000000E+00  0.00000E+00  9.000E+00
      25     1     1     2     0     0 -1.549333688E+01  4.279112357E+02 -9.938493629E+02  1.089362027E+03  1.250000000E+02  0.00000E+00  9.000E+00
      25     1     1     2     0     0  1.529280932E+00 -4.304237550E+02 -4.897607575E+02  6.638957352E+02  1.250000000E+02  0.00000E+00  9.000E+00
      21     1     1     2   512   501  1.396405594E+01  2.512519309E+00 -9.449517009E+02  9.450582123E+02  1.525878906E-05  0.00000E+00  9.000E+00
#rwgt            1           1   2.9645777335547036E-002           9       92338           0
</event>
<event>
      5   9999  3.19816E-02  1.66884E+02 -1.00000E+00  1.14587E-01
      21    -1     0     0   502   501  0.000000000E+00  0.000000000E+00  3.763184516E+02  3.763184516E+02  0.000000000E+00  0.00000E+00  9.000E+00
       2    -1     0     0   501     0  0.000000000E+00  0.000000000E+00 -3.339586067E+03  3.339586067E+03  0.000000000E+00  0.00000E+00  9.000E+00
      25     1     1     2     0     0 -1.599049031E+02  2.907692483E+02  1.240394144E+02  3.756688837E+02  1.250000000E+02  0.00000E+00  9.000E+00
      25     1     1     2     0     0  7.225183574E+01 -4.327801701E+02 -2.957663245E+02  5.437110649E+02  1.250000000E+02  0.00000E+00  9.000E+00
       2     1     1     2   502     0  8.765306740E+01  1.420109217E+02 -2.791540705E+03  2.796524570E+03  4.315837288E-05  0.00000E+00  9.000E+00
#rwgt            1           1   3.1339384900478710E-002           9       92542           0
</event>
<event>
      5   9999  3.19816E-02  1.08627E+02 -1.00000E+00  1.22233E-01
      21    -1     0     0   502   501  0.000000000E+00  0.000000000E+00  6.267326402E+02  6.267326402E+02  0.000000000E+00  0.00000E+00  9.000E+00
      21    -1     0     0   501   511  0.000000000E+00  0.000000000E+00 -1.165405808E+03  1.165405808E+03  0.000000000E+00  0.00000E+00  9.000E+00
      25     1     1     2     0     0 -6.476777726E+02  9.893713899E+01 -6.835728049E+02  9.550768734E+02  1.250000000E+02  0.00000E+00  9.000E+00
      25     1     1     2     0     0  5.555784686E+02 -1.565353047E+02  2.882695804E+02  6.571872544E+02  1.250000000E+02  0.00000E+00  9.000E+00
      21     1     1     2   502   511  9.209930404E+01  5.759816575E+01 -1.433699437E+02  1.798743208E+02  2.697398305E-06  0.00000E+00  9.000E+00
#rwgt            1           1   3.3378663679188111E-002           9       92597           0
</event>
<event>
      5   9999  3.19816E-02  1.76684E+02 -1.00000E+00  1.13643E-01
      21    -1     0     0   512   501  0.000000000E+00  0.000000000E+00  4.836659918E+02  4.836659918E+02  0.000000000E+00  0.00000E+00  9.000E+00
      21    -1     0     0   501   502  0.000000000E+00  0.000000000E+00 -6.435764942E+02  6.435764942E+02  0.000000000E+00  0.00000E+00  9.000E+00
      25     1     1     2     0     0  1.626373451E+02  2.984056683E+00 -5.096744247E+02  5.494113484E+02  1.250000000E+02  0.00000E+00  9.000E+00
      25     1     1     2     0     0 -8.305452375E+01  1.547622881E+02  3.717072049E+01  2.187603305E+02  1.250000000E+02  0.00000E+00  9.000E+00
      21     1     1     2   512   502 -7.958282135E+01 -1.577463448E+02  3.125932017E+02  3.590708071E+02  5.394796609E-06  0.00000E+00  9.000E+00
#rwgt            1           1   2.8057838565353474E-002           9       92720           0
</event>
<event>
      5   9999  3.19816E-02  3.15285E+02 -1.00000E+00  1.04895E-01
      21    -1     0     0   502   501  0.000000000E+00  0.000000000E+00  3.039191397E+02  3.039191397E+02  0.000000000E+00  0.00000E+00  9.000E+00
      21    -1     0     0   501   511  0.000000000E+00  0.000000000E+00 -1.085023931E+03  1.085023931E+03  0.000000000E+00  0.00000E+00  9.000E+00
      25     1     1     2     0     0 -1.719387127E+02  6.036801756E+01 -4.289019688E+02  4.824822456E+02  1.250000000E+02  0.00000E+00  9.000E+00
      25     1     1     2     0     0  2.888562310E+02 -3.531731927E+02 -6.048188458E+01  4.769195788E+02  1.250000000E+02  0.00000E+00  9.000E+00
      21     1     1     2   502   511 -1.169175183E+02  2.928051751E+02 -2.917209381E+02  4.295412465E+02  0.000000000E+00  0.00000E+00  9.000E+00
#rwgt            2          11   2.9675357618170859E-003           9       93148           0
</event>
<event>
      5   9999  3.19816E-02  4.06522E+01 -1.00000E+00  1.44406E-01
      21    -1     0     0   502   501  0.000000000E+00  0.000000000E+00  9.803191861E+02  9.803191861E+02  0.000000000E+00  0.00000E+00  9.000E+00
      21    -1     0     0   501   512  0.000000000E+00  0.000000000E+00 -6.380186851E+02  6.380186851E+02  0.000000000E+00  0.00000E+00  9.000E+00
      25     1     1     2     0     0 -6.358229072E+02 -3.417170138E+02  1.518945679E+01  7.327325614E+02  1.250000000E+02  0.00000E+00  9.000E+00
      25     1     1     2     0     0  6.647159706E+02  3.703141010E+02  3.403133823E+02  8.428630097E+02  1.250000000E+02  0.00000E+00  9.000E+00
      21     1     1     2   502   512 -2.889306332E+01 -2.859708714E+01 -1.320233806E+01  4.274230026E+01  2.920019320E-07  0.00000E+00  9.000E+00
#rwgt            1           1   2.7281154821930349E-002           9       93168           0
</event>
<event>
      5   9999  3.19816E-02  6.42814E+01 -1.00000E+00  1.33123E-01
       2    -1     0     0   502     0  0.000000000E+00  0.000000000E+00  8.104804584E+02  8.104804584E+02  0.000000000E+00  0.00000E+00  9.000E+00
      21    -1     0     0   501   502  0.000000000E+00  0.000000000E+00 -1.645565630E+02  1.645565630E+02  0.000000000E+00  0.00000E+00  9.000E+00
      25     1     1     2     0     0 -7.807053570E+01  1.016204020E+02 -3.737134033E+01  1.828751807E+02  1.250000000E+02  0.00000E+00  9.000E+00
      25     1     1     2     0     0  1.383744438E+01 -1.041114561E+02  7.360174287E+01  1.790890469E+02  1.250000000E+02  0.00000E+00  9.000E+00
       2     1     1     2   501     0  6.423309132E+01  2.491054099E+00  6.096934928E+02  6.130727939E+02  7.629394531E-06  0.00000E+00  9.000E+00
#rwgt            1           1   3.0665344485592695E-002           9       93348           0
</event>
<event>
      5   9999  3.19816E-02  6.37008E+02 -1.00000E+00  9.59532E-02
      21    -1     0     0   502   511  0.000000000E+00  0.000000000E+00  1.085638441E+03  1.085638441E+03  0.000000000E+00  0.00000E+00  9.000E+00
      21    -1     0     0   501   502  0.000000000E+00  0.000000000E+00 -2.021891153E+03  2.021891153E+03  0.000000000E+00  0.00000E+00  9.000E+00
      25     1     1     2     0     0  2.672662083E+02  4.730638559E+02 -8.746767539E+02  1.037258435E+03  1.250000000E+02  0.00000E+00  9.000E+00
      25     1     1     2     0     0  1.298396771E+02  2.501831084E+01 -9.554610248E+02  9.726330385E+02  1.250000000E+02  0.00000E+00  9.000E+00
      21     1     1     2   501   511 -3.971058855E+02 -4.980821667E+02  8.938850673E+02  1.097638120E+03  1.078959322E-05  0.00000E+00  9.000E+00
#rwgt            2          11   2.6543751735636452E-002           9       93458           0
</event>
<event>
      5   9999  3.19816E-02  4.81507E+01 -1.00000E+00  1.40016E-01
      21    -1     0     0   502   501  0.000000000E+00  0.000000000E+00  5.320116339E+02  5.320116339E+02  0.000000000E+00  0.00000E+00  9.000E+00
      21    -1     0     0   501   512  0.000000000E+00  0.000000000E+00 -6.028078988E+02  6.028078988E+02  0.000000000E+00  0.00000E+00  9.000E+00
      25     1     1     2     0     0  8.404444311E+01 -5.415253357E+01 -4.441611636E+02  4.721229761E+02  1.250000000E+02  0.00000E+00  9.000E+00
      25     1     1     2     0     0 -6.419666548E+01  1.028272452E+01  5.040768356E+02  5.233979389E+02  1.250000000E+02  0.00000E+00  9.000E+00
      21     1     1     2   502   512 -1.984777763E+01  4.386980904E+01 -1.307119369E+02  1.392986176E+02  1.907348633E-06  0.00000E+00  9.000E+00
#rwgt            1           1   2.4414115707896596E-002           9       93493           0
</event>
<event>
      5   9999  3.19816E-02  2.55951E+01 -1.00000E+00  1.57989E-01
      21    -1     0     0   511   501  0.000000000E+00  0.000000000E+00  2.236698436E+03  2.236698436E+03  0.000000000E+00  0.00000E+00  9.000E+00
      21    -1     0     0   501   502  0.000000000E+00  0.000000000E+00 -5.036499195E+01  5.036499195E+01  0.000000000E+00  0.00000E+00  9.000E+00
      25     1     1     2     0     0 -1.217662705E+02  8.770636494E+01  1.652198874E+02  2.558164230E+02  1.250000000E+02  0.00000E+00  9.000E+00
      25     1     1     2     0     0  1.035617552E+02 -6.971461976E+01  1.720811223E+03  1.729855898E+03  1.250000000E+02  0.00000E+00  9.000E+00
      21     1     1     2   511   502  1.820451526E+01 -1.799174518E+01  3.003023339E+02  3.013911064E+02  3.814697266E-06  0.00000E+00  9.000E+00
#rwgt            1           1   2.8437069989971309E-002           9       93581           0
</event>
<event>
      5   9999  3.19816E-02  2.60041E+01 -1.00000E+00  1.57481E-01
      21    -1     0     0   502   501  0.000000000E+00  0.000000000E+00  8.047046579E+02  8.047046579E+02  0.000000000E+00  0.00000E+00  9.000E+00
      21    -1     0     0   501   512  0.000000000E+00  0.000000000E+00 -6.871375795E+01  6.871375795E+01  0.000000000E+00  0.00000E+00  9.000E+00
      25     1     1     2     0     0  9.343415303E+00  1.581992561E+02  4.685076620E+02  5.101359950E+02  1.250000000E+02  0.00000E+00  9.000E+00
      25     1     1     2     0     0  3.233777852E+00 -1.354390504E+02  2.793590359E+02  3.346948829E+02  1.250000000E+02  0.00000E+00  9.000E+00
      21     1     1     2   502   512 -1.257719315E+01 -2.276020568E+01 -1.187579796E+01  2.858753798E+01  8.760057960E-07  0.00000E+00  9.000E+00
#rwgt            1           1   2.7782673400975129E-002           9       93729           0
</event>
<event>
      5   9999  3.19816E-02  8.04582E+01 -1.00000E+00  1.28230E-01
      21    -1     0     0   502   501  0.000000000E+00  0.000000000E+00  1.269807440E+02  1.269807440E+02  0.000000000E+00  0.00000E+00  9.000E+00
       2    -1     0     0   501     0  0.000000000E+00  0.000000000E+00 -1.684573622E+03  1.684573622E+03  0.000000000E+00  0.00000E+00  9.000E+00
      25     1     1     2     0     0  5.073471597E+01 -2.319011335E+01 -2.798657379E+02  3.115471458E+02  1.250000000E+02  0.00000E+00  9.000E+00
      25     1     1     2     0     0 -1.309125784E+02  2.990023072E+01  3.334848073E+01  1.864651392E+02  1.250000000E+02  0.00000E+00  9.000E+00
       2     1     1     2   502     0  8.017786238E+01 -6.710117372E+00 -1.311075621E+03  1.313542081E+03  2.642899792E-05  0.00000E+00  9.000E+00
#rwgt            1           1   3.3280788136055117E-002           9       93867           0
</event>
<event>
      5   9999  3.19816E-02  6.57899E+01 -1.00000E+00  1.32600E-01
      21    -1     0     0   502   501  0.000000000E+00  0.000000000E+00  3.208964291E+02  3.208964291E+02  0.000000000E+00  0.00000E+00  9.000E+00
      21    -1     0     0   511   502  0.000000000E+00  0.000000000E+00 -4.363974344E+02  4.363974344E+02  0.000000000E+00  0.00000E+00  9.000E+00
      25     1     1     2     0     0  2.206505355E+02 -1.644336730E+02 -1.232143276E+02  3.263921908E+02  1.250000000E+02  0.00000E+00  9.000E+00
      25     1     1     2     0     0 -2.725330817E+02  2.048874514E+02  2.110350993E+01  3.637629812E+02  1.250000000E+02  0.00000E+00  9.000E+00
      21     1     1     2   511   501  5.188254618E+01 -4.045377833E+01 -1.339018767E+01  6.713869157E+01  7.152557373E-07  0.00000E+00  9.000E+00
#rwgt            1           1   2.8249439135400557E-002           9       93920           0
</event>
<event>
      5   9999  3.19816E-02  5.49985E+01 -1.00000E+00  1.36755E-01
      21    -1     0     0   502   501  0.000000000E+00  0.000000000E+00  8.399069056E+01  8.399069056E+01  0.000000000E+00  0.00000E+00  9.000E+00
       2    -1     0     0   501     0  0.000000000E+00  0.000000000E+00 -3.651157666E+03  3.651157666E+03  0.000000000E+00  0.00000E+00  9.000E+00
      25     1     1     2     0     0  2.291227813E+02  4.288800733E+02 -1.034597279E+03  1.149979085E+03  1.250000000E+02  0.00000E+00  9.000E+00
      25     1     1     2     0     0 -2.347993284E+02 -3.741752963E+02 -2.134057529E+03  2.182879844E+03  1.250000000E+02  0.00000E+00  9.000E+00
       2     1     1     2   502     0  5.676547064E+00 -5.470477704E+01 -3.985121670E+02  4.022894270E+02  5.394796609E-06  0.00000E+00  9.000E+00
#rwgt            1           1   4.1440190971383482E-002           9       94077           0
</event>
<event>
      5   9999  3.19816E-02  9.83044E+01 -1.00000E+00  1.24163E-01
       2    -1     0     0   502     0  0.000000000E+00  0.000000000E+00  1.219525323E+03  1.219525323E+03  0.000000000E+00  0.00000E+00  9.000E+00
      21    -1     0     0   501   502  0.000000000E+00  0.000000000E+00 -2.090323430E+02  2.090323430E+02  0.000000000E+00  0.00000E+00  9.000E+00
      25     1     1     2     0     0 -1.586997178E+02  1.101937050E+02  1.371050002E+02  2.678638351E+02  1.250000000E+02  0.00000E+00  9.000E+00
      25     1     1     2     0     0  7.422442724E+01 -5.991757925E+01 -9.738601717E+01  1.849551790E+02  1.250000000E+02  0.00000E+00  9.000E+00
       2     1     1     2   501     0  8.447529057E+01 -5.027612573E+01  9.707739973E+02  9.757386522E+02  1.078959322E-05  0.00000E+00  9.000E+00
#rwgt            1           1   2.5013693412078840E-002           9       94183           0
</event>
<event>
      5   9999  3.19816E-02  7.22092E+01 -1.00000E+00  1.30541E-01
      21    -1     0     0   502   501  0.000000000E+00  0.000000000E+00  9.031971230E+02  9.031971230E+02  0.000000000E+00  0.00000E+00  9.000E+00
      21    -1     0     0   501   511  0.000000000E+00  0.000000000E+00 -4.728610332E+02  4.728610332E+02  0.000000000E+00  0.00000E+00  9.000E+00
      25     1     1     2     0     0  2.189224628E+02  4.346983695E+02  4.152115963E+02  6.518553420E+02  1.250000000E+02  0.00000E+00  9.000E+00
      25     1     1     2     0     0 -1.490682019E+02 -4.529892044E+02  1.951649251E+02  5.302215538E+02  1.250000000E+02  0.00000E+00  9.000E+00
      21     1     1     2   502   511 -6.985426095E+01  1.829083490E+01 -1.800404315E+02  1.939812604E+02  2.697398305E-06  0.00000E+00  9.000E+00
#rwgt            1           1   2.6847727935858341E-002           9       94222           0
</event>
<event>
      5   9999  3.19816E-02  4.03522E+01 -1.00000E+00  1.44604E-01
      21    -1     0     0   512   501  0.000000000E+00  0.000000000E+00  1.246627603E+03  1.246627603E+03  0.000000000E+00  0.00000E+00  9.000E+00
      21    -1     0     0   501   502  0.000000000E+00  0.000000000E+00 -1.514681462E+03  1.514681462E+03  0.000000000E+00  0.00000E+00  9.000E+00
      25     1     1     2     0     0  4.571207046E+02  1.228184911E+03  3.715430894E+01  1.316967333E+03  1.250000000E+02  0.00000E+00  9.000E+00
      25     1     1     2     0     0 -4.403226939E+02 -1.264874464E+03 -3.439280566E+02  1.388417442E+03  1.250000000E+02  0.00000E+00  9.000E+00
      21     1     1     2   512   502 -1.679801068E+01  3.668955304E+01  3.871988920E+01  5.592429065E+01  6.743495762E-07  0.00000E+00  9.000E+00
#rwgt            1           1   3.7264905450791891E-002           9       94347           0
</event>
<event>
      5   9999  3.19816E-02  9.35162E+01 -1.00000E+00  1.25152E-01
      21    -1     0     0   502   511  0.000000000E+00  0.000000000E+00  2.148918201E+03  2.148918201E+03  0.000000000E+00  0.00000E+00  9.000E+00
      21    -1     0     0   501   502  0.000000000E+00  0.000000000E+00 -1.228277539E+03  1.228277539E+03  0.000000000E+00  0.00000E+00  9.000E+00
      25     1     1     2     0     0 -3.067825941E+02 -1.386262152E+02  1.098225488E+02  3.755246727E+02  1.250000000E+02  0.00000E+00  9.000E+00
      25     1     1     2     0     0  3.962736944E+02  1.657671403E+02 -1.048526818E+03  1.139975909E+03  1.250000000E+02  0.00000E+00  9.000E+00
      21     1     1     2   501   511 -8.949110036E+01 -2.714092519E+01  1.859344931E+03  1.861695158E+03  0.000000000E+00  0.00000E+00  9.000E+00
#rwgt            1           1   2.6103237900183061E-002           9       94524           0
</event>
<event>
      5   9999  3.19816E-02  3.30952E+01 -1.00000E+00  1.50136E-01
      21    -1     0     0   502   501  0.000000000E+00  0.000000000E+00  1.175326622E+02  1.175326622E+02  0.000000000E+00  0.00000E+00  9.000E+00
      21    -1     0     0   501   512  0.000000000E+00  0.000000000E+00 -6.579942022E+02  6.579942022E+02  0.000000000E+00  0.00000E+00  9.000E+00
      25     1     1     2     0     0 -7.821524982E+01  4.000437513E+00  4.117052881E+01  1.531458169E+02  1.250000000E+02  0.00000E+00  9.000E+00
      25     1     1     2     0     0  6.821733552E+01 -3.554932404E+01 -2.561486331E+02  2.952193786E+02  1.250000000E+02  0.00000E+00  9.000E+00
      21     1     1     2   502   512  9.997914301E+00  3.154888653E+01 -3.254834358E+02  3.271616688E+02  3.814697266E-06  0.00000E+00  9.000E+00
#rwgt            1           1   2.6234361575256146E-002           9       94639           0
</event>
<event>
      5   9999  3.19816E-02  9.37216E+02 -1.00000E+00  9.16723E-02
       2    -1     0     0   502     0  0.000000000E+00  0.000000000E+00  2.351111555E+03  2.351111555E+03  0.000000000E+00  0.00000E+00  9.000E+00
      21    -1     0     0   501   502  0.000000000E+00  0.000000000E+00 -9.839744113E+02  9.839744113E+02  0.000000000E+00  0.00000E+00  9.000E+00
      25     1     1     2     0     0 -2.181544037E+02 -2.614863183E+02  6.245375386E+02  7.222455093E+02  1.250000000E+02  0.00000E+00  9.000E+00
      25     1     1     2     0     0  1.067796165E+03 -1.340928372E+02 -3.821071596E+02  1.148825670E+03  1.250000000E+02  0.00000E+00  9.000E+00
       2     1     1     2   501     0 -8.496417610E+02  3.955791555E+02  1.124706765E+03  1.464014787E+03  2.157918644E-05  0.00000E+00  9.000E+00
#rwgt            2          18   9.5192066778119328E-004           9       94733           0
</event>
<event>
      5   9999  3.19816E-02  4.82949E+01 -1.00000E+00  1.39941E-01
      21    -1     0     0   502   511  0.000000000E+00  0.000000000E+00  5.520676021E+02  5.520676021E+02  0.000000000E+00  0.00000E+00  9.000E+00
      21    -1     0     0   501   502  0.000000000E+00  0.000000000E+00 -1.468148872E+02  1.468148872E+02  0.000000000E+00  0.00000E+00  9.000E+00
      25     1     1     2     0     0  9.726837404E+01 -1.594176995E+02  4.255120150E+01  2.287154220E+02  1.250000000E+02  0.00000E+00  9.000E+00
      25     1     1     2     0     0 -1.455539808E+02  1.584705782E+02  2.817890392E+02  3.759374258E+02  1.250000000E+02  0.00000E+00  9.000E+00
      21     1     1     2   501   511  4.828560679E+01  9.471212712E-01  8.091247418E+01  9.422964151E+01  9.536743164E-07  0.00000E+00  9.000E+00
#rwgt            1           1   3.4658631081586240E-002           9       94752           0
</event>
<event>
      5   9999  3.19816E-02  1.14921E+02 -1.00000E+00  1.21171E-01
      21    -1     0     0   502   512  0.000000000E+00  0.000000000E+00  2.953697536E+02  2.953697536E+02  0.000000000E+00  0.00000E+00  9.000E+00
      21    -1     0     0   501   502  0.000000000E+00  0.000000000E+00 -8.733748444E+02  8.733748444E+02  0.000000000E+00  0.00000E+00  9.000E+00
      25     1     1     2     0     0 -9.827137522E+01 -2.927516793E+02  5.647784668E+01  3.378987364E+02  1.250000000E+02  0.00000E+00  9.000E+00
      25     1     1     2     0     0  2.099633178E+02  2.656989334E+02 -6.166673178E+02  7.145516768E+02  1.250000000E+02  0.00000E+00  9.000E+00
      21     1     1     2   501   512 -1.116919426E+02  2.705274586E+01 -1.781561967E+01  1.162941847E+02  4.129530925E-07  0.00000E+00  9.000E+00
#rwgt            1           1   2.7626889118031087E-002           9       94841           0
</event>
<event>
      5   9999  3.19816E-02  4.52125E+00 -1.00000E+00  2.51534E-01
      21    -1     0     0   511   501  0.000000000E+00  0.000000000E+00  9.528010693E+02  9.528010693E+02  0.000000000E+00  0.00000E+00  9.000E+00
      21    -1     0     0   501   502  0.000000000E+00  0.000000000E+00 -1.248778648E+02  1.248778648E+02  0.000000000E+00  0.00000E+00  9.000E+00
      25     1     1     2     0     0  3.017593528E+02 -1.042824634E+02  3.989102856E+02  5.260113641E+02  1.250000000E+02  0.00000E+00  9.000E+00
      25     1     1     2     0     0 -2.977872220E+02  1.064420615E+02  4.127335973E+02  5.347720677E+02  1.250000000E+02  0.00000E+00  9.000E+00
      21     1     1     2   511   502 -3.972130810E+00 -2.159598066E+00  1.627932163E+01  1.689550235E+01  2.384185791E-07  0.00000E+00  9.000E+00
#rwgt            2          11   9.6796284786885114E-004           9       95102           0
</event>
<event>
      5   9999  3.19816E-02  8.92867E+01 -1.00000E+00  1.26083E-01
       2    -1     0     0   502     0  0.000000000E+00  0.000000000E+00  9.215185756E+02  9.215185756E+02  0.000000000E+00  0.00000E+00  9.000E+00
      21    -1     0     0   501   502  0.000000000E+00  0.000000000E+00 -1.005024430E+02  1.005024430E+02  0.000000000E+00  0.00000E+00  9.000E+00
      25     1     1     2     0     0 -5.960776154E+01  6.371175923E+00  1.166907980E+02  1.812054620E+02  1.250000000E+02  0.00000E+00  9.000E+00
      25     1     1     2     0     0  8.766252573E+01 -9.113581934E+01  5.606746843E+01  1.864377027E+02  1.250000000E+02  0.00000E+00  9.000E+00
       2     1     1     2   501     0 -2.805476419E+01  8.476464342E+01  6.482578662E+02  6.543778539E+02  7.629394531E-06  0.00000E+00  9.000E+00
#rwgt            1           1   6.9026295515708311E-002           9       95167           0
</event>
<event>
      5   9999  3.19816E-02  2.71728E+01 -1.00000E+00  1.56087E-01
      21    -1     0     0   511   501  0.000000000E+00  0.000000000E+00  7.760713577E+01  7.760713577E+01  0.000000000E+00  0.00000E+00  9.000E+00
      21    -1     0     0   501   502  0.000000000E+00  0.000000000E+00 -3.908575617E+02  3.908575617E+02  0.000000000E+00  0.00000E+00  9.000E+00
      25     1     1     2     0     0 -7.495948892E+01  5.187777281E+01 -2.021159591E+02  2.545311164E+02  1.250000000E+02  0.00000E+00  9.000E+00
      25     1     1     2     0     0  6.687062993E+01 -2.593685833E+01 -1.175926692E+02  1.860038645E+02  1.250000000E+02  0.00000E+00  9.000E+00
      21     1     1     2   511   502  8.088858994E+00 -2.594091448E+01  6.458202450E+00  2.792971649E+01  7.300048300E-07  0.00000E+00  9.000E+00
#rwgt            1           1   5.7463228934457634E-002           9       95230           0
</event>
<event>
      5   9999  3.19816E-02  5.94613E+01 -1.00000E+00  1.34913E-01
      -2    -1     0     0     0   501  0.000000000E+00  0.000000000E+00  4.474579650E+02  4.474579650E+02  0.000000000E+00  0.00000E+00  9.000E+00
      21    -1     0     0   501   502  0.000000000E+00  0.000000000E+00 -1.781950599E+02  1.781950599E+02  0.000000000E+00  0.00000E+00  9.000E+00
      25     1     1     2     0     0  6.788956206E+01 -2.242585061E+01  9.756166550E+01  1.739401908E+02  1.250000000E+02  0.00000E+00  9.000E+00
      25     1     1     2     0     0 -5.176290684E+01  7.965847923E+01 -9.160726339E+01  1.817739325E+02  1.250000000E+02  0.00000E+00  9.000E+00
      -2     1     1     2     0   502 -1.612665521E+01 -5.723262862E+01  2.633085030E+02  2.699389015E+02  3.814697266E-06  0.00000E+00  9.000E+00
#rwgt            1           1   2.9639274656130199E-002           9       95346           0
</event>
<event>
      5   9999  3.19816E-02  2.10509E+02 -1.00000E+00  1.10844E-01
      21    -1     0     0   511   501  0.000000000E+00  0.000000000E+00  3.371679590E+02  3.371679590E+02  0.000000000E+00  0.00000E+00  9.000E+00
      21    -1     0     0   501   502  0.000000000E+00  0.000000000E+00 -8.784475020E+02  8.784475020E+02  0.000000000E+00  0.00000E+00  9.000E+00
      25     1     1     2     0     0 -1.185750317E+02  1.670397970E+01 -3.605851156E+02  3.999821080E+02  1.250000000E+02  0.00000E+00  9.000E+00
      25     1     1     2     0     0  1.244203819E+02 -2.271319554E+02 -4.122851676E+02  5.026663068E+02  1.250000000E+02  0.00000E+00  9.000E+00
      21     1     1     2   511   502 -5.845350202E+00  2.104279757E+02  2.315907403E+02  3.129670463E+02  3.814697266E-06  0.00000E+00  9.000E+00
#rwgt            1           1   2.4801107640060112E-002           9       95438           0
</event>
<event>
      5   9999  3.19816E-02  1.70984E+01 -1.00000E+00  1.72189E-01
       2    -1     0     0   502     0  0.000000000E+00  0.000000000E+00  1.782296034E+03  1.782296034E+03  0.000000000E+00  0.00000E+00  9.000E+00
      21    -1     0     0   501   502  0.000000000E+00  0.000000000E+00 -2.545273438E+02  2.545273438E+02  0.000000000E+00  0.00000E+00  9.000E+00
      25     1     1     2     0     0  6.934123584E+01  3.239118529E+01 -1.952519909E+02  2.441428595E+02  1.250000000E+02  0.00000E+00  9.000E+00
      25     1     1     2     0     0 -8.281952182E+01 -4.291222936E+01  1.400502919E+02  2.096177876E+02  1.250000000E+02  0.00000E+00  9.000E+00
       2     1     1     2   501     0  1.347828598E+01  1.052104407E+01  1.582970389E+03  1.583062730E+03  2.157918644E-05  0.00000E+00  9.000E+00
#rwgt            1           1   2.6363208829479162E-002           9       95474           0
</event>
<event>
      5   9999  3.19816E-02  8.06373E+01 -1.00000E+00  1.28183E-01
      21    -1     0     0   502   501  0.000000000E+00  0.000000000E+00  3.452947486E+02  3.452947486E+02  0.000000000E+00  0.00000E+00  9.000E+00
      21    -1     0     0   511   502  0.000000000E+00  0.000000000E+00 -3.438888911E+02  3.438888911E+02  0.000000000E+00  0.00000E+00  9.000E+00
      25     1     1     2     0     0  5.133597844E+00  1.949084948E+02 -2.048064841E+01  2.325083485E+02  1.250000000E+02  0.00000E+00  9.000E+00
      25     1     1     2     0     0 -8.206105685E+01 -1.707312885E+02  1.730140238E+02  2.853805221E+02  1.250000000E+02  0.00000E+00  9.000E+00
      21     1     1     2   511   501  7.692745901E+01 -2.417720630E+01 -1.511275180E+02  1.712947691E+02  0.000000000E+00  0.00000E+00  9.000E+00
#rwgt            1           1   2.6902006415597424E-002           9       95593           0
</event>
<event>
      5   9999  3.20968E-02  1.31318E+02 -1.00000E+00  1.18730E-01
      21    -1     0     0   502   501  0.000000000E+00  0.000000000E+00  2.853241433E+03  2.853241433E+03  0.000000000E+00  0.00000E+00  9.000E+00
      21    -1     0     0   501   512  0.000000000E+00  0.000000000E+00 -2.290300524E+02  2.290300524E+02  0.000000000E+00  0.00000E+00  9.000E+00
      25     1     1     2     0     0  4.463384476E+02  4.358524042E+02  1.074715358E+03  1.248928912E+03  1.250000000E+02  0.00000E+00  9.000E+00
      25     1     1     2     0     0 -3.617587567E+02 -5.363047752E+02  1.567925829E+03  1.700737668E+03  1.250000000E+02  0.00000E+00  9.000E+00
      21     1     1     2   502   512 -8.457969093E+01  1.004523710E+02 -1.842980662E+01  1.326049047E+02  3.071808511E-06  0.00000E+00  9.000E+00
#rwgt            1           1   9.1635072364253195E-002           9       95669           0
</event>
<event>
      5   9999  3.19816E-02  6.65021E+01 -1.00000E+00  1.32358E-01
      21    -1     0     0   502   501  0.000000000E+00  0.000000000E+00  1.147949834E+03  1.147949834E+03  0.000000000E+00  0.00000E+00  9.000E+00
      21    -1     0     0   511   502  0.000000000E+00  0.000000000E+00 -3.052457835E+03  3.052457835E+03  0.000000000E+00  0.00000E+00  9.000E+00
      25     1     1     2     0     0 -5.345233320E+02 -1.891033256E+02  1.038349358E+03  1.189651062E+03  1.250000000E+02  0.00000E+00  9.000E+00
      25     1     1     2     0     0  5.409796036E+02  1.229153845E+02 -2.673402797E+03  2.733216902E+03  1.250000000E+02  0.00000E+00  9.000E+00
      21     1     1     2   511   501 -6.456271554E+00  6.618794110E+01 -2.694545617E+02  2.775397049E+02  3.814697266E-06  0.00000E+00  9.000E+00
#rwgt            1           1   2.2791612842318218E-002           9       95760           0
</event>
<event>
      5   9999  3.19816E-02  9.14898E+01 -1.00000E+00  1.25591E-01
       1    -1     0     0   502     0  0.000000000E+00  0.000000000E+00  1.308780945E+03  1.308780945E+03  0.000000000E+00  0.00000E+00  9.000E+00
      21    -1     0     0   501   502  0.000000000E+00  0.000000000E+00 -4.770404392E+02  4.770404392E+02  0.000000000E+00  0.00000E+00  9.000E+00
      25     1     1     2     0     0  8.309558562E+01  8.379690271E+01 -3.740656135E+02  4.116756981E+02  1.250000000E+02  0.00000E+00  9.000E+00
      25     1     1     2     0     0 -1.450729276E+02 -1.649758489E+01  2.970136570E+01  1.944877779E+02  1.250000000E+02  0.00000E+00  9.000E+00
       1     1     1     2   501     0  6.197734200E+01 -6.729931782E+01  1.176104754E+03  1.179657908E+03  1.525878906E-05  0.00000E+00  9.000E+00
#rwgt            1           1   2.6686463298614817E-002           9       95886           0
</event>
<event>
      5   9999  3.19816E-02  1.50493E+01 -1.00000E+00  1.77249E-01
      21    -1     0     0   502   501  0.000000000E+00  0.000000000E+00  4.164192001E+02  4.164192001E+02  0.000000000E+00  0.00000E+00  9.000E+00
      21    -1     0     0   511   502  0.000000000E+00  0.000000000E+00 -2.031186562E+02  2.031186562E+02  0.000000000E+00  0.00000E+00  9.000E+00
      25     1     1     2     0     0 -2.089389619E+01  2.107505820E+02  2.497262674E+02  3.504861928E+02  1.250000000E+02  0.00000E+00  9.000E+00
      25     1     1     2     0     0  3.537598848E+01 -2.148433345E+02 -3.797952563E+01  2.539223568E+02  1.250000000E+02  0.00000E+00  9.000E+00
      21     1     1     2   511   501 -1.448209229E+01  4.092752509E+00  1.553802095E+00  1.512930670E+01  1.475139698E-07  0.00000E+00  9.000E+00
#rwgt            1           1   2.8021784606368564E-002           9       95929           0
</event>
<event>
      5   9999  3.19816E-02  4.26887E+01 -1.00000E+00  1.43109E-01
      21    -1     0     0   502   501  0.000000000E+00  0.000000000E+00  1.530954655E+02  1.530954655E+02  0.000000000E+00  0.00000E+00  9.000E+00
      21    -1     0     0   501   512  0.000000000E+00  0.000000000E+00 -5.685414067E+02  5.685414067E+02  0.000000000E+00  0.00000E+00  9.000E+00
      25     1     1     2     0     0 -9.485004898E+01  2.350388281E+02 -2.539112165E+02  3.799153700E+02  1.250000000E+02  0.00000E+00  9.000E+00
      25     1     1     2     0     0  1.003776729E+02 -1.927094941E+02 -1.072285250E+02  2.726455261E+02  1.250000000E+02  0.00000E+00  9.000E+00
      21     1     1     2   502   512 -5.527623910E+00 -4.232933402E+01 -5.430619979E+01  6.907597614E+01  6.743495762E-07  0.00000E+00  9.000E+00
#rwgt            1           1   2.6159980756839403E-002           9       96114           0
</event>
<event>
      5   9999  3.19816E-02  6.37962E+01 -1.00000E+00  1.33295E-01
      21    -1     0     0   502   501  0.000000000E+00  0.000000000E+00  3.578644580E+02  3.578644580E+02  0.000000000E+00  0.00000E+00  9.000E+00
      21    -1     0     0   501   511  0.000000000E+00  0.000000000E+00 -5.686854567E+02  5.686854567E+02  0.000000000E+00  0.00000E+00  9.000E+00
      25     1     1     2     0     0 -1.036512558E+02  9.417131269E+01 -1.257400093E+02  2.259366480E+02  1.250000000E+02  0.00000E+00  9.000E+00
      25     1     1     2     0     0  1.074730520E+02 -3.048972905E+01  2.819789333E+02  3.280506048E+02  1.250000000E+02  0.00000E+00  9.000E+00
      21     1     1     2   502   511 -3.821796214E+00 -6.368158364E+01 -3.670599227E+02  3.725626619E+02  5.394796609E-06  0.00000E+00  9.000E+00
#rwgt            1           1   2.6742170326843263E-002           9       96213           0
</event>
<event>
      5   9999  3.19816E-02  6.05418E+01 -1.00000E+00  1.34495E-01
      21    -1     0     0   502   512  0.000000000E+00  0.000000000E+00  2.884181764E+02  2.884181764E+02  0.000000000E+00  0.00000E+00  9.000E+00
      21    -1     0     0   501   502  0.000000000E+00  0.000000000E+00 -2.737515402E+02  2.737515402E+02  0.000000000E+00  0.00000E+00  9.000E+00
      25     1     1     2     0     0  2.025017053E+02 -1.977968424E+01 -1.120371646E+02  2.637716869E+02  1.250000000E+02  0.00000E+00  9.000E+00
      25     1     1     2     0     0 -1.565449719E+02  5.919148664E+01  8.888195205E+01  2.270131311E+02  1.250000000E+02  0.00000E+00  9.000E+00
      21     1     1     2   501   512 -4.595673340E+01 -3.941180240E+01  3.782184870E+01  7.138489863E+01  1.261592536E-06  0.00000E+00  9.000E+00
#rwgt            1           1   2.7352643501919890E-002           9       96279           0
</event>
<event>
      5   9999  3.19816E-02  1.68952E+02 -1.00000E+00  1.14382E-01
       2    -1     0     0   502     0  0.000000000E+00  0.000000000E+00  2.108074678E+03  2.108074678E+03  0.000000000E+00  0.00000E+00  9.000E+00
      21    -1     0     0   501   502  0.000000000E+00  0.000000000E+00 -6.761726032E+02  6.761726032E+02  0.000000000E+00  0.00000E+00  9.000E+00
      25     1     1     2     0     0  5.563366352E+01  5.742239136E+01  1.644437693E+02  2.214930898E+02  1.250000000E+02  0.00000E+00  9.000E+00
      25     1     1     2     0     0  1.331762744E+01  9.681903546E+01 -6.341276898E+02  6.536774524E+02  1.250000000E+02  0.00000E+00  9.000E+00
       2     1     1     2   501     0 -6.895129096E+01 -1.542414268E+02  1.901585995E+03  1.909076739E+03  3.051757812E-05  0.00000E+00  9.000E+00
#rwgt            1           1   3.1306216551032606E-002           9       96346           0
</event>
<event>
      5   9999  3.19816E-02  9.24968E+01 -1.00000E+00  1.25371E-01
      21    -1     0     0   511   501  0.000000000E+00  0.000000000E+00  3.428691778E+02  3.428691778E+02  0.000000000E+00  0.00000E+00  9.000E+00
      21    -1     0     0   501   502  0.000000000E+00  0.000000000E+00 -9.547418214E+02  9.547418214E+02  0.000000000E+00  0.00000E+00  9.000E+00
      25     1     1     2     0     0  3.277044044E+02 -2.086480317E+02  7.501625387E+01  4.149417021E+02  1.250000000E+02  0.00000E+00  9.000E+00
      25     1     1     2     0     0 -3.057163580E+02  1.188027335E+02 -7.057983901E+02  7.882594424E+02  1.250000000E+02  0.00000E+00  9.000E+00
      21     1     1     2   511   502 -2.198804635E+01  8.984529814E+01  1.890949261E+01  9.440985484E+01  1.846782373E-06  0.00000E+00  9.000E+00
#rwgt            1           1   3.0183716170468097E-002           9       96391           0
</event>
<event>
      5   9999  3.19816E-02  2.88388E+01 -1.00000E+00  1.54240E-01
      21    -1     0     0   502   512  0.000000000E+00  0.000000000E+00  4.316660246E+02  4.316660246E+02  0.000000000E+00  0.00000E+00  9.000E+00
      21    -1     0     0   501   502  0.000000000E+00  0.000000000E+00 -5.626081696E+02  5.626081696E+02  0.000000000E+00  0.00000E+00  9.000E+00
      25     1     1     2     0     0 -6.397999161E+01  3.174530642E+02  1.056162777E+02  3.628356176E+02  1.250000000E+02  0.00000E+00  9.000E+00
      25     1     1     2     0     0  8.832425670E+01 -3.019924423E+02 -3.661425332E+02  4.986842329E+02  1.250000000E+02  0.00000E+00  9.000E+00
      21     1     1     2   501   512 -2.434426509E+01 -1.546062192E+01  1.295841105E+02  1.327543437E+02  1.907348633E-06  0.00000E+00  9.000E+00
#rwgt            1           1   3.2789354647108700E-002           9       96462           0
</event>
<event>
      5   9999  3.19816E-02  1.47627E+02 -1.00000E+00  1.16669E-01
      -1    -1     0     0     0   501  0.000000000E+00  0.000000000E+00  1.182000769E+03  1.182000769E+03  0.000000000E+00  0.00000E+00  9.000E+00
      21    -1     0     0   501   502  0.000000000E+00  0.000000000E+00 -3.038051568E+02  3.038051568E+02  0.000000000E+00  0.00000E+00  9.000E+00
      25     1     1     2     0     0 -3.286025152E+02  1.387408223E+02  8.783310396E+02  9.562003157E+02  1.250000000E+02  0.00000E+00  9.000E+00
      25     1     1     2     0     0  1.965966740E+02 -7.264747878E+01  1.751884875E+02  3.004062492E+02  1.250000000E+02  0.00000E+00  9.000E+00
      -1     1     1     2     0   502  1.320058412E+02 -6.609334349E+01 -1.753239145E+02  2.291993612E+02  1.907348633E-06  0.00000E+00  9.000E+00
#rwgt            1           1   2.7566422770066962E-002           9       96629           0
</event>
<event>
      5   9999  3.19816E-02  1.14881E+01 -1.00000E+00  1.89041E-01
      21    -1     0     0   502   501  0.000000000E+00  0.000000000E+00  2.481305603E+02  2.481305603E+02  0.000000000E+00  0.00000E+00  9.000E+00
      21    -1     0     0   511   502  0.000000000E+00  0.000000000E+00 -8.415902374E+02  8.415902374E+02  0.000000000E+00  0.00000E+00  9.000E+00
      25     1     1     2     0     0  2.411890717E+02 -3.097061221E+01  1.186405865E+02  2.980468686E+02  1.250000000E+02  0.00000E+00  9.000E+00
      25     1     1     2     0     0 -2.322855560E+02  3.823039666E+01 -4.079401597E+02  4.872969492E+02  1.250000000E+02  0.00000E+00  9.000E+00
      21     1     1     2   511   501 -8.903515773E+00 -7.259784455E+00 -3.041601039E+02  3.043769798E+02  3.814697266E-06  0.00000E+00  9.000E+00
#rwgt            1           1   2.9490000119651080E-002           9       96706           0
</event>
<event>
      5   9999  3.19816E-02  9.35851E+00 -1.00000E+00  1.99146E-01
      21    -1     0     0   502   501  0.000000000E+00  0.000000000E+00  4.474414378E+02  4.474414378E+02  0.000000000E+00  0.00000E+00  9.000E+00
      21    -1     0     0   512   502  0.000000000E+00  0.000000000E+00 -1.778353766E+02  1.778353766E+02  0.000000000E+00  0.00000E+00  9.000E+00
      25     1     1     2     0     0  1.642018631E+02 -8.994534638E+01  4.877433784E+01  2.303396475E+02  1.250000000E+02  0.00000E+00  9.000E+00
      25     1     1     2     0     0 -1.600515394E+02  8.155746628E+01  2.684828510E+02  3.463757452E+02  1.250000000E+02  0.00000E+00  9.000E+00
      21     1     1     2   512   501 -4.150323686E+00  8.387880100E+00 -4.765112757E+01  4.856142171E+01  9.536743164E-07  0.00000E+00  9.000E+00
#rwgt            1           1   2.9325241924089741E-002           9       96945           0
</event>
<event>
      5   9999  3.19816E-02  2.23686E+01 -1.00000E+00  1.62456E-01
      21    -1     0     0   502   501  0.000000000E+00  0.000000000E+00  1.343053572E+02  1.343053572E+02  0.000000000E+00  0.00000E+00  9.000E+00
      21    -1     0     0   511   502  0.000000000E+00  0.000000000E+00 -1.039301754E+03  1.039301754E+03  0.000000000E+00  0.00000E+00  9.000E+00
      25     1     1     2     0     0  1.820885268E+02 -2.505809690E+02 -6.058793995E+02  6.918539589E+02  1.250000000E+02  0.00000E+00  9.000E+00
      25     1     1     2     0     0 -1.790264193E+02  2.284229933E+02 -1.864787294E+02  3.669153025E+02  1.250000000E+02  0.00000E+00  9.000E+00
      21     1     1     2   511   501 -3.062107504E+00  2.215797573E+01 -1.126382677E+02  1.148378498E+02  1.348699152E-06  0.00000E+00  9.000E+00
#rwgt            1           1   2.6840703989774468E-002           9       97107           0
</event>
<event>
      5   9999  3.19816E-02  3.75022E+01 -1.00000E+00  1.46599E-01
      21    -1     0     0   502   501  0.000000000E+00  0.000000000E+00  1.102270335E+02  1.102270335E+02  0.000000000E+00  0.00000E+00  9.000E+00
      21    -1     0     0   501   512  0.000000000E+00  0.000000000E+00 -8.447619472E+02  8.447619472E+02  0.000000000E+00  0.00000E+00  9.000E+00
      25     1     1     2     0     0  1.856658774E+01  4.642634105E+01  5.500147340E+01  1.454313769E+02  1.250000000E+02  0.00000E+00  9.000E+00
      25     1     1     2     0     0  1.746398643E+01 -5.682898834E+01 -6.747183507E+02  6.887701921E+02  1.250000000E+02  0.00000E+00  9.000E+00
      21     1     1     2   502   512 -3.603057417E+01  1.040264729E+01 -1.148180364E+02  1.207874117E+02  1.907348633E-06  0.00000E+00  9.000E+00
#rwgt            1           1   2.7874722009472289E-002           9       97267           0
</event>
<event>
      5   9999  3.19816E-02  3.25388E+01 -1.00000E+00  1.50629E-01
      21    -1     0     0   502   511  0.000000000E+00  0.000000000E+00  2.682752088E+02  2.682752088E+02  0.000000000E+00  0.00000E+00  9.000E+00
      21    -1     0     0   501   502  0.000000000E+00  0.000000000E+00 -2.628131101E+02  2.628131101E+02  0.000000000E+00  0.00000E+00  9.000E+00
      25     1     1     2     0     0  5.418278826E+01 -1.719917993E+02  4.275350989E+01  2.235392945E+02  1.250000000E+02  0.00000E+00  9.000E+00
      25     1     1     2     0     0 -2.962497471E+01  1.933386455E+02 -8.720489692E+01  2.479660562E+02  1.250000000E+02  0.00000E+00  9.000E+00
      21     1     1     2   501   511 -2.455781355E+01 -2.134684622E+01  4.991348577E+01  5.958296829E+01  9.536743164E-07  0.00000E+00  9.000E+00
#rwgt            1           1   2.8425653650667494E-002           9       97428           0
</event>
<event>
      5   9999  3.19816E-02  1.09967E+02 -1.00000E+00  1.22000E-01
      21    -1     0     0   502   501  0.000000000E+00  0.000000000E+00  1.985162174E+02  1.985162174E+02  0.000000000E+00  0.00000E+00  9.000E+00
      21    -1     0     0   501   512  0.000000000E+00  0.000000000E+00 -1.953318695E+03  1.953318695E+03  0.000000000E+00  0.00000E+00  9.000E+00
      25     1     1     2     0     0  4.267738304E+02 -3.546190965E+02 -1.046211776E+03  1.190829411E+03  1.250000000E+02  0.00000E+00  9.000E+00
      25     1     1     2     0     0 -4.089375206E+02  2.461084914E+02 -4.056721543E+02  6.387442228E+02  1.250000000E+02  0.00000E+00  9.000E+00
      21     1     1     2   502   512 -1.783630974E+01  1.085106051E+02 -3.029185468E+02  3.222612781E+02  3.814697266E-06  0.00000E+00  9.000E+00
#rwgt            1           1   2.5084060603553653E-002           9       97528           0
</event>
<event>
      5   9999  3.19816E-02  1.29625E+02 -1.00000E+00  1.18963E-01
      21    -1     0     0   511   501  0.000000000E+00  0.000000000E+00  1.420932192E+02  1.420932192E+02  0.000000000E+00  0.00000E+00  9.000E+00
      21    -1     0     0   501   502  0.000000000E+00  0.000000000E+00 -9.097341129E+02  9.097341129E+02  0.000000000E+00  0.00000E+00  9.000E+00
      25     1     1     2     0     0  1.766215551E+02  7.202515656E+01 -8.324215669E+01  2.427695483E+02  1.250000000E+02  0.00000E+00  9.000E+00
      25     1     1     2     0     0 -1.574021718E+02 -2.002177209E+02 -5.676929026E+02  6.346359674E+02  1.250000000E+02  0.00000E+00  9.000E+00
      21     1     1     2   511   502 -1.921938334E+01  1.281925643E+02 -1.167058345E+02  1.744218164E+02  2.697398305E-06  0.00000E+00  9.000E+00
#rwgt            1           1   2.9791092388210247E-002           9       97648           0
</event>
<event>
      5   9999  3.19816E-02  1.10819E+02 -1.00000E+00  1.21854E-01
      -1    -1     0     0     0   501  0.000000000E+00  0.000000000E+00  1.035985066E+02  1.035985066E+02  0.000000000E+00  0.00000E+00  9.000E+00
      21    -1     0     0   501   502  0.000000000E+00  0.000000000E+00 -5.249823125E+02  5.249823125E+02  0.000000000E+00  0.00000E+00  9.000E+00
      25     1     1     2     0     0 -4.497625553E+01 -2.494412647E+00 -1.205608525E+02  1.794129449E+02  1.250000000E+02  0.00000E+00  9.000E+00
      25     1     1     2     0     0  9.589174290E+01 -9.593531246E+01 -2.816906144E+02  3.367096862E+02  1.250000000E+02  0.00000E+00  9.000E+00
      -1     1     1     2     0   502 -5.091548737E+01  9.842972511E+01 -1.913233905E+01  1.124581879E+02  1.563415176E-06  0.00000E+00  9.000E+00
#rwgt            1           1   5.0986269036588830E-002           9       97684           0
</event>
<event>
      5   9999  3.19816E-02  1.85719E+02 -1.00000E+00  1.12832E-01
      21    -1     0     0   502   501  0.000000000E+00  0.000000000E+00  1.424771974E+03  1.424771974E+03  0.000000000E+00  0.00000E+00  9.000E+00
      21    -1     0     0   511   502  0.000000000E+00  0.000000000E+00 -2.288863704E+02  2.288863704E+02  0.000000000E+00  0.00000E+00  9.000E+00
      25     1     1     2     0     0 -7.656343480E+01  2.388002847E+02  1.104176568E+03  1.139174451E+03  1.250000000E+02  0.00000E+00  9.000E+00
      25     1     1     2     0     0  2.326522554E+02 -1.381639134E+02 -1.830873547E+01  2.986244275E+02  1.250000000E+02  0.00000E+00  9.000E+00
      21     1     1     2   511   501 -1.560888206E+02 -1.006363713E+02  1.100177706E+02  2.158594659E+02  4.473129043E-06  0.00000E+00  9.000E+00
#rwgt            1           1   2.8323679770769803E-002           9       97721           0
</event>
<event>
      5   9999  3.19816E-02  1.29615E+01 -1.00000E+00  1.83576E-01
      21    -1     0     0   502   512  0.000000000E+00  0.000000000E+00  1.441137151E+02  1.441137151E+02  0.000000000E+00  0.00000E+00  9.000E+00
      21    -1     0     0   501   502  0.000000000E+00  0.000000000E+00 -5.949473539E+02  5.949473539E+02  0.000000000E+00  0.00000E+00  9.000E+00
      25     1     1     2     0     0  1.446671765E+02 -1.381138053E+02 -2.789345667E+01  2.375017054E+02  1.250000000E+02  0.00000E+00  9.000E+00
      25     1     1     2     0     0 -1.528579812E+02  1.481592919E+02 -4.215622687E+02  4.885248045E+02  1.250000000E+02  0.00000E+00  9.000E+00
      21     1     1     2   501   512  8.190804767E+00 -1.004548657E+01 -1.377913428E+00  1.303455901E+01  1.769414855E-07  0.00000E+00  9.000E+00
#rwgt            1           1   2.5247345134015893E-002           9       97774           0
</event>
<event>
      5   9999  4.01447E-02  6.62020E+00 -1.00000E+00  2.19036E-01
      21    -1     0     0   502   501  0.000000000E+00  0.000000000E+00  1.053179854E+03  1.053179854E+03  0.000000000E+00  0.00000E+00  9.000E+00
       2    -1     0     0   501     0  0.000000000E+00  0.000000000E+00 -8.927983697E+02  8.927983697E+02  0.000000000E+00  0.00000E+00  9.000E+00
      25     1     1     2     0     0 -1.574699380E+00  2.195114660E+02 -4.142679338E+02  4.852119994E+02  1.250000000E+02  0.00000E+00  9.000E+00
      25     1     1     2     0     0 -1.061825319E+00 -2.255840122E+02  1.001342496E+03  1.034021793E+03  1.250000000E+02  0.00000E+00  9.000E+00
       2     1     1     2   502     0  2.636524699E+00  6.072546258E+00 -4.266930778E+02  4.267444314E+02  0.000000000E+00  0.00000E+00  9.000E+00
#rwgt            1           1   3.7958206594858795E-002           9       97992           0
</event>
<event>
      5   9999  3.19816E-02  3.19083E+02 -1.00000E+00  1.04729E-01
      21    -1     0     0   511   501  0.000000000E+00  0.000000000E+00  9.578334098E+02  9.578334098E+02  0.000000000E+00  0.00000E+00  9.000E+00
      21    -1     0     0   501   502  0.000000000E+00  0.000000000E+00 -1.176152066E+03  1.176152066E+03  0.000000000E+00  0.00000E+00  9.000E+00
      25     1     1     2     0     0  3.781995770E-01  4.186408088E+02 -8.844056819E+02  9.864373675E+02  1.250000000E+02  0.00000E+00  9.000E+00
      25     1     1     2     0     0 -3.173506383E+02 -4.552772308E+02  2.454074235E+02  6.195470830E+02  1.250000000E+02  0.00000E+00  9.000E+00
      21     1     1     2   511   502  3.169724387E+02  3.663642202E+01  4.206796025E+02  5.280010249E+02  7.629394531E-06  0.00000E+00  9.000E+00
#rwgt            1           1   3.1661197806271420E-002           9       98427           0
</event>
<event>
      5   9999  3.19816E-02  2.45130E+01 -1.00000E+00  1.59393E-01
      21    -1     0     0   512   501  0.000000000E+00  0.000000000E+00  4.829265052E+02  4.829265052E+02  0.000000000E+00  0.00000E+00  9.000E+00
      21    -1     0     0   501   502  0.000000000E+00  0.000000000E+00 -1.086906338E+02  1.086906338E+02  0.000000000E+00  0.00000E+00  9.000E+00
      25     1     1     2     0     0  9.400465925E+01  1.108173430E+02  2.308195082E+02  3.000333395E+02  1.250000000E+02  0.00000E+00  9.000E+00
      25     1     1     2     0     0 -1.032111442E+02 -1.335358128E+02  8.201118734E+01  2.254666016E+02  1.250000000E+02  0.00000E+00  9.000E+00
      21     1     1     2   512   502  9.206484964E+00  2.271846988E+01  6.140517589E+01  6.611719795E+01  0.000000000E+00  0.00000E+00  9.000E+00
#rwgt            1           1   2.4580068452282586E-002           9       98462           0
</event>
<event>
      5   9999  3.19816E-02  9.36759E+01 -1.00000E+00  1.25118E-01
      21    -1     0     0   502   501  0.000000000E+00  0.000000000E+00  1.566725647E+03  1.566725647E+03  0.000000000E+00  0.00000E+00  9.000E+00
      21    -1     0     0   511   502  0.000000000E+00  0.000000000E+00 -9.115833493E+01  9.115833493E+01  0.000000000E+00  0.00000E+00  9.000E+00
      25     1     1     2     0     0 -5.539407699E+01  1.577828658E+02  1.160514645E+02  2.388658178E+02  1.250000000E+02  0.00000E+00  9.000E+00
      25     1     1     2     0     0  8.758523619E+01 -2.457538719E+02  1.196760396E+03  1.231229705E+03  1.250000000E+02  0.00000E+00  9.000E+00
      21     1     1     2   511   501 -3.219115920E+01  8.797100610E+01  1.627554515E+02  1.877884598E+02  1.907348633E-06  0.00000E+00  9.000E+00
#rwgt            1           1   2.8633939887470660E-002           9       98587           0
</event>
<event>
      5   9999  3.19816E-02  1.07177E+02 -1.00000E+00  1.22489E-01
      21    -1     0     0   502   501  0.000000000E+00  0.000000000E+00  7.161794001E+02  7.161794001E+02  0.000000000E+00  0.00000E+00  9.000E+00
      21    -1     0     0   501   512  0.000000000E+00  0.000000000E+00 -1.464989861E+02  1.464989861E+02  0.000000000E+00  0.00000E+00  9.000E+00
      25     1     1     2     0     0  1.239101105E+02 -8.876194070E+00  5.853641420E+02  6.113171690E+02  1.250000000E+02  0.00000E+00  9.000E+00
      25     1     1     2     0     0 -4.035513211E+01 -5.824737163E+01 -8.137021383E+00  1.439183939E+02  1.250000000E+02  0.00000E+00  9.000E+00
      21     1     1     2   502   512 -8.355497840E+01  6.712356570E+01 -7.546706645E+00  1.074428233E+02  9.461944024E-07  0.00000E+00  9.000E+00
#rwgt            1           1   2.8193664433127812E-002           9       98668           0
</event>
<event>
      5   9999  3.19816E-02  1.52716E+02 -1.00000E+00  1.16086E-01
      21    -1     0     0   502   501  0.000000000E+00  0.000000000E+00  8.982025889E+02  8.982025889E+02  0.000000000E+00  0.00000E+00  9.000E+00
      21    -1     0     0   511   502  0.000000000E+00  0.000000000E+00 -5.700957333E+02  5.700957333E+02  0.000000000E+00  0.00000E+00  9.000E+00
      25     1     1     2     0     0  3.431514737E+02 -1.788634577E+02  5.749112295E+02  7.041967000E+02  1.250000000E+02  0.00000E+00  9.000E+00
      25     1     1     2     0     0 -4.727155554E+02  2.597039194E+02 -1.221423509E+02  5.669654980E+02  1.250000000E+02  0.00000E+00  9.000E+00
      21     1     1     2   511   501  1.295640816E+02 -8.084046169E+01 -1.246620230E+02  1.971361242E+02  3.015782986E-06  0.00000E+00  9.000E+00
#rwgt            1           1   2.5169580750178711E-002           9       98739           0
</event>
<event>
      5   9999  3.19816E-02  6.48602E+02 -1.00000E+00  9.57442E-02
       1    -1     0     0   502     0  0.000000000E+00  0.000000000E+00  1.556824011E+03  1.556824011E+03  0.000000000E+00  0.00000E+00  9.000E+00
      21    -1     0     0   501   502  0.000000000E+00  0.000000000E+00 -1.045606776E+03  1.045606776E+03  0.000000000E+00  0.00000E+00  9.000E+00
      25     1     1     2     0     0  5.250460766E+02 -2.857360382E+02 -8.060537658E+01  6.159875752E+02  1.250000000E+02  0.00000E+00  9.000E+00
      25     1     1     2     0     0 -2.004978023E+02 -2.758271418E+02 -5.583018963E+02  6.660375277E+02  1.250000000E+02  0.00000E+00  9.000E+00
       1     1     1     2   501     0 -3.245482744E+02  5.615631800E+02  1.150124507E+03  1.320405684E+03  0.000000000E+00  0.00000E+00  9.000E+00
#rwgt            2          17   8.8403708412022528E-004           9       98860           0
</event>
<event>
      5   9999  3.19816E-02  4.11208E+01 -1.00000E+00  1.44100E-01
      21    -1     0     0   502   501  0.000000000E+00  0.000000000E+00  9.339443828E+02  9.339443828E+02  0.000000000E+00  0.00000E+00  9.000E+00
      21    -1     0     0   511   502  0.000000000E+00  0.000000000E+00 -2.182438513E+02  2.182438513E+02  0.000000000E+00  0.00000E+00  9.000E+00
      25     1     1     2     0     0  1.288692281E+02  2.940871527E+02  6.282642646E+02  7.165441491E+02  1.250000000E+02  0.00000E+00  9.000E+00
      25     1     1     2     0     0 -1.657506723E+02 -3.122716396E+02  1.072220851E+02  3.900108176E+02  1.250000000E+02  0.00000E+00  9.000E+00
      21     1     1     2   511   501  3.688144421E+01  1.818448694E+01 -1.978581825E+01  4.563326743E+01  4.768371582E-07  0.00000E+00  9.000E+00
#rwgt            1           1   2.7588263845169166E-002           9       98879           0
</event>
<event>
      5   9999  3.19816E-02  7.68772E+01 -1.00000E+00  1.29192E-01
      21    -1     0     0   512   501  0.000000000E+00  0.000000000E+00  1.652386456E+03  1.652386456E+03  0.000000000E+00  0.00000E+00  9.000E+00
      21    -1     0     0   501   502  0.000000000E+00  0.000000000E+00 -5.864694066E+02  5.864694066E+02  0.000000000E+00  0.00000E+00  9.000E+00
      25     1     1     2     0     0 -1.219694830E+02 -6.261030067E+02  3.387747058E+02  7.329903350E+02  1.250000000E+02  0.00000E+00  9.000E+00
      25     1     1     2     0     0  1.198641791E+02  5.492546489E+02 -1.738660837E+02  6.015833324E+02  1.250000000E+02  0.00000E+00  9.000E+00
      21     1     1     2   512   502  2.105303956E+00  7.684835783E+01  9.010084272E+02  9.042821950E+02  1.525878906E-05  0.00000E+00  9.000E+00
#rwgt            1           1   2.1677081275239058E-002           9       98988           0
</event>
<event>
      5   9999  3.19816E-02  2.45180E+01 -1.00000E+00  1.59387E-01
      21    -1     0     0   502   501  0.000000000E+00  0.000000000E+00  4.327387107E+02  4.327387107E+02  0.000000000E+00  0.00000E+00  9.000E+00
      21    -1     0     0   501   511  0.000000000E+00  0.000000000E+00 -4.124541768E+02  4.124541768E+02  0.000000000E+00  0.00000E+00  9.000E+00
      25     1     1     2     0     0  1.198248241E+02 -2.076074489E+02 -1.500941442E+02  3.092120525E+02  1.250000000E+02  0.00000E+00  9.000E+00
      25     1     1     2     0     0 -1.181408669E+02  1.831473570E+02  3.072688695E+02  3.969123039E+02  1.250000000E+02  0.00000E+00  9.000E+00
      21     1     1     2   502   511 -1.683957245E+00  2.446009192E+01 -1.368901916E+02  1.390685311E+02  0.000000000E+00  0.00000E+00  9.000E+00
#rwgt            1           1   3.0264971608868773E-002           9       99104           0
</event>
<event>
      5   9999  3.19816E-02  4.27789E+01 -1.00000E+00  1.43054E-01
      21    -1     0     0   502   512  0.000000000E+00  0.000000000E+00  2.263536982E+02  2.263536982E+02  0.000000000E+00  0.00000E+00  9.000E+00
      21    -1     0     0   501   502  0.000000000E+00  0.000000000E+00 -1.126546092E+03  1.126546092E+03  0.000000000E+00  0.00000E+00  9.000E+00
      25     1     1     2     0     0  5.805827973E+01 -2.017141327E+02 -1.031568114E+03  1.060102415E+03  1.250000000E+02  0.00000E+00  9.000E+00
      25     1     1     2     0     0 -2.444798928E+01  1.752493831E+02  9.465803338E+01  2.364216439E+02  1.250000000E+02  0.00000E+00  9.000E+00
      21     1     1     2   501   512 -3.361029046E+01  2.646474968E+01  3.671768693E+01  5.637573178E+01  8.259061849E-07  0.00000E+00  9.000E+00
#rwgt            1           1   2.6348241898605369E-002           9       99236           0
</event>
<event>
      5   9999  3.19816E-02  6.81529E+01 -1.00000E+00  1.31812E-01
       4    -1     0     0   502     0  0.000000000E+00  0.000000000E+00  3.740667485E+02  3.740667485E+02  0.000000000E+00  0.00000E+00  9.000E+00
      21    -1     0     0   501   502  0.000000000E+00  0.000000000E+00 -7.672471372E+02  7.672471372E+02  0.000000000E+00  0.00000E+00  9.000E+00
      25     1     1     2     0     0 -1.356544707E+02  1.447582146E+02 -3.409387773E+02  4.137889872E+02  1.250000000E+02  0.00000E+00  9.000E+00
      25     1     1     2     0     0  1.704367680E+02 -8.614929158E+01 -3.523272406E+02  4.197974235E+02  1.250000000E+02  0.00000E+00  9.000E+00
       4     1     1     2   501     0 -3.478229723E+01 -5.860892300E+01  3.000856291E+02  3.077274750E+02  0.000000000E+00  0.00000E+00  9.000E+00
#rwgt            1           1   2.8896648948061342E-002           9       99320           0
</event>
<event>
      5   9999  3.19816E-02  5.61139E+01 -1.00000E+00  1.36276E-01
      21    -1     0     0   511   501  0.000000000E+00  0.000000000E+00  9.290909827E+02  9.290909827E+02  0.000000000E+00  0.00000E+00  9.000E+00
      21    -1     0     0   501   502  0.000000000E+00  0.000000000E+00 -3.417163943E+02  3.417163943E+02  0.000000000E+00  0.00000E+00  9.000E+00
      25     1     1     2     0     0 -1.233421532E+02  3.049868550E+02 -1.690060050E+02  3.904078614E+02  1.250000000E+02  0.00000E+00  9.000E+00
      25     1     1     2     0     0  8.532404292E+01 -3.462590630E+02  7.210987346E+02  8.141154194E+02  1.250000000E+02  0.00000E+00  9.000E+00
      21     1     1     2   511   502  3.801811029E+01  4.127220800E+01  3.528185886E+01  6.628409634E+01  4.768371582E-07  0.00000E+00  9.000E+00
#rwgt            1           1   2.6578916583340016E-002           9       99438           0
</event>
<event>
      5   9999  3.19816E-02  5.89992E+01 -1.00000E+00  1.35095E-01
      21    -1     0     0   512   501  0.000000000E+00  0.000000000E+00  1.972520548E+02  1.972520548E+02  0.000000000E+00  0.00000E+00  9.000E+00
      21    -1     0     0   501   502  0.000000000E+00  0.000000000E+00 -2.487990271E+03  2.487990271E+03  0.000000000E+00  0.00000E+00  9.000E+00
      25     1     1     2     0     0  1.212066500E+02 -3.525766728E+02 -2.058795467E+02  4.438611832E+02  1.250000000E+02  0.00000E+00  9.000E+00
      25     1     1     2     0     0 -1.264352831E+02  2.938095766E+02 -2.135921851E+03  2.163353207E+03  1.250000000E+02  0.00000E+00  9.000E+00
      21     1     1     2   512   502  5.228633094E+00  5.876709621E+01  5.106318116E+01  7.802793520E+01  2.523185073E-06  0.00000E+00  9.000E+00
#rwgt            1           1   2.5241567269746679E-002           9       99579           0
</event>
<event>
      5   9999  3.19816E-02  2.96269E+02 -1.00000E+00  1.05769E-01
      21    -1     0     0   502   501  0.000000000E+00  0.000000000E+00  2.017772469E+03  2.017772469E+03  0.000000000E+00  0.00000E+00  9.000E+00
       4    -1     0     0   501     0  0.000000000E+00  0.000000000E+00 -7.449644557E+02  7.449644557E+02  0.000000000E+00  0.00000E+00  9.000E+00
      25     1     1     2     0     0  3.871926718E+02  3.268396629E+02  1.122607437E+03  1.237988202E+03  1.250000000E+02  0.00000E+00  9.000E+00
      25     1     1     2     0     0 -1.684472588E+02 -1.270251138E+02  7.859701283E+02  8.233370519E+02  1.250000000E+02  0.00000E+00  9.000E+00
       4     1     1     2   502     0 -2.187454130E+02 -1.998145491E+02 -6.357695517E+02  7.014116713E+02  1.078959322E-05  0.00000E+00  9.000E+00
#rwgt            1           1   3.8999511379712158E-002           9       99716           0
</event>
<event>
      5   9999  3.19816E-02  2.68268E+01 -1.00000E+00  1.56490E-01
      21    -1     0     0   502   511  0.000000000E+00  0.000000000E+00  1.174397121E+02  1.174397121E+02  0.000000000E+00  0.00000E+00  9.000E+00
      21    -1     0     0   501   502  0.000000000E+00  0.000000000E+00 -1.080934675E+03  1.080934675E+03  0.000000000E+00  0.00000E+00  9.000E+00
      25     1     1     2     0     0  1.875877516E+01 -2.819214025E+01 -1.021008419E+03  1.029188943E+03  1.250000000E+02  0.00000E+00  9.000E+00
      25     1     1     2     0     0 -3.410684082E+01  6.189533328E+00  3.551205358E+01  1.344904936E+02  1.250000000E+02  0.00000E+00  9.000E+00
      21     1     1     2   501   511  1.534806566E+01  2.200260692E+01  2.200140300E+01  3.469495013E+01  8.259061849E-07  0.00000E+00  9.000E+00
#rwgt            1           1   2.6812295964128888E-002           9       99773           0
</event>
<event>
      5   9999  3.19816E-02  1.09671E+02 -1.00000E+00  1.22051E-01
      21    -1     0     0   502   512  0.000000000E+00  0.000000000E+00  1.242052435E+02  1.242052435E+02  0.000000000E+00  0.00000E+00  9.000E+00
      21    -1     0     0   501   502  0.000000000E+00  0.000000000E+00 -1.956110394E+03  1.956110394E+03  0.000000000E+00  0.00000E+00  9.000E+00
      25     1     1     2     0     0 -4.499660450E+01 -3.945516384E+02 -6.218467115E+02  7.483408464E+02  1.250000000E+02  0.00000E+00  9.000E+00
      25     1     1     2     0     0  1.016895494E+02  3.006711245E+02 -1.164118790E+03  1.213071081E+03  1.250000000E+02  0.00000E+00  9.000E+00
      21     1     1     2   501   512 -5.669294492E+01  9.388051388E+01 -4.593964812E+01  1.189037096E+02  2.780414531E-06  0.00000E+00  9.000E+00
#rwgt            1           1   4.1061770306825077E-002           9       99930           0
</event>
<event>
      5   9999  3.19816E-02  1.07048E+02 -1.00000E+00  1.22512E-01
      21    -1     0     0   502   501  0.000000000E+00  0.000000000E+00  4.392458320E+02  4.392458320E+02  0.000000000E+00  0.00000E+00  9.000E+00
       2    -1     0     0   501     0  0.000000000E+00  0.000000000E+00 -2.477257500E+03  2.477257500E+03  0.000000000E+00  0.00000E+00  9.000E+00
      25     1     1     2     0     0 -3.258180333E+02  5.855839311E+02 -3.838957156E+02  7.823470148E+02  1.250000000E+02  0.00000E+00  9.000E+00
      25     1     1     2     0     0  3.914193293E+02 -6.701756227E+02 -4.121807045E+02  8.876161275E+02  1.250000000E+02  0.00000E+00  9.000E+00
       2     1     1     2   502     0 -6.560129594E+01  8.459169166E+01 -1.241935248E+03  1.246540189E+03  1.525878906E-05  0.00000E+00  9.000E+00
#rwgt            1           1   2.7510344111086143E-002           9      100049           0
</event>
<event>
      5   9999  3.19816E-02  6.23125E+01 -1.00000E+00  1.33832E-01
      21    -1     0     0   502   501  0.000000000E+00  0.000000000E+00  5.135951363E+02  5.135951363E+02  0.000000000E+00  0.00000E+00  9.000E+00
      21    -1     0     0   501   511  0.000000000E+00  0.000000000E+00 -2.656074062E+02  2.656074062E+02  0.000000000E+00  0.00000E+00  9.000E+00
      25     1     1     2     0     0  1.779254881E+02  1.708855961E+02  7.392933323E+00  2.766568664E+02  1.250000000E+02  0.00000E+00  9.000E+00
      25     1     1     2     0     0 -2.402332437E+02 -1.716555017E+02  2.826029001E+02  4.273956268E+02  1.250000000E+02  0.00000E+00  9.000E+00
      21     1     1     2   502   511  6.230775563E+01  7.699056636E-01 -4.200810330E+01  7.515004930E+01  1.168007728E-06  0.00000E+00  9.000E+00
#rwgt            1           1   2.5843300028609354E-002           9      100139           0
</event>
<event>
      5   9999  3.19816E-02  9.56995E+01 -1.00000E+00  1.24693E-01
      21    -1     0     0   502   501  0.000000000E+00  0.000000000E+00  7.226118566E+02  7.226118566E+02  0.000000000E+00  0.00000E+00  9.000E+00
       1    -1     0     0   501     0  0.000000000E+00  0.000000000E+00 -1.221319632E+03  1.221319632E+03  0.000000000E+00  0.00000E+00  9.000E+00
      25     1     1     2     0     0  4.935448641E+02 -1.650785377E+01 -7.595322773E+02  9.145344840E+02  1.250000000E+02  0.00000E+00  9.000E+00
      25     1     1     2     0     0 -5.117268576E+02 -7.744854772E+01  5.254160642E+02  7.480305441E+02  1.250000000E+02  0.00000E+00  9.000E+00
       1     1     1     2   502     0  1.818199349E+01  9.395640150E+01 -2.645915625E+02  2.813664607E+02  0.000000000E+00  0.00000E+00  9.000E+00
#rwgt            1           1   3.0857320982514803E-002           9      100179           0
</event>
<event>
      5   9999  3.19816E-02  1.91586E+01 -1.00000E+00  1.67924E-01
      21    -1     0     0   502   501  0.000000000E+00  0.000000000E+00  1.550391568E+03  1.550391568E+03  0.000000000E+00  0.00000E+00  9.000E+00
      21    -1     0     0   501   511  0.000000000E+00  0.000000000E+00 -3.407922584E+01  3.407922584E+01  0.000000000E+00  0.00000E+00  9.000E+00
      25     1     1     2     0     0 -1.103337768E+02  1.451425950E+01  1.103098548E+03  1.115722014E+03  1.250000000E+02  0.00000E+00  9.000E+00
      25     1     1     2     0     0  1.241901357E+02 -1.283463004E+00  4.136153913E+02  4.495859529E+02  1.250000000E+02  0.00000E+00  9.000E+00
      21     1     1     2   502   511 -1.385635884E+01 -1.323079650E+01 -4.015971336E-01  1.916282695E+01  6.049669578E-07  0.00000E+00  9.000E+00
#rwgt            1           1   3.1347776322887835E-002           9      100256           0
</event>
<event>
      5   9999  3.19816E-02  1.95026E+02 -1.00000E+00  1.12048E-01
      21    -1     0     0   502   512  0.000000000E+00  0.000000000E+00  2.581273669E+02  2.581273669E+02  0.000000000E+00  0.00000E+00  9.000E+00
      21    -1     0     0   501   502  0.000000000E+00  0.000000000E+00 -1.191758096E+03  1.191758096E+03  0.000000000E+00  0.00000E+00  9.000E+00
      25     1     1     2     0     0 -1.322671761E+02 -2.106742424E+02 -6.371930848E+02  6.953547797E+02  1.250000000E+02  0.00000E+00  9.000E+00
      25     1     1     2     0     0  1.399316323E+02  1.579866445E+01 -4.618779629E+02  4.987852365E+02  1.250000000E+02  0.00000E+00  9.000E+00
      21     1     1     2   501   512 -7.664456200E+00  1.948755780E+02  1.654403183E+02  2.557454470E+02  2.697398305E-06  0.00000E+00  9.000E+00
#rwgt            1           1   3.4668088352063975E-002           9      100393           0
</event>
<event>
      5   9999  3.19816E-02  5.27796E+01 -1.00000E+00  1.37748E-01
       1    -1     0     0   502     0  0.000000000E+00  0.000000000E+00  3.535682072E+03  3.535682072E+03  0.000000000E+00  0.00000E+00  9.000E+00
      21    -1     0     0   501   502  0.000000000E+00  0.000000000E+00 -3.167276397E+01  3.167276397E+01  0.000000000E+00  0.00000E+00  9.000E+00
      25     1     1     2     0     0 -1.186514463E+02 -1.251287506E+02  9.552108838E+02  9.786665431E+02  1.250000000E+02  0.00000E+00  9.000E+00
      25     1     1     2     0     0  1.712813039E+02  1.291014806E+02  7.683912211E+02  8.074989449E+02  1.250000000E+02  0.00000E+00  9.000E+00
       1     1     1     2   501     0 -5.262985759E+01 -3.972729952E+00  1.780407203E+03  1.781189348E+03  2.157918644E-05  0.00000E+00  9.000E+00
#rwgt            1           1   2.6876578531113398E-002           9      100452           0
</event>
<event>
      5   9999  3.19816E-02  1.39637E+02 -1.00000E+00  1.17639E-01
      21    -1     0     0   502   501  0.000000000E+00  0.000000000E+00  6.844713423E+02  6.844713423E+02  0.000000000E+00  0.00000E+00  9.000E+00
      21    -1     0     0   511   502  0.000000000E+00  0.000000000E+00 -8.957364633E+02  8.957364633E+02  0.000000000E+00  0.00000E+00  9.000E+00
      25     1     1     2     0     0  7.243507239E+01 -2.739074605E+02  1.573188299E+02  3.473418358E+02  1.250000000E+02  0.00000E+00  9.000E+00
      25     1     1     2     0     0 -2.067425704E+02  3.121183823E+02  3.336861097E+02  5.168479417E+02  1.250000000E+02  0.00000E+00  9.000E+00
      21     1     1     2   511   501  1.343074980E+02 -3.821092179E+01 -7.022700606E+02  7.160180281E+02  0.000000000E+00  0.00000E+00  9.000E+00
#rwgt            1           1   2.8192786812404787E-002           9      100565           0
</event>
<event>
      5   9999  3.19816E-02  1.19892E+02 -1.00000E+00  1.20385E-01
      21    -1     0     0   502   501  0.000000000E+00  0.000000000E+00  1.209990252E+03  1.209990252E+03  0.000000000E+00  0.00000E+00  9.000E+00
      21    -1     0     0   501   512  0.000000000E+00  0.000000000E+00 -5.243517860E+02  5.243517860E+02  0.000000000E+00  0.00000E+00  9.000E+00
      25     1     1     2     0     0  1.849372555E+02  7.107401772E+02  4.013401542E+02  8.461987399E+02  1.250000000E+02  0.00000E+00  9.000E+00
      25     1     1     2     0     0 -6.781197146E+01 -6.851325655E+02  3.103203144E+02  7.654598574E+02  1.250000000E+02  0.00000E+00  9.000E+00
      21     1     1     2   502   512 -1.171252841E+02 -2.560761166E+01 -2.602200289E+01  1.226834405E+02  6.743495762E-07  0.00000E+00  9.000E+00
#rwgt            1           1   3.0976368173297943E-002           9      100603           0
</event>
<event>
      5   9999  3.19816E-02  4.09112E+01 -1.00000E+00  1.44236E-01
      21    -1     0     0   502   501  0.000000000E+00  0.000000000E+00  1.913169830E+02  1.913169830E+02  0.000000000E+00  0.00000E+00  9.000E+00
       2    -1     0     0   501     0  0.000000000E+00  0.000000000E+00 -1.727602124E+03  1.727602124E+03  0.000000000E+00  0.00000E+00  9.000E+00
      25     1     1     2     0     0  2.116180104E+02  1.735387182E+02  2.645509102E+01  3.020310264E+02  1.250000000E+02  0.00000E+00  9.000E+00
      25     1     1     2     0     0 -2.519027019E+02 -1.664065033E+02 -9.867208426E+02  1.039417682E+03  1.250000000E+02  0.00000E+00  9.000E+00
       2     1     1     2   502     0  4.028469151E+01 -7.132214943E+00 -5.760193896E+02  5.774703993E+02  0.000000000E+00  0.00000E+00  9.000E+00
#rwgt            1           1   2.5629597900023803E-002           9      100701           0
</event>
<event>
      5   9999  3.19816E-02  7.63915E+02 -1.00000E+00  9.38895E-02
       1    -1     0     0   502     0  0.000000000E+00  0.000000000E+00  1.104254215E+03  1.104254215E+03  0.000000000E+00  0.00000E+00  9.000E+00
      21    -1     0     0   501   502  0.000000000E+00  0.000000000E+00 -9.092753141E+02  9.092753141E+02  0.000000000E+00  0.00000E+00  9.000E+00
      25     1     1     2     0     0  1.259435521E+02 -4.967235993E+01  5.178747945E+01  1.914054981E+02  1.250000000E+02  0.00000E+00  9.000E+00
      25     1     1     2     0     0  5.812056067E+02 -2.393025892E+02 -5.084319501E+02  8.180426238E+02  1.250000000E+02  0.00000E+00  9.000E+00
       1     1     1     2   501     0 -7.071491588E+02  2.889749491E+02  6.516233713E+02  1.004081407E+03  1.868812365E-05  0.00000E+00  9.000E+00
#rwgt            2          17   9.5949590946544359E-004           9      100891           0
</event>
<event>
      5   9999  3.19816E-02  6.42996E+01 -1.00000E+00  1.33117E-01
      21    -1     0     0   511   501  0.000000000E+00  0.000000000E+00  1.354201034E+02  1.354201034E+02  0.000000000E+00  0.00000E+00  9.000E+00
      21    -1     0     0   501   502  0.000000000E+00  0.000000000E+00 -2.071621186E+03  2.071621186E+03  0.000000000E+00  0.00000E+00  9.000E+00
      25     1     1     2     0     0  7.298680802E+00 -3.512866575E+02 -1.620222052E+03  1.662588369E+03  1.250000000E+02  0.00000E+00  9.000E+00
      25     1     1     2     0     0 -7.120898277E+01  3.442220387E+02 -2.344767099E+02  4.406402826E+02  1.250000000E+02  0.00000E+00  9.000E+00
      21     1     1     2   511   502  6.391030197E+01  7.064618810E+00 -8.150232103E+01  1.038126383E+02  1.651812370E-06  0.00000E+00  9.000E+00
#rwgt            1           1   2.6842503934868561E-002           9      100910           0
</event>
<event>
      5   9999  3.19816E-02  5.09278E+01 -1.00000E+00  1.38621E-01
      21    -1     0     0   502   501  0.000000000E+00  0.000000000E+00  5.442991383E+02  5.442991383E+02  0.000000000E+00  0.00000E+00  9.000E+00
      21    -1     0     0   501   512  0.000000000E+00  0.000000000E+00 -1.264736464E+03  1.264736464E+03  0.000000000E+00  0.00000E+00  9.000E+00
      25     1     1     2     0     0 -6.495090545E+02  5.326413897E+01  1.446381573E+02  6.791496719E+02  1.250000000E+02  0.00000E+00  9.000E+00
      25     1     1     2     0     0  6.545949141E+02 -2.590874701E+00 -7.456795490E+02  1.000082099E+03  1.250000000E+02  0.00000E+00  9.000E+00
      21     1     1     2   502   512 -5.085859652E+00 -5.067326427E+01 -1.193959335E+02  1.298038313E+02  1.348699152E-06  0.00000E+00  9.000E+00
#rwgt            1           1   2.1398325962572563E-002           9      101031           0
</event>
<event>
      5   9999  3.19816E-02  6.24004E+01 -1.00000E+00  1.33799E-01
      21    -1     0     0   502   501  0.000000000E+00  0.000000000E+00  8.697670255E+02  8.697670255E+02  0.000000000E+00  0.00000E+00  9.000E+00
      21    -1     0     0   501   511  0.000000000E+00  0.000000000E+00 -8.290777483E+01  8.290777483E+01  0.000000000E+00  0.00000E+00  9.000E+00
      25     1     1     2     0     0 -1.459845242E+02 -4.618982041E+00  6.109986478E+02  6.405288158E+02  1.250000000E+02  0.00000E+00  9.000E+00
      25     1     1     2     0     0  9.805285997E+01  4.457348319E+01  1.863145290E+02  2.488759982E+02  1.250000000E+02  0.00000E+00  9.000E+00
      21     1     1     2   502   511  4.793166420E+01 -3.995450115E+01 -1.045392615E+01  6.326998631E+01  7.907449699E-07  0.00000E+00  9.000E+00
#rwgt            1           1   3.1087646229960120E-002           9      101147           0
</event>
<event>
      5   9999  3.19816E-02  4.59095E+02 -1.00000E+00  9.99166E-02
      21    -1     0     0   502   501  0.000000000E+00  0.000000000E+00  3.752766162E+02  3.752766162E+02  0.000000000E+00  0.00000E+00  9.000E+00
       1    -1     0     0   501     0  0.000000000E+00  0.000000000E+00 -7.138444713E+02  7.138444713E+02  0.000000000E+00  0.00000E+00  9.000E+00
      25     1     1     2     0     0 -1.042539993E+02 -5.118091987E+01 -1.800284304E+02  2.480395506E+02  1.250000000E+02  0.00000E+00  9.000E+00
      25     1     1     2     0     0 -3.182739845E+02 -1.283705774E+02 -4.375624702E+01  3.678545140E+02  1.250000000E+02  0.00000E+00  9.000E+00
       1     1     1     2   502     0  4.225279838E+02  1.795514972E+02 -1.147831776E+02  4.732270228E+02  5.878843310E-06  0.00000E+00  9.000E+00
#rwgt            2          12   3.3531181261063099E-004           9      101297           0
</event>
<event>
      5   9999  3.19816E-02  2.83121E+01 -1.00000E+00  1.54807E-01
      21    -1     0     0   502   501  0.000000000E+00  0.000000000E+00  7.313849251E+02  7.313849251E+02  0.000000000E+00  0.00000E+00  9.000E+00
      21    -1     0     0   501   511  0.000000000E+00  0.000000000E+00 -2.574241125E+02  2.574241125E+02  0.000000000E+00  0.00000E+00  9.000E+00
      25     1     1     2     0     0 -2.281899060E+02 -2.777628335E+02  7.728857571E+01  3.883572438E+02  1.250000000E+02  0.00000E+00  9.000E+00
      25     1     1     2     0     0  2.553256395E+02  2.696865308E+02  4.117243611E+02  5.683871538E+02  1.250000000E+02  0.00000E+00  9.000E+00
      21     1     1     2   502   511 -2.713573345E+01  8.076302696E+00 -1.505212421E+01  3.206464001E+01  4.460403188E-07  0.00000E+00  9.000E+00
#rwgt            1           1   2.6505928108787005E-002           9      101316           0
</event>
<event>
      5   9999  3.19816E-02  6.44267E+01 -1.00000E+00  1.33072E-01
      21    -1     0     0   502   501  0.000000000E+00  0.000000000E+00  4.705823976E+02  4.705823976E+02  0.000000000E+00  0.00000E+00  9.000E+00
      21    -1     0     0   501   512  0.000000000E+00  0.000000000E+00 -1.956153627E+02  1.956153627E+02  0.000000000E+00  0.00000E+00  9.000E+00
      25     1     1     2     0     0 -1.173687749E+01  2.053820404E+02  1.493255021E+02  2.832713229E+02  1.250000000E+02  0.00000E+00  9.000E+00
      25     1     1     2     0     0  3.086875593E+01 -2.669025594E+02  1.137153764E+02  3.174051719E+02  1.250000000E+02  0.00000E+00  9.000E+00
      21     1     1     2   502   512 -1.913187844E+01  6.152051904E+01  1.192615650E+01  6.552126558E+01  1.440411326E-06  0.00000E+00  9.000E+00
#rwgt            1           1   2.9247281876004404E-002           9      101456           0
</event>
<event>
      5   9999  3.19816E-02  3.30294E+01 -1.00000E+00  1.50194E-01
      21    -1     0     0   511   501  0.000000000E+00  0.000000000E+00  4.725669500E+02  4.725669500E+02  0.000000000E+00  0.00000E+00  9.000E+00
      21    -1     0     0   501   502  0.000000000E+00  0.000000000E+00 -4.303118245E+02  4.303118245E+02  0.000000000E+00  0.00000E+00  9.000E+00
      25     1     1     2     0     0 -1.629510787E+02  2.069006263E+02  2.739903324E+02  4.000707755E+02  1.250000000E+02  0.00000E+00  9.000E+00
      25     1     1     2     0     0  1.957489679E+02 -2.108046406E+02 -2.955416348E+02  4.309595257E+02  1.250000000E+02  0.00000E+00  9.000E+00
      21     1     1     2   511   502 -3.279788925E+01  3.904014321E+00  6.380642788E+01  7.184847323E+01  0.000000000E+00  0.00000E+00  9.000E+00
#rwgt            1           1   2.8925654085404248E-002           9      101496           0
</event>
<event>
      5   9999  3.19816E-02  4.62025E+01 -1.00000E+00  1.41062E-01
      21    -1     0     0   502   512  0.000000000E+00  0.000000000E+00  8.523299046E+02  8.523299046E+02  0.000000000E+00  0.00000E+00  9.000E+00
      21    -1     0     0   501   502  0.000000000E+00  0.000000000E+00 -4.336471472E+02  4.336471472E+02  0.000000000E+00  0.00000E+00  9.000E+00
      25     1     1     2     0     0 -5.229978974E+02 -1.031997365E+02  1.244711351E+02  5.615113977E+02  1.250000000E+02  0.00000E+00  9.000E+00
      25     1     1     2     0     0  4.774562094E+02  9.541377660E+01  8.451704753E+01  5.097414560E+02  1.250000000E+02  0.00000E+00  9.000E+00
      21     1     1     2   501   512  4.554168802E+01  7.785959891E+00  2.096945748E+02  2.147241980E+02  2.697398305E-06  0.00000E+00  9.000E+00
#rwgt            1           1   3.0278853221965336E-002           9      101604           0
</event>
<event>
      5   9999  3.19816E-02  1.30115E+02 -1.00000E+00  1.18895E-01
       2    -1     0     0   502     0  0.000000000E+00  0.000000000E+00  1.174408406E+02  1.174408406E+02  0.000000000E+00  0.00000E+00  9.000E+00
      21    -1     0     0   501   502  0.000000000E+00  0.000000000E+00 -1.327037462E+03  1.327037462E+03  0.000000000E+00  0.00000E+00  9.000E+00
      25     1     1     2     0     0  1.113392952E+02  1.095566385E+02 -1.069570226E+03  1.088119738E+03  1.250000000E+02  0.00000E+00  9.000E+00
      25     1     1     2     0     0 -5.581891299E+01  8.117886151E+00 -1.743229725E+02  2.217997968E+02  1.250000000E+02  0.00000E+00  9.000E+00
       2     1     1     2   501     0 -5.552038220E+01 -1.176745246E+02  3.429657777E+01  1.345587672E+02  1.066240300E-06  0.00000E+00  9.000E+00
#rwgt            1           1   2.9623796754386648E-002           9      101688           0
</event>
<event>
      5   9999  3.19816E-02  8.36181E+01 -1.00000E+00  1.27427E-01
      21    -1     0     0   511   501  0.000000000E+00  0.000000000E+00  9.023748536E+02  9.023748536E+02  0.000000000E+00  0.00000E+00  9.000E+00
      21    -1     0     0   501   502  0.000000000E+00  0.000000000E+00 -5.705224423E+01  5.705224423E+01  0.000000000E+00  0.00000E+00  9.000E+00
      25     1     1     2     0     0  4.174925265E+01  8.959306315E+01  5.062476607E+02  5.307368567E+02  1.250000000E+02  0.00000E+00  9.000E+00
      25     1     1     2     0     0  3.980327064E+01 -1.080639656E+02  1.717236862E+02  2.416115590E+02  1.250000000E+02  0.00000E+00  9.000E+00
      21     1     1     2   511   502 -8.155252330E+01  1.847090245E+01  1.673512625E+02  1.870786823E+02  0.000000000E+00  0.00000E+00  9.000E+00
#rwgt            1           1   2.5663855676723100E-002           9      101755           0
</event>
<event>
      5   9999  3.19816E-02  1.69488E+02 -1.00000E+00  1.14329E-01
      21    -1     0     0   502   501  0.000000000E+00  0.000000000E+00  1.410736444E+03  1.410736444E+03  0.000000000E+00  0.00000E+00  9.000E+00
      21    -1     0     0   512   502  0.000000000E+00  0.000000000E+00 -1.575721318E+03  1.575721318E+03  0.000000000E+00  0.00000E+00  9.000E+00
      25     1     1     2     0     0 -7.497303312E+02  6.335095073E+02 -2.793006432E+02  1.028136039E+03  1.250000000E+02  0.00000E+00  9.000E+00
      25     1     1     2     0     0  8.959737017E+02 -7.191782481E+02  6.982781775E+02  1.350260582E+03  1.250000000E+02  0.00000E+00  9.000E+00
      21     1     1     2   512   501 -1.462433704E+02  8.566874072E+01 -5.839624083E+02  6.080611407E+02  7.629394531E-06  0.00000E+00  9.000E+00
#rwgt            1           1   6.6961697156811828E-002           9      101803           0
</event>
<event>
      5   9999  3.19816E-02  7.34878E+01 -1.00000E+00  1.30160E-01
      21    -1     0     0   502   501  0.000000000E+00  0.000000000E+00  9.412026767E+02  9.412026767E+02  0.000000000E+00  0.00000E+00  9.000E+00
      21    -1     0     0   511   502  0.000000000E+00  0.000000000E+00 -3.797911583E+02  3.797911583E+02  0.000000000E+00  0.00000E+00  9.000E+00
      25     1     1     2     0     0  4.405650157E+01  4.951287061E+01 -1.581338053E+02  2.121881243E+02  1.250000000E+02  0.00000E+00  9.000E+00
      25     1     1     2     0     0 -1.070551245E+02 -1.167603024E+01  8.994568722E+02  9.144642116E+02  1.250000000E+02  0.00000E+00  9.000E+00
      21     1     1     2   511   501  6.299862297E+01 -3.783684037E+01 -1.799115485E+02  1.943414991E+02  3.303624740E-06  0.00000E+00  9.000E+00
#rwgt            1           1   2.8063614341114176E-002           9      101895           0
</event>
<event>
      5   9999  3.19816E-02  1.71096E+01 -1.00000E+00  1.72164E-01
      21    -1     0     0   502   501  0.000000000E+00  0.000000000E+00  3.831142874E+02  3.831142874E+02  0.000000000E+00  0.00000E+00  9.000E+00
      21    -1     0     0   501   512  0.000000000E+00  0.000000000E+00 -2.632951542E+02  2.632951542E+02  0.000000000E+00  0.00000E+00  9.000E+00
      25     1     1     2     0     0 -1.202752701E+02 -1.258058947E+02  2.497240512E+02  3.290598205E+02  1.250000000E+02  0.00000E+00  9.000E+00
      25     1     1     2     0     0  1.156945468E+02  1.093209092E+02 -1.694034404E+01  2.030966878E+02  1.250000000E+02  0.00000E+00  9.000E+00
      21     1     1     2   502   512  4.580723254E+00  1.648498552E+01 -1.129645740E+02  1.142529332E+02  1.348699152E-06  0.00000E+00  9.000E+00
#rwgt            1           1   2.6249861052076284E-002           9      101989           0
</event>
<event>
      5   9999  3.19816E-02  1.63305E+02 -1.00000E+00  1.14949E-01
      21    -1     0     0   502   501  0.000000000E+00  0.000000000E+00  1.573730990E+02  1.573730990E+02  0.000000000E+00  0.00000E+00  9.000E+00
      21    -1     0     0   511   502  0.000000000E+00  0.000000000E+00 -5.203075613E+02  5.203075613E+02  0.000000000E+00  0.00000E+00  9.000E+00
      25     1     1     2     0     0 -1.202965224E+02 -5.745701074E+01 -1.267284642E+02  2.223907935E+02  1.250000000E+02  0.00000E+00  9.000E+00
      25     1     1     2     0     0 -8.714209142E+00  1.575806050E+02 -4.965735742E+01  2.073606463E+02  1.250000000E+02  0.00000E+00  9.000E+00
      21     1     1     2   511   501  1.290107316E+02 -1.001235942E+02 -1.865486407E+02  2.479292204E+02  0.000000000E+00  0.00000E+00  9.000E+00
#rwgt            1           1   3.0592231502295255E-002           9      102121           0
</event>
<event>
      5   9999  3.19816E-02  9.65892E+02 -1.00000E+00  9.13544E-02
      21    -1     0     0   502   501  0.000000000E+00  0.000000000E+00  8.135986740E+02  8.135986740E+02  0.000000000E+00  0.00000E+00  9.000E+00
       1    -1     0     0   501     0  0.000000000E+00  0.000000000E+00 -3.516207377E+03  3.516207377E+03  0.000000000E+00  0.00000E+00  9.000E+00
      25     1     1     2     0     0 -1.055779801E+02 -2.173601012E+02  7.666755414E+01  2.826571020E+02  1.250000000E+02  0.00000E+00  9.000E+00
      25     1     1     2     0     0 -7.631406967E+02 -2.048653517E+02 -2.958516601E+03  3.064767367E+03  1.250000000E+02  0.00000E+00  9.000E+00
       1     1     1     2   502     0  8.687186768E+02  4.222254529E+02  1.792403436E+02  9.823815823E+02  1.972976767E-05  0.00000E+00  9.000E+00
#rwgt            2          12   4.4707390994997781E-004           9      102178           0
</event>
<event>
      5   9999  3.19816E-02  2.75177E+01 -1.00000E+00  1.55692E-01
      21    -1     0     0   502   511  0.000000000E+00  0.000000000E+00  6.102619738E+01  6.102619738E+01  0.000000000E+00  0.00000E+00  9.000E+00
      21    -1     0     0   501   502  0.000000000E+00  0.000000000E+00 -9.154685472E+02  9.154685472E+02  0.000000000E+00  0.00000E+00  9.000E+00
      25     1     1     2     0     0 -1.113200419E+02 -7.009778100E+01 -6.541377515E+02  6.788424328E+02  1.250000000E+02  0.00000E+00  9.000E+00
      25     1     1     2     0     0  1.012447337E+02  9.570461593E+01 -1.936868468E+02  2.693500775E+02  1.250000000E+02  0.00000E+00  9.000E+00
      21     1     1     2   501   511  1.007530820E+01 -2.560683493E+01 -6.617751520E+00  2.830223428E+01  3.264680848E-07  0.00000E+00  9.000E+00
#rwgt            1           1   3.2337050286190522E-002           9      102212           0
</event>
<event>
      5   9999  3.19816E-02  3.25874E+02 -1.00000E+00  1.04438E-01
      21    -1     0     0   502   501  0.000000000E+00  0.000000000E+00  8.875485846E+02  8.875485846E+02  0.000000000E+00  0.00000E+00  9.000E+00
      21    -1     0     0   501   512  0.000000000E+00  0.000000000E+00 -3.626895485E+02  3.626895485E+02  0.000000000E+00  0.00000E+00  9.000E+00
      25     1     1     2     0     0 -6.577431738E+01  2.310736158E+02  6.267621985E+02  6.827716531E+02  1.250000000E+02  0.00000E+00  9.000E+00
      25     1     1     2     0     0  1.781425522E+02  7.481418633E+01 -1.720943231E+01  2.307663232E+02  1.250000000E+02  0.00000E+00  9.000E+00
      21     1     1     2   502   512 -1.123682348E+02 -3.058878021E+02 -8.469373011E+01  3.367001568E+02  5.394796609E-06  0.00000E+00  9.000E+00
#rwgt            2          11   4.0312134705426279E-003           9      102378           0
</event>
<event>
      5   9999  3.19816E-02  3.40035E+01 -1.00000E+00  1.49355E-01
      21    -1     0     0   502   501  0.000000000E+00  0.000000000E+00  1.179709776E+03  1.179709776E+03  0.000000000E+00  0.00000E+00  9.000E+00
      21    -1     0     0   511   502  0.000000000E+00  0.000000000E+00 -1.694140304E+03  1.694140304E+03  0.000000000E+00  0.00000E+00  9.000E+00
      25     1     1     2     0     0  2.506067472E+02  5.807807304E+02  1.019003636E+03  1.205862101E+03  1.250000000E+02  0.00000E+00  9.000E+00
      25     1     1     2     0     0 -2.541406662E+02 -5.469613653E+02 -1.493580166E+03  1.615599247E+03  1.250000000E+02  0.00000E+00  9.000E+00
      21     1     1     2   511   501  3.533918985E+00 -3.381936519E+01 -3.985399767E+01  5.238873138E+01  8.259061849E-07  0.00000E+00  9.000E+00
#rwgt            1           1   4.7200729515524682E-002           9      102398           0
</event>
<event>
      5   9999  3.19816E-02  6.43589E+01 -1.00000E+00  1.33096E-01
      21    -1     0     0   502   501  0.000000000E+00  0.000000000E+00  3.331790894E+02  3.331790894E+02  0.000000000E+00  0.00000E+00  9.000E+00
      21    -1     0     0   512   502  0.000000000E+00  0.000000000E+00 -2.520280742E+02  2.520280742E+02  0.000000000E+00  0.00000E+00  9.000E+00
      25     1     1     2     0     0 -1.491370578E+02 -5.604570418E+01 -1.212681067E+02  2.360379983E+02  1.250000000E+02  0.00000E+00  9.000E+00
      25     1     1     2     0     0  1.407529089E+02 -7.764798086E+00  2.125342172E+02  2.840201876E+02  1.250000000E+02  0.00000E+00  9.000E+00
      21     1     1     2   512   501  8.384148819E+00  6.381050226E+01 -1.011509536E+01  6.514897777E+01  1.072883606E-06  0.00000E+00  9.000E+00
#rwgt            1           1   2.6287633447769024E-002           9      102632           0
</event>
<event>
      5   9999  3.19816E-02  2.87236E+01 -1.00000E+00  1.54363E-01
      21    -1     0     0   502   501  0.000000000E+00  0.000000000E+00  1.245741684E+03  1.245741684E+03  0.000000000E+00  0.00000E+00  9.000E+00
      21    -1     0     0   501   511  0.000000000E+00  0.000000000E+00 -1.025056311E+02  1.025056311E+02  0.000000000E+00  0.00000E+00  9.000E+00
      25     1     1     2     0     0  8.819651897E+00 -2.125041996E+02  8.114185405E+02  8.480924884E+02  1.250000000E+02  0.00000E+00  9.000E+00
      25     1     1     2     0     0 -1.950363968E+01  2.391668513E+02  3.662263912E+02  4.553327841E+02  1.250000000E+02  0.00000E+00  9.000E+00
      21     1     1     2   502   511  1.068398778E+01 -2.666265172E+01 -3.440887854E+01  4.482204272E+01  1.581489940E-06  0.00000E+00  9.000E+00
#rwgt            1           1   1.9875467045635753E-002           9      102705           0
</event>
<event>
      5   9999  3.19816E-02  1.85890E+02 -1.00000E+00  1.12817E-01
      21    -1     0     0   502   501  0.000000000E+00  0.000000000E+00  1.257476755E+03  1.257476755E+03  0.000000000E+00  0.00000E+00  9.000E+00
      21    -1     0     0   512   502  0.000000000E+00  0.000000000E+00 -3.317335816E+02  3.317335816E+02  0.000000000E+00  0.00000E+00  9.000E+00
      25     1     1     2     0     0  2.745402065E+02 -4.337153403E+02  6.911208100E+02  8.699162577E+02  1.250000000E+02  0.00000E+00  9.000E+00
      25     1     1     2     0     0 -8.920203524E+01  4.194010614E+02  2.810407133E+02  5.276960639E+02  1.250000000E+02  0.00000E+00  9.000E+00
      21     1     1     2   512   501 -1.853381712E+02  1.431427893E+01 -4.641834944E+01  1.915980153E+02  3.303624740E-06  0.00000E+00  9.000E+00
#rwgt            2          11   4.7384159358758787E-003           9      102882           0
</event>
<event>
      5   9999  3.19816E-02  1.36280E+02 -1.00000E+00  1.18069E-01
      21    -1     0     0   502   501  0.000000000E+00  0.000000000E+00  2.259142481E+03  2.259142481E+03  0.000000000E+00  0.00000E+00  9.000E+00
      21    -1     0     0   511   502  0.000000000E+00  0.000000000E+00 -1.642936646E+02  1.642936646E+02  0.000000000E+00  0.00000E+00  9.000E+00
      25     1     1     2     0     0 -5.579225343E+01  1.800607150E+02  1.091847367E+03  1.115029286E+03  1.250000000E+02  0.00000E+00  9.000E+00
      25     1     1     2     0     0  1.864816163E+02 -1.414283662E+02  1.106127268E+03  1.137506004E+03  1.250000000E+02  0.00000E+00  9.000E+00
      21     1     1     2   511   501 -1.306893629E+02 -3.863234882E+01 -1.031258185E+02  1.709008555E+02  5.878843310E-06  0.00000E+00  9.000E+00
#rwgt            1           1   6.7479103740590518E-002           9      103022           0
</event>
<event>
      5   9999  3.19816E-02  1.20885E+02 -1.00000E+00  1.20233E-01
      21    -1     0     0   512   501  0.000000000E+00  0.000000000E+00  1.703130882E+02  1.703130882E+02  0.000000000E+00  0.00000E+00  9.000E+00
      21    -1     0     0   501   502  0.000000000E+00  0.000000000E+00 -7.080100899E+02  7.080100899E+02  0.000000000E+00  0.00000E+00  9.000E+00
      25     1     1     2     0     0  5.391175311E+00  1.841598274E+02 -2.197974014E+02  3.128574827E+02  1.250000000E+02  0.00000E+00  9.000E+00
      25     1     1     2     0     0 -6.348311415E+01 -2.901719570E+02 -3.053134538E+02  4.439269934E+02  1.250000000E+02  0.00000E+00  9.000E+00
      21     1     1     2   512   502  5.809193883E+01  1.060121297E+02 -1.258614648E+01  1.215387020E+02  2.856051576E-06  0.00000E+00  9.000E+00
#rwgt            1           1   2.8094183733815677E-002           9      103089           0
</event>
<event>
      5   9999  3.19816E-02  3.64481E+01 -1.00000E+00  1.47390E-01
      21    -1     0     0   511   501  0.000000000E+00  0.000000000E+00  2.083888328E+02  2.083888328E+02  0.000000000E+00  0.00000E+00  9.000E+00
      21    -1     0     0   501   502  0.000000000E+00  0.000000000E+00 -5.576176150E+02  5.576176150E+02  0.000000000E+00  0.00000E+00  9.000E+00
      25     1     1     2     0     0 -7.867574456E+01  7.325974595E+01  1.435676167E+02  2.186172997E+02  1.250000000E+02  0.00000E+00  9.000E+00
      25     1     1     2     0     0  4.235167560E+01 -7.025503628E+01 -4.882848804E+02  5.106628623E+02  1.250000000E+02  0.00000E+00  9.000E+00
      21     1     1     2   511   502  3.632406896E+01 -3.004709675E+00 -4.511518439E+00  3.672628574E+01  5.230286352E-07  0.00000E+00  9.000E+00
#rwgt            1           1   2.9194781747926189E-002           9      103147           0
</event>
<event>
      5   9999  3.19816E-02  3.88918E+01 -1.00000E+00  1.45601E-01
      21    -1     0     0   502   501  0.000000000E+00  0.000000000E+00  8.662924953E+02  8.662924953E+02  0.000000000E+00  0.00000E+00  9.000E+00
      21    -1     0     0   512   502  0.000000000E+00  0.000000000E+00 -1.006694132E+03  1.006694132E+03  0.000000000E+00  0.00000E+00  9.000E+00
      25     1     1     2     0     0 -3.790353260E+02 -7.521588050E+02  1.901735220E+02  8.724686898E+02  1.250000000E+02  0.00000E+00  9.000E+00
      25     1     1     2     0     0  4.121547915E+02  7.317707639E+02 -2.112184832E+02  8.749847260E+02  1.250000000E+02  0.00000E+00  9.000E+00
      21     1     1     2   512   501 -3.311946554E+01  2.038804112E+01 -1.193566757E+02  1.255332117E+02  1.348699152E-06  0.00000E+00  9.000E+00
#rwgt            1           1   3.2273464971273473E-002           9      103306           0
</event>
<event>
      5   9999  3.19816E-02  2.65829E+01 -1.00000E+00  1.56779E-01
      21    -1     0     0   502   501  0.000000000E+00  0.000000000E+00  2.832553639E+02  2.832553639E+02  0.000000000E+00  0.00000E+00  9.000E+00
      21    -1     0     0   511   502  0.000000000E+00  0.000000000E+00 -1.378955408E+03  1.378955408E+03  0.000000000E+00  0.00000E+00  9.000E+00
      25     1     1     2     0     0 -3.622442206E+02  5.839205176E+01  7.588043621E+01  3.949852500E+02  1.250000000E+02  0.00000E+00  9.000E+00
      25     1     1     2     0     0  3.446399265E+02 -7.831036906E+01 -6.929211704E+02  7.878286243E+02  1.250000000E+02  0.00000E+00  9.000E+00
      21     1     1     2   511   501  1.760429408E+01  1.991831730E+01 -4.786593094E+02  4.793968972E+02  5.394796609E-06  0.00000E+00  9.000E+00
#rwgt            1           1   3.0001718643681979E-002           9      103541           0
</event>
<event>
      5   9999  3.19816E-02  5.54648E+01 -1.00000E+00  1.36553E-01
      21    -1     0     0   512   501  0.000000000E+00  0.000000000E+00  4.983228276E+02  4.983228276E+02  0.000000000E+00  0.00000E+00  9.000E+00
      21    -1     0     0   501   502  0.000000000E+00  0.000000000E+00 -2.810112098E+02  2.810112098E+02  0.000000000E+00  0.00000E+00  9.000E+00
      25     1     1     2     0     0  8.480643808E+01 -3.158955540E+02 -4.676804199E+00  3.501842451E+02  1.250000000E+02  0.00000E+00  9.000E+00
      25     1     1     2     0     0 -5.230152613E+01  2.709536159E+02  1.493588554E+02  3.377637922E+02  1.250000000E+02  0.00000E+00  9.000E+00
      21     1     1     2   512   502 -3.250491195E+01  4.494193812E+01  7.262956648E+01  9.138600019E+01  0.000000000E+00  0.00000E+00  9.000E+00
#rwgt            1           1   2.7337149001007099E-002           9      103734           0
</event>
<event>
      5   9999  3.19816E-02  6.25246E+01 -1.00000E+00  1.33754E-01
      21    -1     0     0   502   511  0.000000000E+00  0.000000000E+00  1.412275060E+02  1.412275060E+02  0.000000000E+00  0.00000E+00  9.000E+00
      21    -1     0     0   501   502  0.000000000E+00  0.000000000E+00 -5.456387121E+02  5.456387121E+02  0.000000000E+00  0.00000E+00  9.000E+00
      25     1     1     2     0     0  1.740174117E+02 -5.917630901E+00 -2.236544486E+02  3.097795834E+02  1.250000000E+02  0.00000E+00  9.000E+00
      25     1     1     2     0     0 -2.360288327E+02  1.391180887E+01 -1.574936004E+02  3.103745841E+02  1.250000000E+02  0.00000E+00  9.000E+00
      21     1     1     2   501   511  6.201142097E+01 -7.994177965E+00 -2.326315712E+01  6.671205057E+01  6.743495762E-07  0.00000E+00  9.000E+00
#rwgt            1           1   2.4049824706968106E-002           9      103849           0
</event>
<event>
      5   9999  3.19816E-02  2.38606E+01 -1.00000E+00  1.60283E-01
      21    -1     0     0   512   501  0.000000000E+00  0.000000000E+00  1.024460686E+03  1.024460686E+03  0.000000000E+00  0.00000E+00  9.000E+00
      21    -1     0     0   501   502  0.000000000E+00  0.000000000E+00 -7.069402986E+02  7.069402986E+02  0.000000000E+00  0.00000E+00  9.000E+00
      25     1     1     2     0     0 -1.320841527E+02  8.143262866E+02  1.171574106E+02  8.425701059E+02  1.250000000E+02  0.00000E+00  9.000E+00
      25     1     1     2     0     0  1.135089122E+02 -7.993499492E+02  1.466351730E+02  8.300430642E+02  1.250000000E+02  0.00000E+00  9.000E+00
      21     1     1     2   512   502  1.857524053E+01 -1.497633744E+01  5.372780422E+01  5.878781498E+01  6.743495762E-07  0.00000E+00  9.000E+00
#rwgt            1           1   3.0150700249692797E-002           9      103959           0
</event>
<event>
      5   9999  3.19816E-02  6.98370E+01 -1.00000E+00  1.31272E-01
      21    -1     0     0   502   501  0.000000000E+00  0.000000000E+00  3.601962939E+01  3.601962939E+01  0.000000000E+00  0.00000E+00  9.000E+00
      21    -1     0     0   511   502  0.000000000E+00  0.000000000E+00 -4.243926408E+03  4.243926408E+03  0.000000000E+00  0.00000E+00  9.000E+00
      25     1     1     2     0     0  3.008847729E+02  4.199391091E+01 -1.713938156E+03  1.745137284E+03  1.250000000E+02  0.00000E+00  9.000E+00
      25     1     1     2     0     0 -3.135504972E+02 -1.106727901E+02 -1.642151758E+03  1.680133857E+03  1.250000000E+02  0.00000E+00  9.000E+00
      21     1     1     2   511   501  1.266572423E+01  6.867887918E+01 -8.518168643E+02  8.546748968E+02  1.078959322E-05  0.00000E+00  9.000E+00
#rwgt            2          11   1.9451525857130616E-004           9      104188           0
</event>
<event>
      5   9999  3.19816E-02  6.79459E+01 -1.00000E+00  1.31879E-01
      21    -1     0     0   502   501  0.000000000E+00  0.000000000E+00  2.270198692E+02  2.270198692E+02  0.000000000E+00  0.00000E+00  9.000E+00
      21    -1     0     0   501   512  0.000000000E+00  0.000000000E+00 -1.542813956E+03  1.542813956E+03  0.000000000E+00  0.00000E+00  9.000E+00
      25     1     1     2     0     0 -1.097945759E+02 -2.104458048E+02 -9.464708548E+02  9.837552361E+02  1.250000000E+02  0.00000E+00  9.000E+00
      25     1     1     2     0     0  1.662428623E+02  2.482643229E+02  7.839773141E+01  3.332312524E+02  1.250000000E+02  0.00000E+00  9.000E+00
      21     1     1     2   502   512 -5.644828639E+01 -3.781851809E+01 -4.477209629E+02  4.528473363E+02  0.000000000E+00  0.00000E+00  9.000E+00
#rwgt            1           1   2.8711125057059701E-002           9      104223           0
</event>
<event>
      5   9999  3.19816E-02  7.74336E+01 -1.00000E+00  1.29039E-01
      21    -1     0     0   502   511  0.000000000E+00  0.000000000E+00  1.050330062E+03  1.050330062E+03  0.000000000E+00  0.00000E+00  9.000E+00
      21    -1     0     0   501   502  0.000000000E+00  0.000000000E+00 -8.453233345E+02  8.453233345E+02  0.000000000E+00  0.00000E+00  9.000E+00
      25     1     1     2     0     0 -2.489533676E+02 -2.107720332E+02  5.101615685E+02  6.182980310E+02  1.250000000E+02  0.00000E+00  9.000E+00
      25     1     1     2     0     0  1.910822440E+02  2.622200276E+02 -7.495471092E+02  8.262672907E+02  1.250000000E+02  0.00000E+00  9.000E+00
      21     1     1     2   501   511  5.787112359E+01 -5.144799437E+01  4.443922681E+02  4.510880745E+02  5.394796609E-06  0.00000E+00  9.000E+00
#rwgt            1           1   3.0744225774044804E-002           9      104320           0
</event>
<event>
      5   9999  3.19816E-02  5.96019E+01 -1.00000E+00  1.34858E-01
      21    -1     0     0   502   512  0.000000000E+00  0.000000000E+00  1.864681498E+03  1.864681498E+03  0.000000000E+00  0.00000E+00  9.000E+00
      21    -1     0     0   501   502  0.000000000E+00  0.000000000E+00 -1.362822276E+02  1.362822276E+02  0.000000000E+00  0.00000E+00  9.000E+00
      25     1     1     2     0     0 -1.675506121E+02 -3.767583048E+02  6.091867780E+02  7.461592044E+02  1.250000000E+02  0.00000E+00  9.000E+00
      25     1     1     2     0     0  1.211967423E+02  3.392922513E+02  4.810961672E+02  6.139107462E+02  1.250000000E+02  0.00000E+00  9.000E+00
      21     1     1     2   501   512  4.635386981E+01  3.746605348E+01  6.381163248E+02  6.408937746E+02  7.629394531E-06  0.00000E+00  9.000E+00
#rwgt            1           1   2.9228489382435389E-002           9      104389           0
</event>
<event>
      5   9999  3.19816E-02  7.75400E+02 -1.00000E+00  9.37240E-02
      21    -1     0     0   502   501  0.000000000E+00  0.000000000E+00  5.488369527E+02  5.488369527E+02  0.000000000E+00  0.00000E+00  9.000E+00
       2    -1     0     0   501     0  0.000000000E+00  0.000000000E+00 -1.365727652E+03  1.365727652E+03  0.000000000E+00  0.00000E+00  9.000E+00
      25     1     1     2     0     0 -4.647849892E+02  1.405584488E+02 -1.379049298E+02  5.200235892E+02  1.250000000E+02  0.00000E+00  9.000E+00
      25     1     1     2     0     0 -8.065606068E+01  4.105671035E+02 -1.791895227E+02  4.720218550E+02  1.250000000E+02  0.00000E+00  9.000E+00
       2     1     1     2   502     0  5.454410499E+02 -5.511255523E+02 -4.997962469E+02  9.225191606E+02  1.427329020E-05  0.00000E+00  9.000E+00
#rwgt            2          13   1.0195061146467980E-003           9      104529           0
</event>
<event>
      5   9999  3.19816E-02  1.50893E+01 -1.00000E+00  1.77141E-01
      21    -1     0     0   502   511  0.000000000E+00  0.000000000E+00  1.853891733E+02  1.853891733E+02  0.000000000E+00  0.00000E+00  9.000E+00
      21    -1     0     0   501   502  0.000000000E+00  0.000000000E+00 -9.493885357E+02  9.493885357E+02  0.000000000E+00  0.00000E+00  9.000E+00
      25     1     1     2     0     0  1.817771892E+02 -1.963380059E+02 -6.899697775E+02  7.505163908E+02  1.250000000E+02  0.00000E+00  9.000E+00
      25     1     1     2     0     0 -1.951419499E+02  2.033431002E+02 -1.238139754E+02  3.322404213E+02  1.250000000E+02  0.00000E+00  9.000E+00
      21     1     1     2   501   511  1.336476072E+01 -7.005094295E+00  4.978439051E+01  5.202089689E+01  1.507891493E-06  0.00000E+00  9.000E+00
#rwgt            1           1   2.8165909039307262E-002           9      104548           0
</event>
<event>
      5   9999  3.19816E-02  8.60796E+01 -1.00000E+00  1.26828E-01
      21    -1     0     0   502   501  0.000000000E+00  0.000000000E+00  1.204530938E+02  1.204530938E+02  0.000000000E+00  0.00000E+00  9.000E+00
       2    -1     0     0   501     0  0.000000000E+00  0.000000000E+00 -3.031726563E+03  3.031726563E+03  0.000000000E+00  0.00000E+00  9.000E+00
      25     1     1     2     0     0 -3.419625613E+02  1.953910527E+02 -4.981921560E+02  6.472530272E+02  1.250000000E+02  0.00000E+00  9.000E+00
      25     1     1     2     0     0  2.996437369E+02 -1.204322542E+02 -6.229631878E+02  7.127400861E+02  1.250000000E+02  0.00000E+00  9.000E+00
       2     1     1     2   502     0  4.231882443E+01 -7.495879858E+01 -1.790118126E+03  1.792186544E+03  2.157918644E-05  0.00000E+00  9.000E+00
#rwgt            1           1   2.8193919376348589E-002           9      104749           0
</event>
<event>
      5   9999  3.19816E-02  3.05227E+01 -1.00000E+00  1.52521E-01
      21    -1     0     0   502   501  0.000000000E+00  0.000000000E+00  1.012534946E+03  1.012534946E+03  0.000000000E+00  0.00000E+00  9.000E+00
      21    -1     0     0   511   502  0.000000000E+00  0.000000000E+00 -6.644485065E+02  6.644485065E+02  0.000000000E+00  0.00000E+00  9.000E+00
      25     1     1     2     0     0 -3.091274008E+02 -3.554265892E+02  7.673285341E+01  4.933566063E+02  1.250000000E+02  0.00000E+00  9.000E+00
      25     1     1     2     0     0  3.363620974E+02  3.692071374E+02  6.356786192E+02  8.180254750E+02  1.250000000E+02  0.00000E+00  9.000E+00
      21     1     1     2   511   501 -2.723469664E+01 -1.378054817E+01 -3.643250335E+02  3.656013707E+02  5.394796609E-06  0.00000E+00  9.000E+00
#rwgt            1           1   3.2257633224565686E-002           9      104804           0
</event>
<event>
      5   9999  3.19816E-02  2.38497E+02 -1.00000E+00  1.08934E-01
       2    -1     0     0   502     0  0.000000000E+00  0.000000000E+00  1.792801150E+03  1.792801150E+03  0.000000000E+00  0.00000E+00  9.000E+00
      21    -1     0     0   501   502  0.000000000E+00  0.000000000E+00 -2.976633325E+02  2.976633325E+02  0.000000000E+00  0.00000E+00  9.000E+00
      25     1     1     2     0     0  4.438855849E+02 -2.469824681E+01  6.758011074E+01  4.667295655E+02  1.250000000E+02  0.00000E+00  9.000E+00
      25     1     1     2     0     0 -2.668508504E+02 -1.351129495E+02  2.174569049E+02  3.903554675E+02  1.250000000E+02  0.00000E+00  9.000E+00
       2     1     1     2   501     0 -1.770347345E+02  1.598111963E+02  1.210100802E+03  1.233379450E+03  1.525878906E-05  0.00000E+00  9.000E+00
#rwgt            1           1   2.8614189824760883E-002           9      104948           0
</event>
<event>
      5   9999  3.19816E-02  8.86171E+01 -1.00000E+00  1.26235E-01
      21    -1     0     0   502   511  0.000000000E+00  0.000000000E+00  9.713583727E+02  9.713583727E+02  0.000000000E+00  0.00000E+00  9.000E+00
      21    -1     0     0   501   502  0.000000000E+00  0.000000000E+00 -8.211915865E+02  8.211915865E+02  0.000000000E+00  0.00000E+00  9.000E+00
      25     1     1     2     0     0 -1.834656960E+02 -6.871220294E+01 -7.758876153E+02  8.099429733E+02  1.250000000E+02  0.00000E+00  9.000E+00
      25     1     1     2     0     0  2.010173513E+02 -1.814936121E+01  7.252351968E+02  7.631044919E+02  1.250000000E+02  0.00000E+00  9.000E+00
      21     1     1     2   501   511 -1.755165531E+01  8.686156415E+01  2.008192047E+02  2.195024940E+02  2.697398305E-06  0.00000E+00  9.000E+00
#rwgt            1           1   3.3705734253229147E-002           9      105010           0
</event>
<event>
      5   9999  3.19816E-02  7.47296E+01 -1.00000E+00  1.29799E-01
      21    -1     0     0   502   501  0.000000000E+00  0.000000000E+00  9.413876543E+01  9.413876543E+01  0.000000000E+00  0.00000E+00  9.000E+00
      21    -1     0     0   501   512  0.000000000E+00  0.000000000E+00 -7.403314807E+02  7.403314807E+02  0.000000000E+00  0.00000E+00  9.000E+00
      25     1     1     2     0     0  5.754092888E+01 -9.656631738E+01 -8.163219816E+01  1.868818555E+02  1.250000000E+02  0.00000E+00  9.000E+00
      25     1     1     2     0     0 -1.044886321E+02  3.842491711E+01 -1.451060018E+02  2.215290054E+02  1.250000000E+02  0.00000E+00  9.000E+00
      21     1     1     2   502   512  4.694770323E+01  5.814140027E+01 -4.194545153E+02  4.260593851E+02  0.000000000E+00  0.00000E+00  9.000E+00
#rwgt            1           1   2.8367970615692788E-002           9      105103           0
</event>
<event>
      5   9999  3.19816E-02  2.78016E+01 -1.00000E+00  1.55371E-01
      21    -1     0     0   502   501  0.000000000E+00  0.000000000E+00  6.814641923E+02  6.814641923E+02  0.000000000E+00  0.00000E+00  9.000E+00
      21    -1     0     0   511   502  0.000000000E+00  0.000000000E+00 -2.311083014E+02  2.311083014E+02  0.000000000E+00  0.00000E+00  9.000E+00
      25     1     1     2     0     0 -8.789740543E+01  3.219002328E+02  1.120296903E+02  3.735255885E+02  1.250000000E+02  0.00000E+00  9.000E+00
      25     1     1     2     0     0  7.390043322E+01 -3.459213666E+02  3.458396522E+02  5.102479112E+02  1.250000000E+02  0.00000E+00  9.000E+00
      21     1     1     2   511   501  1.399697221E+01  2.402113377E+01 -7.513451597E+00  2.879899397E+01  5.591411304E-07  0.00000E+00  9.000E+00
#rwgt            1           1   2.9048575804643765E-002           9      105188           0
</event>
<event>
      5   9999  3.19816E-02  1.09809E+02 -1.00000E+00  1.22027E-01
      21    -1     0     0   502   512  0.000000000E+00  0.000000000E+00  1.108845741E+03  1.108845741E+03  0.000000000E+00  0.00000E+00  9.000E+00
      21    -1     0     0   501   502  0.000000000E+00  0.000000000E+00 -1.038321315E+02  1.038321315E+02  0.000000000E+00  0.00000E+00  9.000E+00
      25     1     1     2     0     0 -1.402517821E+02  1.593906660E+02  6.187813716E+02  6.660265255E+02  1.250000000E+02  0.00000E+00  9.000E+00
      25     1     1     2     0     0  8.274508742E+01 -6.584387300E+01  2.076098074E+01  1.650399449E+02  1.250000000E+02  0.00000E+00  9.000E+00
      21     1     1     2   501   512  5.750669469E+01 -9.354679297E+01  3.654712567E+02  3.816114017E+02  0.000000000E+00  0.00000E+00  9.000E+00
#rwgt            1           1   2.8011916803221779E-002           9      105310           0
</event>
<event>
      5   9999  3.19816E-02  3.59206E+01 -1.00000E+00  1.47798E-01
      21    -1     0     0   502   511  0.000000000E+00  0.000000000E+00  2.708333422E+02  2.708333422E+02  0.000000000E+00  0.00000E+00  9.000E+00
      21    -1     0     0   501   502  0.000000000E+00  0.000000000E+00 -3.929926837E+02  3.929926837E+02  0.000000000E+00  0.00000E+00  9.000E+00
      25     1     1     2     0     0 -1.543092607E+02 -1.534480763E+02 -2.133594458E+02  3.294008396E+02  1.250000000E+02  0.00000E+00  9.000E+00
      25     1     1     2     0     0  1.497529786E+02  1.890784982E+02  4.414705685E+01  2.752282611E+02  1.250000000E+02  0.00000E+00  9.000E+00
      21     1     1     2   501   511  4.556282101E+00 -3.563042195E+01  4.705304743E+01  5.919692515E+01  6.743495762E-07  0.00000E+00  9.000E+00
#rwgt            1           1   2.7721503026781891E-002           9      105364           0
</event>
<event>
      5   9999  3.19816E-02  4.27832E+01 -1.00000E+00  1.43051E-01
      21    -1     0     0   502   501  0.000000000E+00  0.000000000E+00  1.276783842E+03  1.276783842E+03  0.000000000E+00  0.00000E+00  9.000E+00
      21    -1     0     0   512   502  0.000000000E+00  0.000000000E+00 -1.382271856E+03  1.382271856E+03  0.000000000E+00  0.00000E+00  9.000E+00
      25     1     1     2     0     0 -1.822361905E+02 -6.347855233E+01  6.040618751E+02  6.463399297E+02  1.250000000E+02  0.00000E+00  9.000E+00
      25     1     1     2     0     0  2.174788934E+02  3.922246679E+01  6.264952602E+02  6.759857854E+02  1.250000000E+02  0.00000E+00  9.000E+00
      21     1     1     2   512   501 -3.524270289E+01  2.425608555E+01 -1.336045149E+03  1.336729983E+03  0.000000000E+00  0.00000E+00  9.000E+00
#rwgt            1           1   3.4380357890924369E-002           9      105489           0
</event>
<event>
      5   9999  3.19816E-02  7.60286E+01 -1.00000E+00  1.29429E-01
      21    -1     0     0   502   511  0.000000000E+00  0.000000000E+00  6.498380634E+02  6.498380634E+02  0.000000000E+00  0.00000E+00  9.000E+00
      21    -1     0     0   501   502  0.000000000E+00  0.000000000E+00 -1.252629396E+02  1.252629396E+02  0.000000000E+00  0.00000E+00  9.000E+00
      25     1     1     2     0     0 -1.843171511E+01  1.610104254E+02  1.911429872E+00  2.046771574E+02  1.250000000E+02  0.00000E+00  9.000E+00
      25     1     1     2     0     0 -1.327111210E-01 -8.728315557E+01  3.486193600E+02  3.804981275E+02  1.250000000E+02  0.00000E+00  9.000E+00
      21     1     1     2   501   511  1.856442623E+01 -7.372726979E+01  1.740443339E+02  1.899257181E+02  0.000000000E+00  0.00000E+00  9.000E+00
#rwgt            1           1   3.3300064262155912E-002           9      105575           0
</event>
<event>
      5   9999  3.19816E-02  3.89706E+01 -1.00000E+00  1.45546E-01
      21    -1     0     0   512   501  0.000000000E+00  0.000000000E+00  9.771292414E+02  9.771292414E+02  0.000000000E+00  0.00000E+00  9.000E+00
      21    -1     0     0   501   502  0.000000000E+00  0.000000000E+00 -5.590863298E+02  5.590863298E+02  0.000000000E+00  0.00000E+00  9.000E+00
      25     1     1     2     0     0  7.901803579E+01 -8.879397966E+01  3.517024934E+01  1.760402432E+02  1.250000000E+02  0.00000E+00  9.000E+00
      25     1     1     2     0     0 -4.652692612E+01  1.103122114E+02 -4.728668031E+02  5.035489572E+02  1.250000000E+02  0.00000E+00  9.000E+00
      21     1     1     2   512   502 -3.249110967E+01 -2.151823173E+01  8.557394653E+02  8.566263707E+02  0.000000000E+00  0.00000E+00  9.000E+00
#rwgt            1           1   2.3423490942384401E-002           9      105642           0
</event>
<event>
      5   9999  3.19816E-02  3.43729E+01 -1.00000E+00  1.49046E-01
      21    -1     0     0   502   501  0.000000000E+00  0.000000000E+00  3.880068993E+02  3.880068993E+02  0.000000000E+00  0.00000E+00  9.000E+00
      21    -1     0     0   501   511  0.000000000E+00  0.000000000E+00 -2.033796080E+03  2.033796080E+03  0.000000000E+00  0.00000E+00  9.000E+00
      25     1     1     2     0     0  4.009180092E+02  3.714382431E+02 -2.137090004E+02  5.999984629E+02  1.250000000E+02  0.00000E+00  9.000E+00
      25     1     1     2     0     0 -4.127786713E+02 -4.037000146E+02 -2.536980521E+02  6.429211732E+02  1.250000000E+02  0.00000E+00  9.000E+00
      21     1     1     2   502   511  1.186066210E+01  3.226177151E+01 -1.178382128E+03  1.178883343E+03  1.525878906E-05  0.00000E+00  9.000E+00
#rwgt            1           1   2.7727448800431338E-002           9      105754           0
</event>
<event>
      5   9999  3.19816E-02  4.69296E+01 -1.00000E+00  1.40664E-01
       1    -1     0     0   502     0  0.000000000E+00  0.000000000E+00  1.756681728E+03  1.756681728E+03  0.000000000E+00  0.00000E+00  9.000E+00
      21    -1     0     0   501   502  0.000000000E+00  0.000000000E+00 -2.849304175E+02  2.849304175E+02  0.000000000E+00  0.00000E+00  9.000E+00
      25     1     1     2     0     0 -3.968077215E+02 -2.455550273E+02  6.363768557E+02  7.989706764E+02  1.250000000E+02  0.00000E+00  9.000E+00
      25     1     1     2     0     0  3.508059875E+02  2.362692565E+02  3.666851791E+01  4.425579992E+02  1.250000000E+02  0.00000E+00  9.000E+00
       1     1     1     2   501     0  4.600173399E+01  9.285770797E+00  7.987059373E+02  8.000834703E+02  1.078959322E-05  0.00000E+00  9.000E+00
#rwgt            1           1   2.6532446730145581E-002           9      105888           0
</event>
<event>
      5   9999  3.19816E-02  5.06457E+01 -1.00000E+00  1.38758E-01
      21    -1     0     0   502   501  0.000000000E+00  0.000000000E+00  7.008557264E+02  7.008557264E+02  0.000000000E+00  0.00000E+00  9.000E+00
      21    -1     0     0   511   502  0.000000000E+00  0.000000000E+00 -8.613904377E+02  8.613904377E+02  0.000000000E+00  0.00000E+00  9.000E+00
      25     1     1     2     0     0  2.921801063E+02 -3.685091923E+02  5.278928099E+02  7.179582565E+02  1.250000000E+02  0.00000E+00  9.000E+00
      25     1     1     2     0     0 -2.636641359E+02  3.266543165E+02 -6.225177138E+02  7.611669482E+02  1.250000000E+02  0.00000E+00  9.000E+00
      21     1     1     2   511   501 -2.851597039E+01  4.185487582E+01 -6.590980738E+01  8.312095949E+01  9.536743164E-07  0.00000E+00  9.000E+00
#rwgt            1           1   2.1356201349509513E-002           9      106017           0
</event>
<event>
      5   9999  3.19816E-02  5.53664E+01 -1.00000E+00  1.36595E-01
      21    -1     0     0   502   501  0.000000000E+00  0.000000000E+00  1.352992795E+03  1.352992795E+03  0.000000000E+00  0.00000E+00  9.000E+00
      21    -1     0     0   512   502  0.000000000E+00  0.000000000E+00 -3.958929611E+02  3.958929611E+02  0.000000000E+00  0.00000E+00  9.000E+00
      25     1     1     2     0     0  1.179873294E+02  2.083202355E+02  1.275290315E+03  1.303575360E+03  1.250000000E+02  0.00000E+00  9.000E+00
      25     1     1     2     0     0 -1.116933938E+02 -1.533127338E+02 -1.604016749E+02  2.780897443E+02  1.250000000E+02  0.00000E+00  9.000E+00
      21     1     1     2   512   501 -6.293935657E+00 -5.500750168E+01 -1.577888067E+02  1.672206518E+02  5.046370146E-06  0.00000E+00  9.000E+00
#rwgt            1           1   2.9748021951896759E-002           9      106258           0
</event>
<event>
      5   9999  3.19816E-02  1.59520E+02 -1.00000E+00  1.15344E-01
       2    -1     0     0   502     0  0.000000000E+00  0.000000000E+00  2.388410527E+03  2.388410527E+03  0.000000000E+00  0.00000E+00  9.000E+00
      21    -1     0     0   501   502  0.000000000E+00  0.000000000E+00 -5.353036474E+02  5.353036474E+02  0.000000000E+00  0.00000E+00  9.000E+00
      25     1     1     2     0     0  2.037911348E+02 -5.592980010E+02  4.297725619E+02  7.447647518E+02  1.250000000E+02  0.00000E+00  9.000E+00
      25     1     1     2     0     0 -2.843053011E+02  4.215873289E+02 -1.905317389E+02  5.572187395E+02  1.250000000E+02  0.00000E+00  9.000E+00
       2     1     1     2   501     0  8.051416625E+01  1.377106721E+02  1.613866056E+03  1.621730683E+03  2.157918644E-05  0.00000E+00  9.000E+00
#rwgt            1           1   3.1673156037574153E-002           9      106387           0
</event>
<event>
      5   9999  3.19816E-02  6.72050E+01 -1.00000E+00  1.32123E-01
      21    -1     0     0   502   501  0.000000000E+00  0.000000000E+00  1.352079137E+02  1.352079137E+02  0.000000000E+00  0.00000E+00  9.000E+00
      21    -1     0     0   511   502  0.000000000E+00  0.000000000E+00 -8.706094208E+02  8.706094208E+02  0.000000000E+00  0.00000E+00  9.000E+00
      25     1     1     2     0     0 -1.526245697E+02 -3.926521439E+01 -2.652147365E+02  3.328661485E+02  1.250000000E+02  0.00000E+00  9.000E+00
      25     1     1     2     0     0  9.231895122E+01  9.604704054E+00  3.806308925E+01  1.602773779E+02  1.250000000E+02  0.00000E+00  9.000E+00
      21     1     1     2   511   501  6.030561853E+01  2.966051034E+01 -5.082498599E+02  5.126738082E+02  5.394796609E-06  0.00000E+00  9.000E+00
#rwgt            1           1   2.4949184722462135E-002           9      106479           0
</event>
<event>
      5   9999  3.19816E-02  2.70289E+02 -1.00000E+00  1.07085E-01
      21    -1     0     0   502   501  0.000000000E+00  0.000000000E+00  3.609315127E+02  3.609315127E+02  0.000000000E+00  0.00000E+00  9.000E+00
       2    -1     0     0   501     0  0.000000000E+00  0.000000000E+00 -2.251812523E+03  2.251812523E+03  0.000000000E+00  0.00000E+00  9.000E+00
      25     1     1     2     0     0  3.174584245E+02  3.825778834E+02 -1.352443329E+02  5.301525419E+02  1.250000000E+02  0.00000E+00  9.000E+00
      25     1     1     2     0     0 -5.123418354E+02 -5.698646637E+02 -9.174706311E+02  1.201922315E+03  1.250000000E+02  0.00000E+00  9.000E+00
       2     1     1     2   502     0  1.948834110E+02  1.872867803E+02 -8.381660463E+02  8.806691791E+02  0.000000000E+00  0.00000E+00  9.000E+00
#rwgt            2          13   1.5871019616447723E-003           9      106931           0
</event>
<event>
      5   9999  3.19816E-02  8.36039E+01 -1.00000E+00  1.27430E-01
      21    -1     0     0   502   501  0.000000000E+00  0.000000000E+00  1.767485115E+03  1.767485115E+03  0.000000000E+00  0.00000E+00  9.000E+00
       2    -1     0     0   501     0  0.000000000E+00  0.000000000E+00 -1.590953912E+03  1.590953912E+03  0.000000000E+00  0.00000E+00  9.000E+00
      25     1     1     2     0     0  5.280195000E+02  7.969247962E+02  1.207271885E+03  1.544999718E+03  1.250000000E+02  0.00000E+00  9.000E+00
      25     1     1     2     0     0 -4.616323393E+02 -7.461078779E+02 -1.147366695E+02  8.936279346E+02  1.250000000E+02  0.00000E+00  9.000E+00
       2     1     1     2   502     0 -6.638716064E+01 -5.081691830E+01 -9.160040126E+02  9.198113749E+02  1.078959322E-05  0.00000E+00  9.000E+00
#rwgt            1           1   3.6319517965289351E-002           9      106950           0
</event>
<event>
      5   9999  3.19816E-02  4.45807E+01 -1.00000E+00  1.41979E-01
      21    -1     0     0   502   501  0.000000000E+00  0.000000000E+00  1.384306736E+02  1.384306736E+02  0.000000000E+00  0.00000E+00  9.000E+00
      21    -1     0     0   501   511  0.000000000E+00  0.000000000E+00 -3.253124752E+03  3.253124752E+03  0.000000000E+00  0.00000E+00  9.000E+00
      25     1     1     2     0     0  1.272767339E+02  4.001883315E+02 -2.789345509E+02  5.194030721E+02  1.250000000E+02  0.00000E+00  9.000E+00
      25     1     1     2     0     0 -9.335793278E+01 -3.712581487E+02 -2.681833390E+03  2.711900376E+03  1.250000000E+02  0.00000E+00  9.000E+00
      21     1     1     2   502   511 -3.391880110E+01 -2.893018275E+01 -1.539261370E+02  1.602519772E+02  2.697398305E-06  0.00000E+00  9.000E+00
#rwgt            1           1   5.9007273345369621E-002           9      107054           0
</event>
<event>
      5   9999  3.19816E-02  6.89262E+01 -1.00000E+00  1.31562E-01
      21    -1     0     0   502   501  0.000000000E+00  0.000000000E+00  5.007817281E+02  5.007817281E+02  0.000000000E+00  0.00000E+00  9.000E+00
      21    -1     0     0   501   512  0.000000000E+00  0.000000000E+00 -1.766317647E+02  1.766317647E+02  0.000000000E+00  0.00000E+00  9.000E+00
      25     1     1     2     0     0 -1.211074837E+02  5.777542421E-01 -4.193098815E+01  1.790267136E+02  1.250000000E+02  0.00000E+00  9.000E+00
      25     1     1     2     0     0  5.398295845E+01  1.507853711E+01  3.991023771E+02  4.219588007E+02  1.250000000E+02  0.00000E+00  9.000E+00
      21     1     1     2   502   512  6.712452522E+01 -1.565629135E+01 -3.302142559E+01  7.642797847E+01  1.507891493E-06  0.00000E+00  9.000E+00
#rwgt            1           1   2.5060547055274291E-002           9      107131           0
</event>
<event>
      5   9999  3.19816E-02  6.94602E+01 -1.00000E+00  1.31391E-01
      21    -1     0     0   502   511  0.000000000E+00  0.000000000E+00  2.290838051E+02  2.290838051E+02  0.000000000E+00  0.00000E+00  9.000E+00
      21    -1     0     0   501   502  0.000000000E+00  0.000000000E+00 -8.789767745E+02  8.789767745E+02  0.000000000E+00  0.00000E+00  9.000E+00
      25     1     1     2     0     0  1.197281697E+02  2.359509075E+02  6.745724608E+01  3.003050872E+02  1.250000000E+02  0.00000E+00  9.000E+00
      25     1     1     2     0     0 -1.000936440E+02 -1.693235585E+02 -6.976624665E+02  7.355590541E+02  1.250000000E+02  0.00000E+00  9.000E+00
      21     1     1     2   501   511 -1.963452569E+01 -6.662734898E+01 -1.968774902E+01  7.219643823E+01  1.283923342E-06  0.00000E+00  9.000E+00
#rwgt            1           1   2.8073158584506656E-002           9      107216           0
</event>
<event>
      5   9999  3.19816E-02  4.52490E+01 -1.00000E+00  1.41596E-01
      21    -1     0     0   512   501  0.000000000E+00  0.000000000E+00  3.136165526E+02  3.136165526E+02  0.000000000E+00  0.00000E+00  9.000E+00
      21    -1     0     0   501   502  0.000000000E+00  0.000000000E+00 -2.986994605E+02  2.986994605E+02  0.000000000E+00  0.00000E+00  9.000E+00
      25     1     1     2     0     0 -2.936571622E+01  1.392831964E+02  1.687915558E+02  2.537276954E+02  1.250000000E+02  0.00000E+00  9.000E+00
      25     1     1     2     0     0  5.566378036E+01 -1.761055050E+02 -1.958961165E+02  2.968364765E+02  1.250000000E+02  0.00000E+00  9.000E+00
      21     1     1     2   512   502 -2.629806414E+01  3.682230858E+01  4.202165277E+01  6.175184117E+01  6.743495762E-07  0.00000E+00  9.000E+00
#rwgt            1           1   2.5302190922967586E-002           9      107320           0
</event>
<event>
      5   9999  3.19816E-02  2.10431E+01 -1.00000E+00  1.64568E-01
      21    -1     0     0   502   501  0.000000000E+00  0.000000000E+00  2.236033095E+02  2.236033095E+02  0.000000000E+00  0.00000E+00  9.000E+00
      21    -1     0     0   511   502  0.000000000E+00  0.000000000E+00 -1.767977431E+02  1.767977431E+02  0.000000000E+00  0.00000E+00  9.000E+00
      25     1     1     2     0     0  8.569081283E+00  1.267948616E+02  2.711599174E+01  1.803070800E+02  1.250000000E+02  0.00000E+00  9.000E+00
      25     1     1     2     0     0 -2.384803239E+01 -1.412643865E+02  3.595217098E+01  1.934991322E+02  1.250000000E+02  0.00000E+00  9.000E+00
      21     1     1     2   511   501  1.527895110E+01  1.446952490E+01 -1.626259633E+01  2.659484042E+01  2.384185791E-07  0.00000E+00  9.000E+00
#rwgt            1           1   2.5368490923987651E-002           9      107376           0
</event>
<event>
      5   9999  3.19816E-02  4.85856E+01 -1.00000E+00  1.39790E-01
      21    -1     0     0   502   501  0.000000000E+00  0.000000000E+00  8.145399472E+02  8.145399472E+02  0.000000000E+00  0.00000E+00  9.000E+00
      21    -1     0     0   512   502  0.000000000E+00  0.000000000E+00 -6.471193103E+02  6.471193103E+02  0.000000000E+00  0.00000E+00  9.000E+00
      25     1     1     2     0     0 -2.159821568E+02  4.117204988E+02 -1.646823755E+02  5.088293879E+02  1.250000000E+02  0.00000E+00  9.000E+00
      25     1     1     2     0     0  2.588529603E+02 -4.345821260E+02  5.334555302E+02  7.456985195E+02  1.250000000E+02  0.00000E+00  9.000E+00
      21     1     1     2   512   501 -4.287080345E+01  2.286162724E+01 -2.013525177E+02  2.071313501E+02  0.000000000E+00  0.00000E+00  9.000E+00
#rwgt            1           1   3.2663360187927142E-002           9      107513           0
</event>
<event>
      5   9999  3.19816E-02  2.03730E+01 -1.00000E+00  1.65710E-01
      21    -1     0     0   502   511  0.000000000E+00  0.000000000E+00  9.235975286E+02  9.235975286E+02  0.000000000E+00  0.00000E+00  9.000E+00
      21    -1     0     0   501   502  0.000000000E+00  0.000000000E+00 -1.867725385E+02  1.867725385E+02  0.000000000E+00  0.00000E+00  9.000E+00
      25     1     1     2     0     0  1.365204007E+02 -1.105892989E+02 -1.129708603E+00  2.156248805E+02  1.250000000E+02  0.00000E+00  9.000E+00
      25     1     1     2     0     0 -1.437886775E+02  1.296217065E+02  9.145307907E+01  2.479226417E+02  1.250000000E+02  0.00000E+00  9.000E+00
      21     1     1     2   501   511  7.268276850E+00 -1.903240758E+01  6.465016197E+02  6.468225449E+02  0.000000000E+00  0.00000E+00  9.000E+00
#rwgt            1           1   2.7948409512653250E-002           9      107621           0
</event>
<event>
      5   9999  3.19816E-02  1.39553E+01 -1.00000E+00  1.80389E-01
      21    -1     0     0   502   501  0.000000000E+00  0.000000000E+00  7.872131303E+02  7.872131303E+02  0.000000000E+00  0.00000E+00  9.000E+00
      21    -1     0     0   501   512  0.000000000E+00  0.000000000E+00 -1.762036259E+02  1.762036259E+02  0.000000000E+00  0.00000E+00  9.000E+00
      25     1     1     2     0     0 -6.229922598E+01 -2.903390983E+02  1.945728426E+02  3.763795645E+02  1.250000000E+02  0.00000E+00  9.000E+00
      25     1     1     2     0     0  5.562616559E+01  2.780825910E+02  4.524490998E+02  5.484153405E+02  1.250000000E+02  0.00000E+00  9.000E+00
      21     1     1     2   502   512  6.673060392E+00  1.225650728E+01 -3.601243802E+01  3.862185130E+01  1.348699152E-06  0.00000E+00  9.000E+00
#rwgt            1           1   2.8458200368567603E-002           9      107807           0
</event>
<event>
      5   9999  3.19816E-02  3.04442E+02 -1.00000E+00  1.05385E-01
      21    -1     0     0   502   501  0.000000000E+00  0.000000000E+00  1.138510979E+03  1.138510979E+03  0.000000000E+00  0.00000E+00  9.000E+00
      21    -1     0     0   501   511  0.000000000E+00  0.000000000E+00 -4.363471710E+02  4.363471710E+02  0.000000000E+00  0.00000E+00  9.000E+00
      25     1     1     2     0     0  1.897230099E+02  1.125101546E+02 -9.332879386E+01  2.701640597E+02  1.250000000E+02  0.00000E+00  9.000E+00
      25     1     1     2     0     0 -4.915928338E+02 -7.301735015E+01  8.527750666E+02  9.949097255E+02  1.250000000E+02  0.00000E+00  9.000E+00
      21     1     1     2   502   511  3.018698239E+02 -3.949280442E+01 -5.728246445E+01  3.097843652E+02  2.336015456E-06  0.00000E+00  9.000E+00
#rwgt            1           1   3.1020103583519927E-002           9      107998           0
</event>
<event>
      5   9999  3.19816E-02  1.47323E+01 -1.00000E+00  1.78123E-01
      21    -1     0     0   502   501  0.000000000E+00  0.000000000E+00  6.343126563E+02  6.343126563E+02  0.000000000E+00  0.00000E+00  9.000E+00
      21    -1     0     0   512   502  0.000000000E+00  0.000000000E+00 -2.830356549E+02  2.830356549E+02  0.000000000E+00  0.00000E+00  9.000E+00
      25     1     1     2     0     0 -2.036499239E+02  1.377958326E+02  2.834950987E+02  3.955445032E+02  1.250000000E+02  0.00000E+00  9.000E+00
      25     1     1     2     0     0  1.889253287E+02 -1.373186975E+02  2.348918386E+02  3.540457320E+02  1.250000000E+02  0.00000E+00  9.000E+00
      21     1     1     2   512   501  1.472459520E+01 -4.771351401E-01 -1.671099359E+02  1.677580759E+02  0.000000000E+00  0.00000E+00  9.000E+00
#rwgt            1           1   3.1605186502886018E-002           9      108061           0
</event>
<event>
      5   9999  3.19816E-02  1.36114E+02 -1.00000E+00  1.18090E-01
      -3    -1     0     0     0   501  0.000000000E+00  0.000000000E+00  3.790808350E+02  3.790808350E+02  0.000000000E+00  0.00000E+00  9.000E+00
      21    -1     0     0   501   502  0.000000000E+00  0.000000000E+00 -3.983483872E+02  3.983483872E+02  0.000000000E+00  0.00000E+00  9.000E+00
      25     1     1     2     0     0  9.422861267E+01 -6.207073417E+00 -2.045433735E+02  2.576442331E+02  1.250000000E+02  0.00000E+00  9.000E+00
      25     1     1     2     0     0 -2.131189999E+02  7.248079347E+01 -3.600766397E+01  2.599898564E+02  1.250000000E+02  0.00000E+00  9.000E+00
      -3     1     1     2     0   502  1.188903872E+02 -6.627372006E+01  2.212834852E+02  2.597951327E+02  0.000000000E+00  0.00000E+00  9.000E+00
#rwgt            2           3   7.0691499456774487E-005           9      108256           0
</event>
<event>
      5   9999  3.19816E-02  1.05193E+01 -1.00000E+00  1.93249E-01
      21    -1     0     0   502   501  0.000000000E+00  0.000000000E+00  2.142685310E+02  2.142685310E+02  0.000000000E+00  0.00000E+00  9.000E+00
      21    -1     0     0   511   502  0.000000000E+00  0.000000000E+00 -2.599069913E+03  2.599069913E+03  0.000000000E+00  0.00000E+00  9.000E+00
      25     1     1     2     0     0 -5.916848098E+02  7.973850251E+01 -1.044356340E+03  1.209443801E+03  1.250000000E+02  0.00000E+00  9.000E+00
      25     1     1     2     0     0  6.019201938E+02 -7.731101176E+01 -5.971394956E+02  8.605146654E+02  1.250000000E+02  0.00000E+00  9.000E+00
      21     1     1     2   511   501 -1.023538399E+01 -2.427490753E+00 -7.433055463E+02  7.433799775E+02  0.000000000E+00  0.00000E+00  9.000E+00
#rwgt            1           1   2.9539674539175359E-002           9      108320           0
</event>
<event>
      5   9999  3.19816E-02  2.89505E+01 -1.00000E+00  1.54122E-01
      21    -1     0     0   512   501  0.000000000E+00  0.000000000E+00  3.281618469E+03  3.281618469E+03  0.000000000E+00  0.00000E+00  9.000E+00
      21    -1     0     0   501   502  0.000000000E+00  0.000000000E+00 -5.541484764E+01  5.541484764E+01  0.000000000E+00  0.00000E+00  9.000E+00
      25     1     1     2     0     0 -2.643918032E+02  2.837811231E+02  1.505411286E+03  1.559590616E+03  1.250000000E+02  0.00000E+00  9.000E+00
      25     1     1     2     0     0  2.895003979E+02 -2.693697316E+02  1.567157835E+03  1.621104319E+03  1.250000000E+02  0.00000E+00  9.000E+00
      21     1     1     2   512   502 -2.510859468E+01 -1.441139153E+01  1.536345009E+02  1.563383817E+02  0.000000000E+00  0.00000E+00  9.000E+00
#rwgt            1           1   3.2606982350817874E-002           9      108626           0
</event>
<event>
      5   9999  3.19816E-02  1.01953E+02 -1.00000E+00  1.23451E-01
      21    -1     0     0   502   501  0.000000000E+00  0.000000000E+00  8.955023877E+02  8.955023877E+02  0.000000000E+00  0.00000E+00  9.000E+00
      21    -1     0     0   501   511  0.000000000E+00  0.000000000E+00 -3.514396097E+02  3.514396097E+02  0.000000000E+00  0.00000E+00  9.000E+00
      25     1     1     2     0     0 -3.217535339E+02 -3.539046175E+02  1.034637260E+02  5.050777737E+02  1.250000000E+02  0.00000E+00  9.000E+00
      25     1     1     2     0     0  2.200267272E+02  3.471111349E+02  4.690382186E+02  6.360186720E+02  1.250000000E+02  0.00000E+00  9.000E+00
      21     1     1     2   502   511  1.017268067E+02  6.793482691E+00 -2.843916667E+01  1.058455517E+02  1.348699152E-06  0.00000E+00  9.000E+00
#rwgt            1           1   2.9555006553793502E-002           9      108797           0
</event>
<event>
      5   9999  3.19816E-02  4.55109E+02 -1.00000E+00  1.00027E-01
      21    -1     0     0   502   501  0.000000000E+00  0.000000000E+00  2.556514102E+02  2.556514102E+02  0.000000000E+00  0.00000E+00  9.000E+00
       2    -1     0     0   501     0  0.000000000E+00  0.000000000E+00 -2.617823445E+03  2.617823445E+03  0.000000000E+00  0.00000E+00  9.000E+00
      25     1     1     2     0     0  9.519651574E+01  1.917772693E+02 -1.000060533E+03  1.030333426E+03  1.250000000E+02  0.00000E+00  9.000E+00
      25     1     1     2     0     0 -4.824705125E+01  2.609037699E+02  1.015314719E+02  3.103742819E+02  1.250000000E+02  0.00000E+00  9.000E+00
       2     1     1     2   502     0 -4.694946449E+01 -4.526810393E+02 -1.463642973E+03  1.532767147E+03  2.157918644E-05  0.00000E+00  9.000E+00
#rwgt            2          13   1.4363223305123699E-003           9      108871           0
</event>
<event>
      5   9999  3.19816E-02  6.87157E+01 -1.00000E+00  1.31629E-01
      21    -1     0     0   502   501  0.000000000E+00  0.000000000E+00  3.711347385E+02  3.711347385E+02  0.000000000E+00  0.00000E+00  9.000E+00
       2    -1     0     0   501     0  0.000000000E+00  0.000000000E+00 -1.537524789E+03  1.537524789E+03  0.000000000E+00  0.00000E+00  9.000E+00
      25     1     1     2     0     0  3.314989621E+01  4.847989377E+02 -6.898409272E+02  8.530149064E+02  1.250000000E+02  0.00000E+00  9.000E+00
      25     1     1     2     0     0  1.133945358E+01 -4.324296249E+02  1.112713411E+02  4.638213827E+02  1.250000000E+02  0.00000E+00  9.000E+00
       2     1     1     2   502     0 -4.448934978E+01 -5.236931282E+01 -5.878204642E+02  5.918232382E+02  7.629394531E-06  0.00000E+00  9.000E+00
#rwgt            1           1   2.9753841478932237E-002           9      108890           0
</event>
<event>
      5   9999  3.19816E-02  4.90436E+01 -1.00000E+00  1.39556E-01
      21    -1     0     0   511   501  0.000000000E+00  0.000000000E+00  8.182941044E+02  8.182941044E+02  0.000000000E+00  0.00000E+00  9.000E+00
      21    -1     0     0   501   502  0.000000000E+00  0.000000000E+00 -1.369112668E+03  1.369112668E+03  0.000000000E+00  0.00000E+00  9.000E+00
      25     1     1     2     0     0  4.625687386E+02  3.991202542E+02 -2.271969002E+02  6.637094595E+02  1.250000000E+02  0.00000E+00  9.000E+00
      25     1     1     2     0     0 -4.321384778E+02 -4.375815287E+02 -8.157002261E+02  1.029180799E+03  1.250000000E+02  0.00000E+00  9.000E+00
      21     1     1     2   511   502 -3.043026077E+01  3.846127451E+01  4.920785628E+02  4.945165138E+02  0.000000000E+00  0.00000E+00  9.000E+00
#rwgt            1           1   2.9140431046521930E-002           9      108978           0
</event>
<event>
      5   9999  3.19816E-02  3.70184E+01 -1.00000E+00  1.46958E-01
      21    -1     0     0   502   512  0.000000000E+00  0.000000000E+00  8.527350819E+02  8.527350819E+02  0.000000000E+00  0.00000E+00  9.000E+00
      21    -1     0     0   501   502  0.000000000E+00  0.000000000E+00 -9.699723558E+01  9.699723558E+01  0.000000000E+00  0.00000E+00  9.000E+00
      25     1     1     2     0     0 -1.571722897E+02 -6.821197958E+01  4.749785769E+02  5.201784802E+02  1.250000000E+02  0.00000E+00  9.000E+00
      25     1     1     2     0     0  1.800916295E+02  3.914200144E+01  9.837319407E+01  2.434489199E+02  1.250000000E+02  0.00000E+00  9.000E+00
      21     1     1     2   501   512 -2.291933986E+01  2.906997815E+01  1.823860754E+02  1.861049173E+02  3.814697266E-06  0.00000E+00  9.000E+00
#rwgt            1           1   2.7597480974107604E-002           9      109147           0
</event>
<event>
      5   9999  3.19816E-02  8.47472E+01 -1.00000E+00  1.27149E-01
       1    -1     0     0   502     0  0.000000000E+00  0.000000000E+00  1.310468483E+03  1.310468483E+03  0.000000000E+00  0.00000E+00  9.000E+00
      21    -1     0     0   501   502  0.000000000E+00  0.000000000E+00 -2.395603037E+02  2.395603037E+02  0.000000000E+00  0.00000E+00  9.000E+00
      25     1     1     2     0     0 -8.536995564E+01  1.753105980E+02 -1.482440521E+02  2.749966074E+02  1.250000000E+02  0.00000E+00  9.000E+00
      25     1     1     2     0     0  1.195938372E+02 -9.778118830E+01  3.558138212E+02  4.075442578E+02  1.250000000E+02  0.00000E+00  9.000E+00
       1     1     1     2   501     0 -3.422388158E+01 -7.752940975E+01  8.633384106E+02  8.674879219E+02  1.078959322E-05  0.00000E+00  9.000E+00
#rwgt            1           1   2.5928224826502037E-002           9      109217           0
</event>
<event>
      5   9999  3.19816E-02  8.93031E+01 -1.00000E+00  1.26079E-01
      21    -1     0     0   502   501  0.000000000E+00  0.000000000E+00  7.788918416E+02  7.788918416E+02  0.000000000E+00  0.00000E+00  9.000E+00
      21    -1     0     0   511   502  0.000000000E+00  0.000000000E+00 -3.456069476E+02  3.456069476E+02  0.000000000E+00  0.00000E+00  9.000E+00
      25     1     1     2     0     0  3.303460595E+02  2.931665025E+01  1.013206030E+02  3.686174841E+02  1.250000000E+02  0.00000E+00  9.000E+00
      25     1     1     2     0     0 -2.693405844E+02  3.590128799E+01  4.901666722E+02  5.742139143E+02  1.250000000E+02  0.00000E+00  9.000E+00
      21     1     1     2   511   501 -6.100547510E+01 -6.521793824E+01 -1.582023812E+02  1.816673908E+02  1.907348633E-06  0.00000E+00  9.000E+00
#rwgt            1           1   2.8188955706600068E-002           9      109308           0
</event>
<event>
      5   9999  3.19816E-02  2.34679E+01 -1.00000E+00  1.60836E-01
      21    -1     0     0   512   501  0.000000000E+00  0.000000000E+00  6.091866755E+01  6.091866755E+01  0.000000000E+00  0.00000E+00  9.000E+00
      21    -1     0     0   501   502  0.000000000E+00  0.000000000E+00 -1.600297130E+03  1.600297130E+03  0.000000000E+00  0.00000E+00  9.000E+00
      25     1     1     2     0     0  4.621314199E+01  2.670396635E+02 -8.909329157E+02  9.395915584E+02  1.250000000E+02  0.00000E+00  9.000E+00
      25     1     1     2     0     0 -2.295028108E+01 -2.639442456E+02 -5.928541550E+02  6.612823370E+02  1.250000000E+02  0.00000E+00  9.000E+00
      21     1     1     2   512   502 -2.326286090E+01 -3.095417960E+00 -5.559139145E+01  6.034190180E+01  6.743495762E-07  0.00000E+00  9.000E+00
#rwgt            1           1   2.2867632349055606E-002           9      109375           0
</event>
<event>
      5   9999  3.19816E-02  1.18504E+01 -1.00000E+00  1.87603E-01
      21    -1     0     0   502   501  0.000000000E+00  0.000000000E+00  3.234327594E+01  3.234327594E+01  0.000000000E+00  0.00000E+00  9.000E+00
      21    -1     0     0   511   502  0.000000000E+00  0.000000000E+00 -7.916796419E+02  7.916796419E+02  0.000000000E+00  0.00000E+00  9.000E+00
      25     1     1     2     0     0 -1.458480718E+01 -7.774325738E+01 -4.767155906E+02  4.991387432E+02  1.250000000E+02  0.00000E+00  9.000E+00
      25     1     1     2     0     0  2.053906610E+01  6.749737767E+01 -2.313372104E+02  2.722492500E+02  1.250000000E+02  0.00000E+00  9.000E+00
      21     1     1     2   511   501 -5.954258917E+00  1.024587972E+01 -5.128356507E+01  5.263492469E+01  6.743495762E-07  0.00000E+00  9.000E+00
#rwgt            1           1   5.8772374095383405E-002           9      109500           0
</event>
<event>
      5   9999  3.19816E-02  9.83605E+01 -1.00000E+00  1.24152E-01
      21    -1     0     0   502   501  0.000000000E+00  0.000000000E+00  1.528717144E+03  1.528717144E+03  0.000000000E+00  0.00000E+00  9.000E+00
      21    -1     0     0   501   512  0.000000000E+00  0.000000000E+00 -3.632021795E+02  3.632021795E+02  0.000000000E+00  0.00000E+00  9.000E+00
      25     1     1     2     0     0  5.306581950E+02 -4.398662166E+01  8.192530386E+02  9.850550666E+02  1.250000000E+02  0.00000E+00  9.000E+00
      25     1     1     2     0     0 -5.680832192E+02 -4.697572508E+01  4.696418146E+02  7.490752277E+02  1.250000000E+02  0.00000E+00  9.000E+00
      21     1     1     2   502   512  3.742502420E+01  9.096234674E+01 -1.233798884E+02  1.577890295E+02  3.303624740E-06  0.00000E+00  9.000E+00
#rwgt            1           1   2.7158862778170846E-002           9      109690           0
</event>
<event>
      5   9999  3.19816E-02  3.21492E+01 -1.00000E+00  1.50982E-01
      21    -1     0     0   511   501  0.000000000E+00  0.000000000E+00  2.997142420E+02  2.997142420E+02  0.000000000E+00  0.00000E+00  9.000E+00
      21    -1     0     0   501   502  0.000000000E+00  0.000000000E+00 -3.031392816E+03  3.031392816E+03  0.000000000E+00  0.00000E+00  9.000E+00
      25     1     1     2     0     0 -8.117766921E+02  6.956580817E+01 -6.209355480E+02  1.031991644E+03  1.250000000E+02  0.00000E+00  9.000E+00
      25     1     1     2     0     0  8.439096390E+02 -6.854471093E+01 -2.095485153E+03  2.263529298E+03  1.250000000E+02  0.00000E+00  9.000E+00
      21     1     1     2   511   502 -3.213294694E+01 -1.021097243E+00 -1.525787283E+01  3.558611530E+01  2.384185791E-07  0.00000E+00  9.000E+00
#rwgt            1           1   2.6325888815126298E-002           9      109781           0
</event>
<event>
      5   9999  3.19816E-02  4.66744E+01 -1.00000E+00  1.40803E-01
      21    -1     0     0   502   512  0.000000000E+00  0.000000000E+00  1.250108952E+02  1.250108952E+02  0.000000000E+00  0.00000E+00  9.000E+00
      21    -1     0     0   501   502  0.000000000E+00  0.000000000E+00 -1.124548478E+03  1.124548478E+03  0.000000000E+00  0.00000E+00  9.000E+00
      25     1     1     2     0     0  8.450652866E+01 -1.582057292E+02 -1.645783289E+01  2.192402025E+02  1.250000000E+02  0.00000E+00  9.000E+00
      25     1     1     2     0     0 -5.111294381E+01  1.908150841E+02 -9.330874997E+02  9.619252630E+02  1.250000000E+02  0.00000E+00  9.000E+00
      21     1     1     2   501   512 -3.339358484E+01 -3.260935490E+01 -4.999225053E+01  6.839390798E+01  1.507891493E-06  0.00000E+00  9.000E+00
#rwgt            1           1   2.7466359049663252E-002           9      110081           0
</event>
<event>
      5   9999  3.19816E-02  5.66938E+01 -1.00000E+00  1.36032E-01
       2    -1     0     0   502     0  0.000000000E+00  0.000000000E+00  1.823513282E+03  1.823513282E+03  0.000000000E+00  0.00000E+00  9.000E+00
      21    -1     0     0   501   502  0.000000000E+00  0.000000000E+00 -4.165425050E+02  4.165425050E+02  0.000000000E+00  0.00000E+00  9.000E+00
      25     1     1     2     0     0  4.805161976E+02 -3.899958482E+02  6.003312367E+02  8.712147677E+02  1.250000000E+02  0.00000E+00  9.000E+00
      25     1     1     2     0     0 -5.017092447E+02  3.374122113E+02  6.028616178E+01  6.203374790E+02  1.250000000E+02  0.00000E+00  9.000E+00
       2     1     1     2   501     0  2.119304713E+01  5.258363685E+01  7.463533781E+02  7.485035399E+02  1.078959322E-05  0.00000E+00  9.000E+00
#rwgt            1           1   3.1694678341613838E-002           9      110167           0
</event>
<event>
      5   9999  3.19816E-02  4.75999E+01 -1.00000E+00  1.40305E-01
      21    -1     0     0   502   501  0.000000000E+00  0.000000000E+00  7.341569188E+02  7.341569188E+02  0.000000000E+00  0.00000E+00  9.000E+00
      21    -1     0     0   511   502  0.000000000E+00  0.000000000E+00 -5.329105214E+02  5.329105214E+02  0.000000000E+00  0.00000E+00  9.000E+00
      25     1     1     2     0     0  4.021152276E+01  2.420552296E+02 -4.308876277E+02  5.113676255E+02  1.250000000E+02  0.00000E+00  9.000E+00
      25     1     1     2     0     0 -8.750748479E+01 -2.474261526E+02  6.440651723E+02  7.066273467E+02  1.250000000E+02  0.00000E+00  9.000E+00
      21     1     1     2   511   501  4.729596204E+01  5.370923034E+00 -1.193114722E+01  4.907246798E+01  5.840038640E-07  0.00000E+00  9.000E+00
#rwgt            1           1   3.5742732260249439E-002           9      110342           0
</event>
<event>
      5   9999  3.19816E-02  3.38928E+01 -1.00000E+00  1.49449E-01
      21    -1     0     0   502   512  0.000000000E+00  0.000000000E+00  2.748253469E+03  2.748253469E+03  0.000000000E+00  0.00000E+00  9.000E+00
      21    -1     0     0   501   502  0.000000000E+00  0.000000000E+00 -3.593091084E+01  3.593091084E+01  0.000000000E+00  0.00000E+00  9.000E+00
      25     1     1     2     0     0  1.553570815E+01  7.630953000E+01  2.104216810E+02  2.568400016E+02  1.250000000E+02  0.00000E+00  9.000E+00
      25     1     1     2     0     0 -4.098219622E+01 -5.392210656E+01  3.888994856E+02  4.140711822E+02  1.250000000E+02  0.00000E+00  9.000E+00
      21     1     1     2   501   512  2.544648807E+01 -2.238742344E+01  2.113001392E+03  2.113273196E+03  4.315837288E-05  0.00000E+00  9.000E+00
#rwgt            1           1   4.5267010336352123E-002           9      110474           0
</event>
<event>
      5   9999  3.19816E-02  5.71521E+01 -1.00000E+00  1.35842E-01
      21    -1     0     0   502   501  0.000000000E+00  0.000000000E+00  6.794162732E+02  6.794162732E+02  0.000000000E+00  0.00000E+00  9.000E+00
      21    -1     0     0   511   502  0.000000000E+00  0.000000000E+00 -3.975275387E+02  3.975275387E+02  0.000000000E+00  0.00000E+00  9.000E+00
      25     1     1     2     0     0 -1.122649026E+02 -2.326456702E+02  4.907293816E+00  2.870130620E+02  1.250000000E+02  0.00000E+00  9.000E+00
      25     1     1     2     0     0  7.660584031E+01  1.879826064E+02  5.030884205E+02  5.567125595E+02  1.250000000E+02  0.00000E+00  9.000E+00
      21     1     1     2   511   501  3.565906225E+01  4.466306375E+01 -2.261069798E+02  2.332181904E+02  2.697398305E-06  0.00000E+00  9.000E+00
#rwgt            1           1   2.5523922157804049E-002           9      110555           0
</event>
<event>
      5   9999  3.19816E-02  2.63616E+02 -1.00000E+00  1.07449E-01
      21    -1     0     0   502   501  0.000000000E+00  0.000000000E+00  9.769393319E+02  9.769393319E+02  0.000000000E+00  0.00000E+00  9.000E+00
      21    -1     0     0   512   502  0.000000000E+00  0.000000000E+00 -7.518464041E+02  7.518464041E+02  0.000000000E+00  0.00000E+00  9.000E+00
      25     1     1     2     0     0 -7.415395403E+02  2.768210060E+02  1.131160181E+02  8.092780688E+02  1.250000000E+02  0.00000E+00  9.000E+00
      25     1     1     2     0     0  5.025802489E+02 -3.881406262E+02  1.060189215E+02  6.558239581E+02  1.250000000E+02  0.00000E+00  9.000E+00
      21     1     1     2   512   501  2.389592914E+02  1.113196202E+02  5.957988201E+00  2.636837091E+02  3.973444298E-06  0.00000E+00  9.000E+00
#rwgt            2          11   5.7214780581807505E-003           9      110983           0
</event>
<event>
      5   9999  3.65089E-02  1.16820E+02 -1.00000E+00  1.20865E-01
      21    -1     0     0   502   501  0.000000000E+00  0.000000000E+00  2.262393051E+03  2.262393051E+03  0.000000000E+00  0.00000E+00  9.000E+00
      21    -1     0     0   511   502  0.000000000E+00  0.000000000E+00 -1.363337397E+02  1.363337397E+02  0.000000000E+00  0.00000E+00  9.000E+00
      25     1     1     2     0     0  1.223849918E+02  1.303240772E+02  2.195701405E+02  3.095133243E+02  1.250000000E+02  0.00000E+00  9.000E+00
      25     1     1     2     0     0 -1.483354772E+02 -2.442256798E+02  1.942179496E+03  1.967062732E+03  1.250000000E+02  0.00000E+00  9.000E+00
      21     1     1     2   511   501  2.595048540E+01  1.139016026E+02 -3.569032480E+01  1.221507349E+02  1.168007728E-06  0.00000E+00  9.000E+00
#rwgt            1           1  0.10269852142444336                9      111018           0
</event>
<event>
      5   9999  3.19816E-02  4.47174E+01 -1.00000E+00  1.41900E-01
      21    -1     0     0   502   512  0.000000000E+00  0.000000000E+00  1.532055415E+03  1.532055415E+03  0.000000000E+00  0.00000E+00  9.000E+00
      21    -1     0     0   501   502  0.000000000E+00  0.000000000E+00 -1.158966495E+02  1.158966495E+02  0.000000000E+00  0.00000E+00  9.000E+00
      25     1     1     2     0     0  1.915585178E+02  1.211346171E+02  9.259345951E+01  2.748941795E+02  1.250000000E+02  0.00000E+00  9.000E+00
      25     1     1     2     0     0 -2.209440808E+02 -1.548412117E+02  9.161698608E+02  9.632156049E+02  1.250000000E+02  0.00000E+00  9.000E+00
      21     1     1     2   501   512  2.938556304E+01  3.370659462E+01  4.073954447E+02  4.098422797E+02  5.394796609E-06  0.00000E+00  9.000E+00
#rwgt            1           1   2.8239188341583871E-002           9      111108           0
</event>
<event>
      5   9999  3.19816E-02  1.15620E+01 -1.00000E+00  1.88742E-01
      21    -1     0     0   502   501  0.000000000E+00  0.000000000E+00  8.743597482E+02  8.743597482E+02  0.000000000E+00  0.00000E+00  9.000E+00
      21    -1     0     0   511   502  0.000000000E+00  0.000000000E+00 -1.866302072E+02  1.866302072E+02  0.000000000E+00  0.00000E+00  9.000E+00
      25     1     1     2     0     0  1.652720347E+02 -3.206308392E+02  4.662204114E+02  6.025823200E+02  1.250000000E+02  0.00000E+00  9.000E+00
      25     1     1     2     0     0 -1.767711124E+02  3.218358503E+02  2.218451697E+02  4.468407099E+02  1.250000000E+02  0.00000E+00  9.000E+00
      21     1     1     2   511   501  1.149907775E+01 -1.205011157E+00 -3.360400522E-01  1.156692543E+01  2.351068456E-07  0.00000E+00  9.000E+00
#rwgt            1           1   2.9254027042181573E-002           9      111175           0
</event>
<event>
      5   9999  3.19816E-02  1.73192E+01 -1.00000E+00  1.71697E-01
      21    -1     0     0   512   501  0.000000000E+00  0.000000000E+00  5.471646405E+02  5.471646405E+02  0.000000000E+00  0.00000E+00  9.000E+00
      21    -1     0     0   501   502  0.000000000E+00  0.000000000E+00 -2.394943509E+02  2.394943509E+02  0.000000000E+00  0.00000E+00  9.000E+00
      25     1     1     2     0     0  1.201493637E+02 -3.043592884E+02  2.155527212E+02  4.112887327E+02  1.250000000E+02  0.00000E+00  9.000E+00
      25     1     1     2     0     0 -1.280816128E+02  2.889633249E+02  6.957771616E+01  3.469448966E+02  1.250000000E+02  0.00000E+00  9.000E+00
      21     1     1     2   512   502  7.932249107E+00  1.539596351E+01  2.253985220E+01  2.842536201E+01  3.371747881E-07  0.00000E+00  9.000E+00
#rwgt            1           1   3.0007333124809400E-002           9      111390           0
</event>
<event>
      5   9999  3.19816E-02  3.43939E+01 -1.00000E+00  1.49028E-01
      21    -1     0     0   502   501  0.000000000E+00  0.000000000E+00  4.808452338E+02  4.808452338E+02  0.000000000E+00  0.00000E+00  9.000E+00
      21    -1     0     0   511   502  0.000000000E+00  0.000000000E+00 -6.840903378E+02  6.840903378E+02  0.000000000E+00  0.00000E+00  9.000E+00
      25     1     1     2     0     0 -1.778283974E+02  3.949201800E+02 -4.111836423E+02  6.101490599E+02  1.250000000E+02  0.00000E+00  9.000E+00
      25     1     1     2     0     0  2.040723546E+02 -3.726896946E+02  2.434023587E+02  5.053838567E+02  1.250000000E+02  0.00000E+00  9.000E+00
      21     1     1     2   511   501 -2.624395715E+01 -2.223048542E+01 -3.546382037E+01  4.940265503E+01  0.000000000E+00  0.00000E+00  9.000E+00
#rwgt            1           1   2.9440332667684314E-002           9      111579           0
</event>
<event>
      5   9999  3.19816E-02  1.09576E+02 -1.00000E+00  1.22068E-01
      21    -1     0     0   512   501  0.000000000E+00  0.000000000E+00  7.095273589E+02  7.095273589E+02  0.000000000E+00  0.00000E+00  9.000E+00
      21    -1     0     0   501   502  0.000000000E+00  0.000000000E+00 -7.613454820E+02  7.613454820E+02  0.000000000E+00  0.00000E+00  9.000E+00
      25     1     1     2     0     0 -5.729945680E+02  9.030829389E-01  1.218942827E+02  5.990048470E+02  1.250000000E+02  0.00000E+00  9.000E+00
      25     1     1     2     0     0  6.417554775E+02  8.441353773E+01 -2.827171309E+02  7.173072663E+02  1.250000000E+02  0.00000E+00  9.000E+00
      21     1     1     2   512   502 -6.876090944E+01 -8.531662067E+01  1.090047251E+02  1.545607276E+02  0.000000000E+00  0.00000E+00  9.000E+00
#rwgt            1           1   3.4428135704226308E-002           9      111711           0
</event>
<event>
      5   9999  3.19816E-02  1.12101E+02 -1.00000E+00  1.21637E-01
       2    -1     0     0   502     0  0.000000000E+00  0.000000000E+00  8.835903443E+02  8.835903443E+02  0.000000000E+00  0.00000E+00  9.000E+00
      21    -1     0     0   501   502  0.000000000E+00  0.000000000E+00 -9.085505657E+01  9.085505657E+01  0.000000000E+00  0.00000E+00  9.000E+00
      25     1     1     2     0     0  7.709389459E+01 -3.795927512E+01  1.172363940E+01  1.521407863E+02  1.250000000E+02  0.00000E+00  9.000E+00
      25     1     1     2     0     0 -3.392541157E+01 -6.549624646E+01  4.497109002E+02  4.725522041E+02  1.250000000E+02  0.00000E+00  9.000E+00
       2     1     1     2   501     0 -4.316848301E+01  1.034555216E+02  3.313007482E+02  3.497524105E+02  3.814697266E-06  0.00000E+00  9.000E+00
#rwgt            1           1   2.5332477109053810E-002           9      111793           0
</event>
<event>
      5   9999  3.19816E-02  1.27319E+01 -1.00000E+00  1.84364E-01
      21    -1     0     0   502   501  0.000000000E+00  0.000000000E+00  2.316852175E+02  2.316852175E+02  0.000000000E+00  0.00000E+00  9.000E+00
      21    -1     0     0   511   502  0.000000000E+00  0.000000000E+00 -2.626400233E+03  2.626400233E+03  0.000000000E+00  0.00000E+00  9.000E+00
      25     1     1     2     0     0 -5.553813276E+02  5.192611476E+02 -9.771168350E+02  1.244372479E+03  1.250000000E+02  0.00000E+00  9.000E+00
      25     1     1     2     0     0  5.444823247E+02 -5.126798015E+02 -1.396598303E+03  1.589154933E+03  1.250000000E+02  0.00000E+00  9.000E+00
      21     1     1     2   511   501  1.089900282E+01 -6.581346096E+00 -2.099987741E+01  2.455803799E+01  2.384185791E-07  0.00000E+00  9.000E+00
#rwgt            1           1   3.9140419573879377E-002           9      111864           0
</event>
<event>
      5   9999  3.19816E-02  6.01745E+00 -1.00000E+00  2.25276E-01
      21    -1     0     0   502   501  0.000000000E+00  0.000000000E+00  1.195560402E+03  1.195560402E+03  0.000000000E+00  0.00000E+00  9.000E+00
      21    -1     0     0   501   512  0.000000000E+00  0.000000000E+00 -7.700425260E+02  7.700425260E+02  0.000000000E+00  0.00000E+00  9.000E+00
      25     1     1     2     0     0  3.324415013E+02  1.449893172E+02 -1.343664035E+02  4.064708899E+02  1.250000000E+02  0.00000E+00  9.000E+00
      25     1     1     2     0     0 -3.280526533E+02 -1.491060795E+02  1.025161729E+03  1.093815678E+03  1.250000000E+02  0.00000E+00  9.000E+00
      21     1     1     2   502   512 -4.388848057E+00  4.116762298E+00 -4.652774498E+02  4.653163601E+02  0.000000000E+00  0.00000E+00  9.000E+00
#rwgt            1           1   3.1720351643754315E-002           9      112165           0
</event>
<event>
      5   9999  3.19816E-02  9.73546E+00 -1.00000E+00  1.97113E-01
      21    -1     0     0   502   501  0.000000000E+00  0.000000000E+00  3.492675586E+02  3.492675586E+02  0.000000000E+00  0.00000E+00  9.000E+00
      21    -1     0     0   501   511  0.000000000E+00  0.000000000E+00 -4.917645739E+02  4.917645739E+02  0.000000000E+00  0.00000E+00  9.000E+00
      25     1     1     2     0     0 -2.426954014E+02 -1.002890528E+02 -1.798224747E+02  3.419357752E+02  1.250000000E+02  0.00000E+00  9.000E+00
      25     1     1     2     0     0  2.524221702E+02  9.987770825E+01  1.847474360E+02  3.513532748E+02  1.250000000E+02  0.00000E+00  9.000E+00
      21     1     1     2   502   511 -9.726768810E+00  4.113445959E-01 -1.474219766E+02  1.477430825E+02  1.907348633E-06  0.00000E+00  9.000E+00
#rwgt            1           1   3.3764341912938610E-002           9      112697           0
</event>
<event>
      5   9999  3.19816E-02  1.35519E+02 -1.00000E+00  1.18168E-01
      21    -1     0     0   502   501  0.000000000E+00  0.000000000E+00  5.551939121E+02  5.551939121E+02  0.000000000E+00  0.00000E+00  9.000E+00
      21    -1     0     0   501   512  0.000000000E+00  0.000000000E+00 -8.774016751E+02  8.774016751E+02  0.000000000E+00  0.00000E+00  9.000E+00
      25     1     1     2     0     0  4.238532945E+02  2.879726245E+02 -2.138555465E+02  5.691564306E+02  1.250000000E+02  0.00000E+00  9.000E+00
      25     1     1     2     0     0 -3.735063866E+02 -1.621526172E+02  2.405286488E+02  4.891620621E+02  1.250000000E+02  0.00000E+00  9.000E+00
      21     1     1     2   502   512 -5.034690784E+01 -1.258200074E+02 -3.488808653E+02  3.742770946E+02  0.000000000E+00  0.00000E+00  9.000E+00
#rwgt            1           1   3.1904659378631892E-002           9      112939           0
</event>
<event>
      5   9999  3.19816E-02  5.63063E+01 -1.00000E+00  1.36195E-01
      21    -1     0     0   511   501  0.000000000E+00  0.000000000E+00  8.692144966E+02  8.692144966E+02  0.000000000E+00  0.00000E+00  9.000E+00
      21    -1     0     0   501   502  0.000000000E+00  0.000000000E+00 -4.475935815E+02  4.475935815E+02  0.000000000E+00  0.00000E+00  9.000E+00
      25     1     1     2     0     0 -1.277307159E+02 -5.203872291E+02  6.465609942E+01  5.540066924E+02  1.250000000E+02  0.00000E+00  9.000E+00
      25     1     1     2     0     0  1.386624345E+02  5.756221797E+02  2.783109917E+02  6.660706964E+02  1.250000000E+02  0.00000E+00  9.000E+00
      21     1     1     2   511   502 -1.093171860E+01 -5.523495056E+01  7.865382391E+01  9.673068930E+01  1.651812370E-06  0.00000E+00  9.000E+00
#rwgt            1           1   3.0021363367863308E-002           9      113022           0
</event>
<event>
      5   9999  3.19816E-02  1.70735E+02 -1.00000E+00  1.14208E-01
      21    -1     0     0   502   501  0.000000000E+00  0.000000000E+00  6.035018718E+02  6.035018718E+02  0.000000000E+00  0.00000E+00  9.000E+00
      21    -1     0     0   512   502  0.000000000E+00  0.000000000E+00 -5.295219672E+02  5.295219672E+02  0.000000000E+00  0.00000E+00  9.000E+00
      25     1     1     2     0     0 -2.027114211E+02  2.174196522E+02  4.354832762E+02  5.418799768E+02  1.250000000E+02  0.00000E+00  9.000E+00
      25     1     1     2     0     0  8.890973491E+01 -9.014205004E+01  1.417951739E+01  1.784841418E+02  1.250000000E+02  0.00000E+00  9.000E+00
      21     1     1     2   512   501  1.138016862E+02 -1.272776021E+02 -3.756828890E+02  4.126597204E+02  0.000000000E+00  0.00000E+00  9.000E+00
#rwgt            1           1   3.1467047480385334E-002           9      113135           0
</event>
<event>
      5   9999  3.19816E-02  9.69413E+01 -1.00000E+00  1.24438E-01
      -2    -1     0     0     0   501  0.000000000E+00  0.000000000E+00  2.464347652E+03  2.464347652E+03  0.000000000E+00  0.00000E+00  9.000E+00
      21    -1     0     0   501   502  0.000000000E+00  0.000000000E+00 -1.378019374E+02  1.378019374E+02  0.000000000E+00  0.00000E+00  9.000E+00
      25     1     1     2     0     0  1.909996037E+02 -1.284002541E+02  6.316688595E+01  2.694114499E+02  1.250000000E+02  0.00000E+00  9.000E+00
      25     1     1     2     0     0 -1.047716801E+02  1.726987357E+02  3.885846929E+02  4.554393723E+02  1.250000000E+02  0.00000E+00  9.000E+00
      -2     1     1     2     0   502 -8.622792360E+01 -4.429848151E+01  1.874794136E+03  1.877298767E+03  2.157918644E-05  0.00000E+00  9.000E+00
#rwgt            2           4   3.8882482280265553E-005           9      113247           0
</event>
<event>
      5   9999  3.19816E-02  9.24289E+01 -1.00000E+00  1.25386E-01
      21    -1     0     0   502   511  0.000000000E+00  0.000000000E+00  8.194037710E+02  8.194037710E+02  0.000000000E+00  0.00000E+00  9.000E+00
      21    -1     0     0   501   502  0.000000000E+00  0.000000000E+00 -8.141786056E+02  8.141786056E+02  0.000000000E+00  0.00000E+00  9.000E+00
      25     1     1     2     0     0  4.022280548E+02  3.467266164E+02  2.808266986E+01  5.462786752E+02  1.250000000E+02  0.00000E+00  9.000E+00
      25     1     1     2     0     0 -3.108387560E+02 -3.329030060E+02 -4.487507304E+02  6.514962484E+02  1.250000000E+02  0.00000E+00  9.000E+00
      21     1     1     2   501   511 -9.138929876E+01 -1.382361040E+01  4.258932260E+02  4.358074529E+02  0.000000000E+00  0.00000E+00  9.000E+00
#rwgt            1           1   3.3162261493910661E-002           9      113281           0
</event>
<event>
      5   9999  3.19816E-02  5.35547E+01 -1.00000E+00  1.37395E-01
      21    -1     0     0   502   501  0.000000000E+00  0.000000000E+00  1.526603122E+03  1.526603122E+03  0.000000000E+00  0.00000E+00  9.000E+00
      21    -1     0     0   512   502  0.000000000E+00  0.000000000E+00 -3.405331447E+02  3.405331447E+02  0.000000000E+00  0.00000E+00  9.000E+00
      25     1     1     2     0     0  4.850929789E+02 -5.004563002E+01 -9.489897144E+00  5.035224140E+02  1.250000000E+02  0.00000E+00  9.000E+00
      25     1     1     2     0     0 -4.884297550E+02  1.034962788E+02  1.204002638E+03  1.309397746E+03  1.250000000E+02  0.00000E+00  9.000E+00
      21     1     1     2   512   501  3.336776123E+00 -5.345064875E+01 -8.442763780E+00  5.421610634E+01  1.192092896E-06  0.00000E+00  9.000E+00
#rwgt            1           1   3.1254261308730415E-002           9      113337           0
</event>
<event>
      5   9999  3.19816E-02  3.24262E+01 -1.00000E+00  1.50730E-01
      21    -1     0     0   511   501  0.000000000E+00  0.000000000E+00  5.246628052E+02  5.246628052E+02  0.000000000E+00  0.00000E+00  9.000E+00
      21    -1     0     0   501   502  0.000000000E+00  0.000000000E+00 -5.050126353E+02  5.050126353E+02  0.000000000E+00  0.00000E+00  9.000E+00
      25     1     1     2     0     0  4.370521964E+02  6.797230922E+01 -9.994757864E+01  4.703715294E+02  1.250000000E+02  0.00000E+00  9.000E+00
      25     1     1     2     0     0 -4.672577045E+02 -7.976587850E+01  6.324068372E+01  4.942840700E+02  1.250000000E+02  0.00000E+00  9.000E+00
      21     1     1     2   511   502  3.020550805E+01  1.179356928E+01  5.635706479E+01  6.501984116E+01  0.000000000E+00  0.00000E+00  9.000E+00
#rwgt            1           1   2.9239850764330208E-002           9      113500           0
</event>
<event>
      5   9999  3.19816E-02  2.15079E+02 -1.00000E+00  1.10511E-01
      21    -1     0     0   502   501  0.000000000E+00  0.000000000E+00  1.006975490E+03  1.006975490E+03  0.000000000E+00  0.00000E+00  9.000E+00
      21    -1     0     0   512   502  0.000000000E+00  0.000000000E+00 -1.077081422E+02  1.077081422E+02  0.000000000E+00  0.00000E+00  9.000E+00
      25     1     1     2     0     0  5.432342468E+01 -1.166441565E+02  2.610370259E+02  3.167368350E+02  1.250000000E+02  0.00000E+00  9.000E+00
      25     1     1     2     0     0 -1.650260432E+02 -6.775719588E+01  4.914331977E+02  5.375464821E+02  1.250000000E+02  0.00000E+00  9.000E+00
      21     1     1     2   512   501  1.107026185E+02  1.844013524E+02  1.467971243E+02  2.604003153E+02  5.046370146E-06  0.00000E+00  9.000E+00
#rwgt            1           1   2.2467894856997225E-002           9      113641           0
</event>
<event>
      5   9999  3.19816E-02  1.11317E+02 -1.00000E+00  1.21769E-01
      21    -1     0     0   502   501  0.000000000E+00  0.000000000E+00  1.561709994E+02  1.561709994E+02  0.000000000E+00  0.00000E+00  9.000E+00
      21    -1     0     0   511   502  0.000000000E+00  0.000000000E+00 -1.416034260E+03  1.416034260E+03  0.000000000E+00  0.00000E+00  9.000E+00
      25     1     1     2     0     0  3.033452651E+02  2.817317459E+02 -5.723406027E+02  7.173492120E+02  1.250000000E+02  0.00000E+00  9.000E+00
      25     1     1     2     0     0 -3.162354514E+02 -1.711635372E+02 -4.300084303E+02  5.743118206E+02  1.250000000E+02  0.00000E+00  9.000E+00
      21     1     1     2   511   501  1.289018631E+01 -1.105682087E+02 -2.575142276E+02  2.805442266E+02  3.814697266E-06  0.00000E+00  9.000E+00
#rwgt            1           1   3.4697970037631337E-002           9      113671           0
</event>
<event>
      5   9999  3.19816E-02  3.08892E+01 -1.00000E+00  1.52164E-01
      21    -1     0     0   502   501  0.000000000E+00  0.000000000E+00  3.742891612E+02  3.742891612E+02  0.000000000E+00  0.00000E+00  9.000E+00
      21    -1     0     0   501   512  0.000000000E+00  0.000000000E+00 -2.561733315E+02  2.561733315E+02  0.000000000E+00  0.00000E+00  9.000E+00
      25     1     1     2     0     0 -2.351520348E+02 -1.393275030E+02  1.170674900E+01  3.007834446E+02  1.250000000E+02  0.00000E+00  9.000E+00
      25     1     1     2     0     0  2.043236239E+02  1.412645881E+02  1.090027369E+02  2.986811407E+02  1.250000000E+02  0.00000E+00  9.000E+00
      21     1     1     2   502   512  3.082841089E+01 -1.937085133E+00 -2.593656198E+00  3.099790750E+01  7.384724434E-07  0.00000E+00  9.000E+00
#rwgt            1           1   2.6874700204846683E-002           9      113735           0
</event>
<event>
      5   9999  3.19816E-02  1.39816E+02 -1.00000E+00  1.17617E-01
      21    -1     0     0   502   501  0.000000000E+00  0.000000000E+00  4.459478440E+02  4.459478440E+02  0.000000000E+00  0.00000E+00  9.000E+00
      21    -1     0     0   511   502  0.000000000E+00  0.000000000E+00 -4.114389686E+02  4.114389686E+02  0.000000000E+00  0.00000E+00  9.000E+00
      25     1     1     2     0     0  3.017479808E+02  9.433153967E+00 -5.584341463E+01  3.314880319E+02  1.250000000E+02  0.00000E+00  9.000E+00
      25     1     1     2     0     0 -2.981398636E+02  1.303358031E+02  1.426420404E+02  3.766252136E+02  1.250000000E+02  0.00000E+00  9.000E+00
      21     1     1     2   511   501 -3.608117201E+00 -1.397689570E+02 -5.228975039E+01  1.492735672E+02  3.754619538E-06  0.00000E+00  9.000E+00
#rwgt            1           1   2.6794316120921972E-002           9      113834           0
</event>
<event>
      5   9999  3.19816E-02  8.65954E+01 -1.00000E+00  1.26706E-01
      21    -1     0     0   502   501  0.000000000E+00  0.000000000E+00  3.097354385E+01  3.097354385E+01  0.000000000E+00  0.00000E+00  9.000E+00
       1    -1     0     0   501     0  0.000000000E+00  0.000000000E+00 -2.694081928E+03  2.694081928E+03  0.000000000E+00  0.00000E+00  9.000E+00
      25     1     1     2     0     0 -1.657506526E+02 -1.633664931E+02 -1.295668166E+03  1.322324804E+03  1.250000000E+02  0.00000E+00  9.000E+00
      25     1     1     2     0     0  1.668830977E+02  7.677851727E+01 -8.773317170E+02  9.050308562E+02  1.250000000E+02  0.00000E+00  9.000E+00
       1     1     1     2   502     0 -1.132445184E+00  8.658797580E+01 -4.901085009E+02  4.976998118E+02  9.344061824E-06  0.00000E+00  9.000E+00
#rwgt            1           1   8.2320838290142653E-002           9      113880           0
</event>
<event>
      5   9999  3.19816E-02  1.82079E+01 -1.00000E+00  1.69805E-01
      21    -1     0     0   502   511  0.000000000E+00  0.000000000E+00  9.915376227E+02  9.915376227E+02  0.000000000E+00  0.00000E+00  9.000E+00
      21    -1     0     0   501   502  0.000000000E+00  0.000000000E+00 -5.219220409E+02  5.219220409E+02  0.000000000E+00  0.00000E+00  9.000E+00
      25     1     1     2     0     0  1.501819729E+02 -2.868086650E+01 -1.931040219E+02  2.762089434E+02  1.250000000E+02  0.00000E+00  9.000E+00
      25     1     1     2     0     0 -1.564829318E+02  4.576375596E+01 -2.504321735E+02  3.239174321E+02  1.250000000E+02  0.00000E+00  9.000E+00
      21     1     1     2   501   511  6.300958855E+00 -1.708288946E+01  9.131517772E+02  9.133332882E+02  1.078959322E-05  0.00000E+00  9.000E+00
#rwgt            1           1   3.1134935344063617E-002           9      113931           0
</event>
<event>
      5   9999  3.19816E-02  2.11985E+02 -1.00000E+00  1.10736E-01
      21    -1     0     0   502   501  0.000000000E+00  0.000000000E+00  4.278528835E+02  4.278528835E+02  0.000000000E+00  0.00000E+00  9.000E+00
       2    -1     0     0   501     0  0.000000000E+00  0.000000000E+00 -2.467167308E+02  2.467167308E+02  0.000000000E+00  0.00000E+00  9.000E+00
      25     1     1     2     0     0  2.346699143E+02  1.255186994E+02  7.552879207E+01  3.035696147E+02  1.250000000E+02  0.00000E+00  9.000E+00
      25     1     1     2     0     0 -6.546005152E+01  2.174909171E+00  2.064128944E+01  1.426212165E+02  1.250000000E+02  0.00000E+00  9.000E+00
       2     1     1     2   502     0 -1.692098628E+02 -1.276936086E+02  8.496607118E+01  2.283787831E+02  0.000000000E+00  0.00000E+00  9.000E+00
#rwgt            1           1   2.6978924830649710E-002           9      114044           0
</event>
<event>
      5   9999  3.19816E-02  7.05440E+01 -1.00000E+00  1.31051E-01
       2    -1     0     0   502     0  0.000000000E+00  0.000000000E+00  3.553402898E+03  3.553402898E+03  0.000000000E+00  0.00000E+00  9.000E+00
      21    -1     0     0   501   502  0.000000000E+00  0.000000000E+00 -8.894252320E+01  8.894252320E+01  0.000000000E+00  0.00000E+00  9.000E+00
      25     1     1     2     0     0 -1.054642610E+02 -2.850860442E+02  2.923327565E+02  4.398638465E+02  1.250000000E+02  0.00000E+00  9.000E+00
      25     1     1     2     0     0  4.898829368E+01  2.428140386E+02  1.312027250E+03  1.341044002E+03  1.250000000E+02  0.00000E+00  9.000E+00
       2     1     1     2   501     0  5.647596733E+01  4.227200559E+01  1.860100368E+03  1.861437573E+03  3.737624730E-05  0.00000E+00  9.000E+00
#rwgt            1           1   3.2000480187065201E-002           9      114079           0
</event>
<event>
      5   9999  3.19816E-02  8.37071E+00 -1.00000E+00  2.05131E-01
      21    -1     0     0   511   501  0.000000000E+00  0.000000000E+00  3.553694136E+02  3.553694136E+02  0.000000000E+00  0.00000E+00  9.000E+00
      21    -1     0     0   501   502  0.000000000E+00  0.000000000E+00 -1.560253408E+03  1.560253408E+03  0.000000000E+00  0.00000E+00  9.000E+00
      25     1     1     2     0     0 -5.316449516E+01 -6.517725544E+02 -9.283871469E+02  1.142436703E+03  1.250000000E+02  0.00000E+00  9.000E+00
      25     1     1     2     0     0  6.088359011E+01  6.550105204E+02 -3.105539495E+02  7.381154036E+02  1.250000000E+02  0.00000E+00  9.000E+00
      21     1     1     2   511   502 -7.719094950E+00 -3.237965996E+00  3.405710201E+01  3.507071497E+01  9.536743164E-07  0.00000E+00  9.000E+00
#rwgt            1           1   2.6476853700742105E-002           9      114146           0
</event>
<event>
      5   9999  3.19816E-02  5.10797E+01 -1.00000E+00  1.38548E-01
      21    -1     0     0   502   501  0.000000000E+00  0.000000000E+00  2.497292033E+02  2.497292033E+02  0.000000000E+00  0.00000E+00  9.000E+00
      21    -1     0     0   501   512  0.000000000E+00  0.000000000E+00 -1.002738937E+03  1.002738937E+03  0.000000000E+00  0.00000E+00  9.000E+00
      25     1     1     2     0     0 -1.392789439E+02 -7.180007636E+01  1.800027763E+02  2.694065231E+02  1.250000000E+02  0.00000E+00  9.000E+00
      25     1     1     2     0     0  1.856251905E+02  9.327484021E+01 -8.629108351E+02  8.963241693E+02  1.250000000E+02  0.00000E+00  9.000E+00
      21     1     1     2   502   512 -4.634624658E+01 -2.147476385E+01 -7.010167532E+01  8.673744830E+01  9.536743164E-07  0.00000E+00  9.000E+00
#rwgt            1           1   2.8352059018011948E-002           9      114400           0
</event>
<event>
      5   9999  3.19816E-02  6.89151E+01 -1.00000E+00  1.31565E-01
      21    -1     0     0   502   501  0.000000000E+00  0.000000000E+00  9.323800520E+01  9.323800520E+01  0.000000000E+00  0.00000E+00  9.000E+00
      21    -1     0     0   511   502  0.000000000E+00  0.000000000E+00 -8.059442443E+02  8.059442443E+02  0.000000000E+00  0.00000E+00  9.000E+00
      25     1     1     2     0     0  1.205094083E+01 -1.284824828E+02 -3.406536773E+01  1.828617588E+02  1.250000000E+02  0.00000E+00  9.000E+00
      25     1     1     2     0     0 -5.149712865E+01  7.197328015E+01 -5.428651482E+02  5.640564479E+02  1.250000000E+02  0.00000E+00  9.000E+00
      21     1     1     2   511   501  3.944618781E+01  5.650920264E+01 -1.357757232E+02  1.522640428E+02  1.907348633E-06  0.00000E+00  9.000E+00
#rwgt            1           1   2.7968360622065064E-002           9      114511           0
</event>
<event>
      5   9999  3.19816E-02  2.27366E+02 -1.00000E+00  1.09657E-01
      21    -1     0     0   502   512  0.000000000E+00  0.000000000E+00  1.497920459E+03  1.497920459E+03  0.000000000E+00  0.00000E+00  9.000E+00
      21    -1     0     0   501   502  0.000000000E+00  0.000000000E+00 -4.839528024E+02  4.839528024E+02  0.000000000E+00  0.00000E+00  9.000E+00
      25     1     1     2     0     0  1.249914477E+02  2.790252139E+02  2.042743546E+02  3.883695971E+02  1.250000000E+02  0.00000E+00  9.000E+00
      25     1     1     2     0     0 -7.219658526E+01 -5.001771032E+02 -2.006298058E+02  5.579128969E+02  1.250000000E+02  0.00000E+00  9.000E+00
      21     1     1     2   501   512 -5.279486244E+01  2.211518893E+02  1.010323108E+03  1.035590768E+03  1.525878906E-05  0.00000E+00  9.000E+00
#rwgt            2          11   2.1099202319135014E-003           9      114657           0
</event>
<event>
      5   9999  3.19816E-02  1.26586E+02 -1.00000E+00  1.19392E-01
      21    -1     0     0   511   501  0.000000000E+00  0.000000000E+00  3.794171939E+02  3.794171939E+02  0.000000000E+00  0.00000E+00  9.000E+00
      21    -1     0     0   501   502  0.000000000E+00  0.000000000E+00 -8.109825209E+02  8.109825209E+02  0.000000000E+00  0.00000E+00  9.000E+00
      25     1     1     2     0     0  9.988337249E+01 -4.661515820E+01 -1.966283064E+02  2.577544412E+02  1.250000000E+02  0.00000E+00  9.000E+00
      25     1     1     2     0     0 -2.133426370E+02  1.027487086E+02 -5.397910936E+02  6.025543981E+02  1.250000000E+02  0.00000E+00  9.000E+00
      21     1     1     2   511   502  1.134592645E+02 -5.613355044E+01  3.048540731E+02  3.300908755E+02  5.394796609E-06  0.00000E+00  9.000E+00
#rwgt            1           1   2.6794722416195838E-002           9      114692           0
</event>
<event>
      5   9999  3.19816E-02  7.58172E+01 -1.00000E+00  1.29489E-01
      21    -1     0     0   502   501  0.000000000E+00  0.000000000E+00  3.862447875E+02  3.862447875E+02  0.000000000E+00  0.00000E+00  9.000E+00
      21    -1     0     0   501   512  0.000000000E+00  0.000000000E+00 -1.979512085E+03  1.979512085E+03  0.000000000E+00  0.00000E+00  9.000E+00
      25     1     1     2     0     0  3.765242485E+02 -6.294357323E+01 -1.467694985E+03  1.521672098E+03  1.250000000E+02  0.00000E+00  9.000E+00
      25     1     1     2     0     0 -4.415147019E+02  2.389890136E+01  2.062889646E+02  5.036730352E+02  1.250000000E+02  0.00000E+00  9.000E+00
      21     1     1     2   502   512  6.499045334E+01  3.904467187E+01 -3.318612763E+02  3.404117391E+02  0.000000000E+00  0.00000E+00  9.000E+00
#rwgt            1           1   2.9714049230742331E-002           9      114747           0
</event>
<event>
      5   9999  3.89145E-02  3.50061E+01 -1.00000E+00  1.48526E-01
      21    -1     0     0   502   511  0.000000000E+00  0.000000000E+00  2.208777349E+03  2.208777349E+03  0.000000000E+00  0.00000E+00  9.000E+00
      21    -1     0     0   501   502  0.000000000E+00  0.000000000E+00 -3.358763207E+01  3.358763207E+01  0.000000000E+00  0.00000E+00  9.000E+00
      25     1     1     2     0     0  7.137742004E+01 -1.089622040E+02  1.510033391E+03  1.520787079E+03  1.250000000E+02  0.00000E+00  9.000E+00
      25     1     1     2     0     0 -6.404242282E+01  1.431911964E+02  3.415907912E+02  3.961242473E+02  1.250000000E+02  0.00000E+00  9.000E+00
      21     1     1     2   501   511 -7.334997221E+00 -3.422899233E+01  3.235655346E+02  3.254536546E+02  3.814697266E-06  0.00000E+00  9.000E+00
#rwgt            1           1  0.10953506835644461                9      114883           0
</event>
<event>
      5   9999  3.19816E-02  1.86258E+01 -1.00000E+00  1.68961E-01
      21    -1     0     0   502   512  0.000000000E+00  0.000000000E+00  4.644707118E+02  4.644707118E+02  0.000000000E+00  0.00000E+00  9.000E+00
      21    -1     0     0   501   502  0.000000000E+00  0.000000000E+00 -6.924588356E+02  6.924588356E+02  0.000000000E+00  0.00000E+00  9.000E+00
      25     1     1     2     0     0 -4.243144361E+02  1.130656718E+02 -1.191651346E+02  4.718600599E+02  1.250000000E+02  0.00000E+00  9.000E+00
      25     1     1     2     0     0  4.235368777E+02 -1.316752141E+02 -2.624562098E+02  5.303113339E+02  1.250000000E+02  0.00000E+00  9.000E+00
      21     1     1     2   501   512  7.775584063E-01  1.860954239E+01  1.536332205E+02  1.547581536E+02  2.697398305E-06  0.00000E+00  9.000E+00
#rwgt            1           1   2.8735312954020209E-002           9      114961           0
</event>
<event>
      5   9999  3.19816E-02  1.49444E+02 -1.00000E+00  1.16458E-01
      21    -1     0     0   502   501  0.000000000E+00  0.000000000E+00  5.190052486E+02  5.190052486E+02  0.000000000E+00  0.00000E+00  9.000E+00
       2    -1     0     0   501     0  0.000000000E+00  0.000000000E+00 -9.508002405E+02  9.508002405E+02  0.000000000E+00  0.00000E+00  9.000E+00
      25     1     1     2     0     0 -2.787963629E+02  4.524890769E+01  3.816758874E+02  4.909952736E+02  1.250000000E+02  0.00000E+00  9.000E+00
      25     1     1     2     0     0  1.350213813E+02 -4.479600075E+00 -3.655133271E+01  1.876481818E+02  1.250000000E+02  0.00000E+00  9.000E+00
       2     1     1     2   502     0  1.437749816E+02 -4.076930761E+01 -7.769195465E+02  7.911620337E+02  0.000000000E+00  0.00000E+00  9.000E+00
#rwgt            2          13   2.0989277391262814E-003           9      115431           0
</event>
<event>
      5   9999  3.19816E-02  1.39133E+01 -1.00000E+00  1.80517E-01
      21    -1     0     0   502   501  0.000000000E+00  0.000000000E+00  9.588245498E+02  9.588245498E+02  0.000000000E+00  0.00000E+00  9.000E+00
      21    -1     0     0   511   502  0.000000000E+00  0.000000000E+00 -6.873922477E+01  6.873922477E+01  0.000000000E+00  0.00000E+00  9.000E+00
      25     1     1     2     0     0  1.544727856E+02  1.274637790E+02  4.782947333E+02  5.333851407E+02  1.250000000E+02  0.00000E+00  9.000E+00
      25     1     1     2     0     0 -1.683583817E+02 -1.265860529E+02  4.130459133E+02  4.802088087E+02  1.250000000E+02  0.00000E+00  9.000E+00
      21     1     1     2   511   501  1.388559614E+01 -8.777261832E-01 -1.255321488E+00  1.396982518E+01  6.664001875E-08  0.00000E+00  9.000E+00
#rwgt            1           1   3.6454548482313789E-002           9      115480           0
</event>
<event>
      5   9999  3.19816E-02  9.36855E+01 -1.00000E+00  1.25116E-01
      21    -1     0     0   502   501  0.000000000E+00  0.000000000E+00  5.434338266E+02  5.434338266E+02  0.000000000E+00  0.00000E+00  9.000E+00
      21    -1     0     0   501   512  0.000000000E+00  0.000000000E+00 -1.159283151E+02  1.159283151E+02  0.000000000E+00  0.00000E+00  9.000E+00
      25     1     1     2     0     0  6.703303722E+01 -1.408734426E+01  3.131799699E+02  3.440909399E+02  1.250000000E+02  0.00000E+00  9.000E+00
      25     1     1     2     0     0 -1.441220560E+02 -3.915034392E+01  1.046445637E+02  2.210868634E+02  1.250000000E+02  0.00000E+00  9.000E+00
      21     1     1     2   502   512  7.708901881E+01  5.323768818E+01  9.680977819E+00  9.418433838E+01  2.081900739E-06  0.00000E+00  9.000E+00
#rwgt            1           1   2.6393903241819526E-002           9      115674           0
</event>
<event>
      5   9999  3.19816E-02  2.22112E+01 -1.00000E+00  1.62697E-01
      21    -1     0     0   502   501  0.000000000E+00  0.000000000E+00  1.890912332E+02  1.890912332E+02  0.000000000E+00  0.00000E+00  9.000E+00
      21    -1     0     0   511   502  0.000000000E+00  0.000000000E+00 -4.903610685E+02  4.903610685E+02  0.000000000E+00  0.00000E+00  9.000E+00
      25     1     1     2     0     0 -8.652012748E+01 -6.083767482E+01  1.035543217E+02  1.937406841E+02  1.250000000E+02  0.00000E+00  9.000E+00
      25     1     1     2     0     0  8.773874979E+01  8.301543900E+01 -1.490567211E+02  2.289815657E+02  1.250000000E+02  0.00000E+00  9.000E+00
      21     1     1     2   511   501 -1.218622314E+00 -2.217776418E+01 -2.557674359E+02  2.567300519E+02  0.000000000E+00  0.00000E+00  9.000E+00
#rwgt            1           1   2.8976673738310987E-002           9      115735           0
</event>
<event>
      5   9999  3.19816E-02  3.16111E+02 -1.00000E+00  1.04859E-01
       2    -1     0     0   502     0  0.000000000E+00  0.000000000E+00  5.925213624E+02  5.925213624E+02  0.000000000E+00  0.00000E+00  9.000E+00
      21    -1     0     0   501   502  0.000000000E+00  0.000000000E+00 -1.182322860E+03  1.182322860E+03  0.000000000E+00  0.00000E+00  9.000E+00
      25     1     1     2     0     0 -5.045824414E+01 -2.628397221E+02 -9.460763320E+01  3.101714980E+02  1.250000000E+02  0.00000E+00  9.000E+00
      25     1     1     2     0     0  2.510554016E+02  5.071485418E+02 -8.247612320E+02  1.008010192E+03  1.250000000E+02  0.00000E+00  9.000E+00
       2     1     1     2   501     0 -2.005971575E+02 -2.443088197E+02  3.295673672E+02  4.566625324E+02  9.344061824E-06  0.00000E+00  9.000E+00
#rwgt            1           1   2.7497799520897197E-002           9      115901           0
</event>
<event>
      5   9999  3.19816E-02  1.18923E+02 -1.00000E+00  1.20535E-01
      21    -1     0     0   502   501  0.000000000E+00  0.000000000E+00  7.671351962E+01  7.671351962E+01  0.000000000E+00  0.00000E+00  9.000E+00
      21    -1     0     0   501   511  0.000000000E+00  0.000000000E+00 -1.494821812E+03  1.494821812E+03  0.000000000E+00  0.00000E+00  9.000E+00
      25     1     1     2     0     0  1.321641884E+02  5.169546167E+01 -7.602228002E+02  7.833923024E+02  1.250000000E+02  0.00000E+00  9.000E+00
      25     1     1     2     0     0 -2.509486093E+02 -5.742539785E+01 -3.167954023E+02  4.269159259E+02  1.250000000E+02  0.00000E+00  9.000E+00
      21     1     1     2   502   511  1.187844209E+02  5.729936179E+00 -3.410900895E+02  3.612271031E+02  5.394796609E-06  0.00000E+00  9.000E+00
#rwgt            1           1   2.9295227350076034E-002           9      115936           0
</event>
<event>
      5   9999  3.19816E-02  2.92225E+01 -1.00000E+00  1.53836E-01
      21    -1     0     0   502   501  0.000000000E+00  0.000000000E+00  5.536310269E+02  5.536310269E+02  0.000000000E+00  0.00000E+00  9.000E+00
      21    -1     0     0   501   512  0.000000000E+00  0.000000000E+00 -1.042028755E+02  1.042028755E+02  0.000000000E+00  0.00000E+00  9.000E+00
      25     1     1     2     0     0 -1.306152397E+02 -1.152226534E+02  3.288919080E+02  3.925958327E+02  1.250000000E+02  0.00000E+00  9.000E+00
      25     1     1     2     0     0  1.037979017E+02  1.268322968E+02  9.744424784E+01  2.279930204E+02  1.250000000E+02  0.00000E+00  9.000E+00
      21     1     1     2   502   512  2.681733794E+01 -1.160964341E+01  2.309199559E+01  3.724504926E+01  3.371747881E-07  0.00000E+00  9.000E+00
#rwgt            1           1   2.8731193278470086E-002           9      115990           0
</event>
<event>
      5   9999  3.19816E-02  7.99353E+01 -1.00000E+00  1.28366E-01
      21    -1     0     0   502   501  0.000000000E+00  0.000000000E+00  2.894205572E+02  2.894205572E+02  0.000000000E+00  0.00000E+00  9.000E+00
      21    -1     0     0   511   502  0.000000000E+00  0.000000000E+00 -3.527531311E+02  3.527531311E+02  0.000000000E+00  0.00000E+00  9.000E+00
      25     1     1     2     0     0  1.003541970E+02  4.052065410E+01 -2.227186471E+02  2.773832800E+02  1.250000000E+02  0.00000E+00  9.000E+00
      25     1     1     2     0     0 -1.560496001E+02  1.681764754E+01  1.926959471E+02  2.781924495E+02  1.250000000E+02  0.00000E+00  9.000E+00
      21     1     1     2   511   501  5.569540312E+01 -5.733830164E+01 -3.330987378E+01  8.659795872E+01  1.846782373E-06  0.00000E+00  9.000E+00
#rwgt            1           1   2.9259847015993604E-002           9      116118           0
</event>
<event>
      5   9999  3.19816E-02  8.04238E+02 -1.00000E+00  9.33215E-02
       2    -1     0     0   502     0  0.000000000E+00  0.000000000E+00  2.347365610E+03  2.347365610E+03  0.000000000E+00  0.00000E+00  9.000E+00
      21    -1     0     0   501   502  0.000000000E+00  0.000000000E+00 -7.095617641E+02  7.095617641E+02  0.000000000E+00  0.00000E+00  9.000E+00
      25     1     1     2     0     0 -4.351727248E+02  9.995278745E+02  1.027795129E+03  1.503469022E+03  1.250000000E+02  0.00000E+00  9.000E+00
      25     1     1     2     0     0  1.782876069E+01 -3.120527917E+02 -2.164992863E+02  4.002396163E+02  1.250000000E+02  0.00000E+00  9.000E+00
       2     1     1     2   501     0  4.173439641E+02 -6.874750827E+02  8.265080032E+02  1.153218736E+03  1.078959322E-05  0.00000E+00  9.000E+00
#rwgt            2          18   1.0021793466030839E-003           9      116290           0
</event>
<event>
      5   9999  3.19816E-02  1.26929E+02 -1.00000E+00  1.19343E-01
      -2    -1     0     0     0   501  0.000000000E+00  0.000000000E+00  4.984045682E+02  4.984045682E+02  0.000000000E+00  0.00000E+00  9.000E+00
      21    -1     0     0   501   502  0.000000000E+00  0.000000000E+00 -1.106884473E+03  1.106884473E+03  0.000000000E+00  0.00000E+00  9.000E+00
      25     1     1     2     0     0 -1.182829215E+02  2.128367696E+02 -1.006375439E+03  1.042931860E+03  1.250000000E+02  0.00000E+00  9.000E+00
      25     1     1     2     0     0 -8.527480662E+00 -2.073602946E+02  3.521416491E+02  4.274339139E+02  1.250000000E+02  0.00000E+00  9.000E+00
      -2     1     1     2     0   502  1.268104022E+02 -5.476475039E+00  4.575388580E+01  1.349232669E+02  1.651812370E-06  0.00000E+00  9.000E+00
#rwgt            1           1   2.6422961900021139E-002           9      116324           0
</event>
<event>
      5   9999  3.19816E-02  1.53238E+02 -1.00000E+00  1.16027E-01
      21    -1     0     0   502   511  0.000000000E+00  0.000000000E+00  1.532594070E+02  1.532594070E+02  0.000000000E+00  0.00000E+00  9.000E+00
      21    -1     0     0   501   502  0.000000000E+00  0.000000000E+00 -1.473499711E+03  1.473499711E+03  0.000000000E+00  0.00000E+00  9.000E+00
      25     1     1     2     0     0 -1.261595078E+02  2.575415656E+02 -8.014169278E+02  8.603127174E+02  1.250000000E+02  0.00000E+00  9.000E+00
      25     1     1     2     0     0  2.789433090E+02 -2.693279076E+02 -3.374306066E+02  5.289908371E+02  1.250000000E+02  0.00000E+00  9.000E+00
      21     1     1     2   501   511 -1.527838012E+02  1.178634193E+01 -1.813927694E+02  2.374555634E+02  3.814697266E-06  0.00000E+00  9.000E+00
#rwgt            1           1   3.0054250643632846E-002           9      116425           0
</event>
<event>
      5   9999  3.19816E-02  1.43186E+02 -1.00000E+00  1.17199E-01
      21    -1     0     0   512   501  0.000000000E+00  0.000000000E+00  4.720715632E+02  4.720715632E+02  0.000000000E+00  0.00000E+00  9.000E+00
      21    -1     0     0   501   502  0.000000000E+00  0.000000000E+00 -6.992837414E+02  6.992837414E+02  0.000000000E+00  0.00000E+00  9.000E+00
      25     1     1     2     0     0  1.248560798E+02 -2.696257851E+02 -1.728850583E+02  3.657886658E+02  1.250000000E+02  0.00000E+00  9.000E+00
      25     1     1     2     0     0 -1.695472386E+02  4.056589375E+02 -2.816581170E+02  5.369001160E+02  1.250000000E+02  0.00000E+00  9.000E+00
      21     1     1     2   512   502  4.469115888E+01 -1.360331525E+02  2.273309970E+02  2.686665228E+02  2.697398305E-06  0.00000E+00  9.000E+00
#rwgt            1           1   3.0097799893181239E-002           9      116521           0
</event>
<event>
      5   9999  3.19816E-02  9.65315E+01 -1.00000E+00  1.24521E-01
      21    -1     0     0   511   501  0.000000000E+00  0.000000000E+00  1.802452706E+03  1.802452706E+03  0.000000000E+00  0.00000E+00  9.000E+00
      21    -1     0     0   501   502  0.000000000E+00  0.000000000E+00 -1.263146506E+02  1.263146506E+02  0.000000000E+00  0.00000E+00  9.000E+00
      25     1     1     2     0     0 -7.358973817E+01 -4.050594786E+02  4.834564610E+02  6.471814123E+02  1.250000000E+02  0.00000E+00  9.000E+00
      25     1     1     2     0     0  2.417172350E+01  3.221366608E+02  7.179675990E+02  7.971566808E+02  1.250000000E+02  0.00000E+00  9.000E+00
      21     1     1     2   511   502  4.941801468E+01  8.292281783E+01  4.747139955E+02  4.844292636E+02  9.344061824E-06  0.00000E+00  9.000E+00
#rwgt            1           1   2.7999504226950873E-002           9      116590           0
</event>
<event>
      5   9999  3.19816E-02  9.59782E+01 -1.00000E+00  1.24635E-01
      21    -1     0     0   512   501  0.000000000E+00  0.000000000E+00  2.684726654E+02  2.684726654E+02  0.000000000E+00  0.00000E+00  9.000E+00
      21    -1     0     0   501   502  0.000000000E+00  0.000000000E+00 -4.457614571E+02  4.457614571E+02  0.000000000E+00  0.00000E+00  9.000E+00
      25     1     1     2     0     0 -3.912711639E+01 -3.410763118E+01 -3.756031379E+02  3.992455121E+02  1.250000000E+02  0.00000E+00  9.000E+00
      25     1     1     2     0     0  3.656716797E+01 -6.183646987E+01  8.861450824E+01  1.692289510E+02  1.250000000E+02  0.00000E+00  9.000E+00
      21     1     1     2   512   502  2.559948423E+00  9.594410105E+01  1.096998379E+02  1.457596594E+02  2.336015456E-06  0.00000E+00  9.000E+00
#rwgt            1           1   3.0015371100215602E-002           9      116711           0
</event>
<event>
      5   9999  3.19816E-02  4.27365E+01 -1.00000E+00  1.43080E-01
      21    -1     0     0   502   511  0.000000000E+00  0.000000000E+00  1.410313883E+03  1.410313883E+03  0.000000000E+00  0.00000E+00  9.000E+00
      21    -1     0     0   501   502  0.000000000E+00  0.000000000E+00 -9.147865714E+01  9.147865714E+01  0.000000000E+00  0.00000E+00  9.000E+00
      25     1     1     2     0     0 -1.233736397E+02 -2.643450431E+02  8.537294141E+02  9.108118737E+02  1.250000000E+02  0.00000E+00  9.000E+00
      25     1     1     2     0     0  1.038784544E+02  2.263141799E+02  2.587431240E+02  3.802391951E+02  1.250000000E+02  0.00000E+00  9.000E+00
      21     1     1     2   501   511  1.949518535E+01  3.803086320E+01  2.063626882E+02  2.107414717E+02  2.697398305E-06  0.00000E+00  9.000E+00
#rwgt            1           1   2.7748876558037525E-002           9      116756           0
</event>
<event>
      5   9999  3.19816E-02  1.56504E+02 -1.00000E+00  1.15668E-01
      21    -1     0     0   502   501  0.000000000E+00  0.000000000E+00  4.613476571E+02  4.613476571E+02  0.000000000E+00  0.00000E+00  9.000E+00
      21    -1     0     0   512   502  0.000000000E+00  0.000000000E+00 -7.109176630E+02  7.109176630E+02  0.000000000E+00  0.00000E+00  9.000E+00
      25     1     1     2     0     0  4.032395699E+02 -1.379279752E+02  1.763909903E+02  4.778755681E+02  1.250000000E+02  0.00000E+00  9.000E+00
      25     1     1     2     0     0 -2.759159659E+02  2.289341220E+02 -3.642486222E+02  5.261582568E+02  1.250000000E+02  0.00000E+00  9.000E+00
      21     1     1     2   512   501 -1.273236040E+02 -9.100614676E+01 -6.171237399E+01  1.682314952E+02  6.743495762E-07  0.00000E+00  9.000E+00
#rwgt            1           1   2.9444528798974419E-002           9      116813           0
</event>
<event>
      5   9999  3.19816E-02  3.62827E+01 -1.00000E+00  1.47517E-01
      -3    -1     0     0     0   501  0.000000000E+00  0.000000000E+00  5.688785326E+02  5.688785326E+02  0.000000000E+00  0.00000E+00  9.000E+00
      21    -1     0     0   501   502  0.000000000E+00  0.000000000E+00 -2.991387710E+02  2.991387710E+02  0.000000000E+00  0.00000E+00  9.000E+00
      25     1     1     2     0     0 -5.582647119E+01  2.311349412E+01 -2.580574622E+02  2.930349506E+02  1.250000000E+02  0.00000E+00  9.000E+00
      25     1     1     2     0     0  4.934182838E+01  1.258503268E+01  1.784004989E+02  2.237068105E+02  1.250000000E+02  0.00000E+00  9.000E+00
      -3     1     1     2     0   502  6.484642810E+00 -3.569852680E+01  3.493967249E+02  3.512755425E+02  3.814697266E-06  0.00000E+00  9.000E+00
#rwgt            1           1   2.8905372488807132E-002           9      116891           0
</event>
<event>
      5   9999  3.19816E-02  1.09098E+02 -1.00000E+00  1.22151E-01
      21    -1     0     0   502   501  0.000000000E+00  0.000000000E+00  5.895667289E+02  5.895667289E+02  0.000000000E+00  0.00000E+00  9.000E+00
       1    -1     0     0   501     0  0.000000000E+00  0.000000000E+00 -1.370231447E+03  1.370231447E+03  0.000000000E+00  0.00000E+00  9.000E+00
      25     1     1     2     0     0 -5.488490629E+02 -5.516881281E+01  1.361312246E+01  5.657642697E+02  1.250000000E+02  0.00000E+00  9.000E+00
      25     1     1     2     0     0  6.449557687E+02  3.536020591E+00 -9.792943152E+02  1.179246710E+03  1.250000000E+02  0.00000E+00  9.000E+00
       1     1     1     2   502     0 -9.610670576E+01  5.163279222E+01  1.850164742E+02  2.147871967E+02  3.814697266E-06  0.00000E+00  9.000E+00
#rwgt            1           1   2.5710957692238325E-002           9      117011           0
</event>
<event>
      5   9999  3.19816E-02  2.82179E+02 -1.00000E+00  1.06463E-01
      21    -1     0     0   502   501  0.000000000E+00  0.000000000E+00  2.782392426E+02  2.782392426E+02  0.000000000E+00  0.00000E+00  9.000E+00
      21    -1     0     0   501   511  0.000000000E+00  0.000000000E+00 -2.208013460E+03  2.208013460E+03  0.000000000E+00  0.00000E+00  9.000E+00
      25     1     1     2     0     0 -1.278021998E+02  7.213700595E+02 -6.104939720E+02  9.617879470E+02  1.250000000E+02  0.00000E+00  9.000E+00
      25     1     1     2     0     0  1.486699603E+02 -4.399634574E+02 -7.983794366E+02  9.320436287E+02  1.250000000E+02  0.00000E+00  9.000E+00
      21     1     1     2   502   511 -2.086776047E+01 -2.814066021E+02 -5.209008091E+02  5.924211273E+02  7.629394531E-06  0.00000E+00  9.000E+00
#rwgt            1           1   2.6696226375626346E-002           9      117114           0
</event>
<event>
      5   9999  3.19816E-02  7.43118E+00 -1.00000E+00  2.11949E-01
       2    -1     0     0   502     0  0.000000000E+00  0.000000000E+00  9.920028891E+02  9.920028891E+02  0.000000000E+00  0.00000E+00  9.000E+00
      21    -1     0     0   501   502  0.000000000E+00  0.000000000E+00 -2.611452339E+02  2.611452339E+02  0.000000000E+00  0.00000E+00  9.000E+00
      25     1     1     2     0     0  1.653540539E+02  1.856172158E+02  1.068754644E+02  2.980655613E+02  1.250000000E+02  0.00000E+00  9.000E+00
      25     1     1     2     0     0 -1.643880306E+02 -1.929853392E+02 -4.486866034E+01  2.861904303E+02  1.250000000E+02  0.00000E+00  9.000E+00
       2     1     1     2   501     0 -9.660233149E-01  7.368123303E+00  6.688508511E+02  6.688921314E+02  1.078959322E-05  0.00000E+00  9.000E+00
#rwgt            1           1   3.0199504146275202E-002           9      117179           0
</event>
<event>
      5   9999  3.19816E-02  1.60231E+02 -1.00000E+00  1.15269E-01
       1    -1     0     0   502     0  0.000000000E+00  0.000000000E+00  9.434029486E+02  9.434029486E+02  0.000000000E+00  0.00000E+00  9.000E+00
      21    -1     0     0   501   502  0.000000000E+00  0.000000000E+00 -1.033018497E+02  1.033018497E+02  0.000000000E+00  0.00000E+00  9.000E+00
      25     1     1     2     0     0 -1.304192327E+01 -3.346833507E+00  3.228787406E+02  3.464923869E+02  1.250000000E+02  0.00000E+00  9.000E+00
      25     1     1     2     0     0 -1.446416570E+02  3.180239098E+01  4.144678489E+01  1.981803143E+02  1.250000000E+02  0.00000E+00  9.000E+00
       1     1     1     2   501     0  1.576835803E+02 -2.845555747E+01  4.757755733E+02  5.020320970E+02  9.344061824E-06  0.00000E+00  9.000E+00
#rwgt            1           1   2.7390889578703923E-002           9      117395           0
</event>
<event>
      5   9999  3.19816E-02  1.14137E+02 -1.00000E+00  1.21299E-01
      21    -1     0     0   502   501  0.000000000E+00  0.000000000E+00  5.772090753E+02  5.772090753E+02  0.000000000E+00  0.00000E+00  9.000E+00
      21    -1     0     0   511   502  0.000000000E+00  0.000000000E+00 -2.194133368E+03  2.194133368E+03  0.000000000E+00  0.00000E+00  9.000E+00
      25     1     1     2     0     0  6.595600072E+02  6.905213038E+02 -8.044703600E+02  1.254845263E+03  1.250000000E+02  0.00000E+00  9.000E+00
      25     1     1     2     0     0 -6.967009454E+02 -7.984458738E+02 -4.894538156E+02  1.173924213E+03  1.250000000E+02  0.00000E+00  9.000E+00
      21     1     1     2   511   501  3.714093822E+01  1.079245700E+02 -3.230001171E+02  3.425729670E+02  6.607249480E-06  0.00000E+00  9.000E+00
#rwgt            2          11   5.1041455270690681E-003           9      117477           0
</event>
<event>
      5   9999  3.19816E-02  8.62909E+00 -1.00000E+00  2.03463E-01
      21    -1     0     0   502   501  0.000000000E+00  0.000000000E+00  5.062689999E+02  5.062689999E+02  0.000000000E+00  0.00000E+00  9.000E+00
      21    -1     0     0   512   502  0.000000000E+00  0.000000000E+00 -5.607832104E+02  5.607832104E+02  0.000000000E+00  0.00000E+00  9.000E+00
      25     1     1     2     0     0 -4.158234302E+02  1.938704182E+02  8.327612944E+00  4.755935379E+02  1.250000000E+02  0.00000E+00  9.000E+00
      25     1     1     2     0     0  4.078930832E+02 -1.972720073E+02  5.506749104E+01  4.732340233E+02  1.250000000E+02  0.00000E+00  9.000E+00
      21     1     1     2   512   501  7.930346942E+00  3.401589096E+00 -1.179093145E+02  1.182246491E+02  1.348699152E-06  0.00000E+00  9.000E+00
#rwgt            1           1   2.5565138366337586E-002           9      117512           0
</event>
<event>
      5   9999  3.19816E-02  6.51151E+01 -1.00000E+00  1.32832E-01
      21    -1     0     0   502   511  0.000000000E+00  0.000000000E+00  2.261845313E+03  2.261845313E+03  0.000000000E+00  0.00000E+00  9.000E+00
      21    -1     0     0   501   502  0.000000000E+00  0.000000000E+00 -1.066334233E+02  1.066334233E+02  0.000000000E+00  0.00000E+00  9.000E+00
      25     1     1     2     0     0 -1.064768116E+02  2.226014099E+02  2.840451709E+02  3.964786983E+02  1.250000000E+02  0.00000E+00  9.000E+00
      25     1     1     2     0     0  1.239415860E+02 -1.598721661E+02  2.342690317E+02  3.338077372E+02  1.250000000E+02  0.00000E+00  9.000E+00
      21     1     1     2   501   511 -1.746477439E+01 -6.272924384E+01  1.636897687E+03  1.638192301E+03  0.000000000E+00  0.00000E+00  9.000E+00
#rwgt            1           1   2.9036907928345485E-002           9      117763           0
</event>
<event>
      5   9999  3.19816E-02  3.20529E+01 -1.00000E+00  1.51070E-01
      21    -1     0     0   502   512  0.000000000E+00  0.000000000E+00  5.938805733E+02  5.938805733E+02  0.000000000E+00  0.00000E+00  9.000E+00
      21    -1     0     0   501   502  0.000000000E+00  0.000000000E+00 -2.749163159E+02  2.749163159E+02  0.000000000E+00  0.00000E+00  9.000E+00
      25     1     1     2     0     0  1.580493036E+02  4.285103860E+01  1.409264014E+01  2.064930904E+02  1.250000000E+02  0.00000E+00  9.000E+00
      25     1     1     2     0     0 -1.317925800E+02 -6.123503987E+01 -1.265500181E+02  2.296931025E+02  1.250000000E+02  0.00000E+00  9.000E+00
      21     1     1     2   501   512 -2.625672366E+01  1.838400127E+01  4.314216353E+02  4.326106962E+02  5.394796609E-06  0.00000E+00  9.000E+00
#rwgt            1           1   2.7497574640489741E-002           9      117853           0
</event>
<event>
      5   9999  3.19816E-02  6.35593E+01 -1.00000E+00  1.33379E-01
      21    -1     0     0   502   511  0.000000000E+00  0.000000000E+00  1.193098943E+03  1.193098943E+03  0.000000000E+00  0.00000E+00  9.000E+00
      21    -1     0     0   501   502  0.000000000E+00  0.000000000E+00 -9.822529287E+02  9.822529287E+02  0.000000000E+00  0.00000E+00  9.000E+00
      25     1     1     2     0     0 -3.401130156E+02  7.097094856E+02 -5.574626524E+02  9.724988567E+02  1.250000000E+02  0.00000E+00  9.000E+00
      25     1     1     2     0     0  3.740858144E+02 -7.634275573E+02  6.902741821E+02  1.102209272E+03  1.250000000E+02  0.00000E+00  9.000E+00
      21     1     1     2   501   511 -3.397279884E+01  5.371807171E+01  7.803448418E+01  1.006437430E+02  0.000000000E+00  0.00000E+00  9.000E+00
#rwgt            1           1   1.7381527785566436E-002           9      117977           0
</event>
<event>
      5   9999  3.19816E-02  5.29368E+01 -1.00000E+00  1.37676E-01
      21    -1     0     0   502   501  0.000000000E+00  0.000000000E+00  1.032769538E+03  1.032769538E+03  0.000000000E+00  0.00000E+00  9.000E+00
      21    -1     0     0   501   512  0.000000000E+00  0.000000000E+00 -7.129529826E+02  7.129529826E+02  0.000000000E+00  0.00000E+00  9.000E+00
      25     1     1     2     0     0  6.572902248E+02 -3.567138497E+02 -2.159352958E+02  7.883706376E+02  1.250000000E+02  0.00000E+00  9.000E+00
      25     1     1     2     0     0 -6.172681596E+02  3.220651261E+02  5.569652824E+02  9.003228599E+02  1.250000000E+02  0.00000E+00  9.000E+00
      21     1     1     2   502   512 -4.002206519E+01  3.464872366E+01 -2.121343161E+01  5.702902273E+01  3.371747881E-07  0.00000E+00  9.000E+00
#rwgt            1           1   3.5534373438810392E-002           9      118145           0
</event>
<event>
      5   9999  3.19816E-02  2.99762E+02 -1.00000E+00  1.05603E-01
       2    -1     0     0   502     0  0.000000000E+00  0.000000000E+00  2.847616133E+03  2.847616133E+03  0.000000000E+00  0.00000E+00  9.000E+00
      21    -1     0     0   501   502  0.000000000E+00  0.000000000E+00 -2.910506069E+02  2.910506069E+02  0.000000000E+00  0.00000E+00  9.000E+00
      25     1     1     2     0     0 -1.458787488E+02  3.353972895E+02  1.274434311E+03  1.331758148E+03  1.250000000E+02  0.00000E+00  9.000E+00
      25     1     1     2     0     0 -1.538731308E+02 -3.378089382E+02 -9.043603869E+01  4.019894230E+02  1.250000000E+02  0.00000E+00  9.000E+00
       2     1     1     2   501     0  2.997518797E+02  2.411648686E+00  1.372567254E+03  1.404919169E+03  2.642899792E-05  0.00000E+00  9.000E+00
#rwgt            2          18   1.6462344296086508E-003           9      118392           0
</event>
<event>
      5   9999  3.19816E-02  1.11907E+02 -1.00000E+00  1.21670E-01
      21    -1     0     0   502   511  0.000000000E+00  0.000000000E+00  2.318579005E+02  2.318579005E+02  0.000000000E+00  0.00000E+00  9.000E+00
      21    -1     0     0   501   502  0.000000000E+00  0.000000000E+00 -1.021429631E+03  1.021429631E+03  0.000000000E+00  0.00000E+00  9.000E+00
      25     1     1     2     0     0 -3.460014018E+02 -1.192062332E+01 -6.502410834E+01  3.737809598E+02  1.250000000E+02  0.00000E+00  9.000E+00
      25     1     1     2     0     0  2.692291678E+02 -6.949952399E+01 -7.020161915E+02  7.653536841E+02  1.250000000E+02  0.00000E+00  9.000E+00
      21     1     1     2   501   511  7.677223395E+01  8.142014731E+01 -2.253143019E+01  1.141528871E+02  1.784161275E-06  0.00000E+00  9.000E+00
#rwgt            2          11   4.5847274098309611E-003           9      118411           0
</event>
<event>
      5   9999  3.19816E-02  1.10251E+01 -1.00000E+00  1.90982E-01
      21    -1     0     0   502   501  0.000000000E+00  0.000000000E+00  2.548238751E+02  2.548238751E+02  0.000000000E+00  0.00000E+00  9.000E+00
      21    -1     0     0   512   502  0.000000000E+00  0.000000000E+00 -5.708210603E+02  5.708210603E+02  0.000000000E+00  0.00000E+00  9.000E+00
      25     1     1     2     0     0  1.032358511E+02  3.146318229E+02 -1.026344092E+02  3.685236042E+02  1.250000000E+02  0.00000E+00  9.000E+00
      25     1     1     2     0     0 -1.048224023E+02 -3.255421217E+02 -1.516752411E+02  3.944563192E+02  1.250000000E+02  0.00000E+00  9.000E+00
      21     1     1     2   512   501  1.586551223E+00  1.091029882E+01 -6.168753486E+01  6.266501195E+01  6.743495762E-07  0.00000E+00  9.000E+00
#rwgt            1           1   2.8867246908253156E-002           9      118431           0
</event>
<event>
      5   9999  3.19816E-02  6.46292E+01 -1.00000E+00  1.33001E-01
      21    -1     0     0   511   501  0.000000000E+00  0.000000000E+00  1.716893008E+02  1.716893008E+02  0.000000000E+00  0.00000E+00  9.000E+00
      21    -1     0     0   501   502  0.000000000E+00  0.000000000E+00 -1.315259183E+03  1.315259183E+03  0.000000000E+00  0.00000E+00  9.000E+00
      25     1     1     2     0     0 -4.182002142E+02 -1.131595017E+02 -6.918300315E+02  8.258028121E+02  1.250000000E+02  0.00000E+00  9.000E+00
      25     1     1     2     0     0  3.675269548E+02  1.532737509E+02 -3.780568793E+02  5.631348943E+02  1.250000000E+02  0.00000E+00  9.000E+00
      21     1     1     2   511   502  5.067325941E+01 -4.011424916E+01 -7.368297160E+01  9.801077751E+01  1.907348633E-06  0.00000E+00  9.000E+00
#rwgt            1           1   3.0164413334959006E-002           9      118732           0
</event>
<event>
      5   9999  3.26878E-02  2.44369E+01 -1.00000E+00  1.59496E-01
      21    -1     0     0   502   501  0.000000000E+00  0.000000000E+00  3.468995255E+01  3.468995255E+01  0.000000000E+00  0.00000E+00  9.000E+00
      21    -1     0     0   501   512  0.000000000E+00  0.000000000E+00 -3.735794526E+03  3.735794526E+03  0.000000000E+00  0.00000E+00  9.000E+00
      25     1     1     2     0     0 -6.346412477E+01  2.195003832E+02 -7.864859338E+02  8.284885258E+02  1.250000000E+02  0.00000E+00  9.000E+00
      25     1     1     2     0     0  3.905904773E+01 -2.182536414E+02 -1.177062830E+03  1.204268312E+03  1.250000000E+02  0.00000E+00  9.000E+00
      21     1     1     2   502   512  2.440507704E+01 -1.246741797E+00 -1.737555810E+03  1.737727641E+03  2.157918644E-05  0.00000E+00  9.000E+00
#rwgt            1           1   9.8998552144915278E-002           9      118834           0
</event>
<event>
      5   9999  3.19816E-02  1.02938E+02 -1.00000E+00  1.23265E-01
      21    -1     0     0   502   501  0.000000000E+00  0.000000000E+00  1.050534300E+03  1.050534300E+03  0.000000000E+00  0.00000E+00  9.000E+00
      21    -1     0     0   501   511  0.000000000E+00  0.000000000E+00 -2.961767089E+02  2.961767089E+02  0.000000000E+00  0.00000E+00  9.000E+00
      25     1     1     2     0     0  2.452400661E+02  3.404468734E+02  7.635213518E+02  8.801344320E+02  1.250000000E+02  0.00000E+00  9.000E+00
      25     1     1     2     0     0 -2.427855753E+02 -2.375383837E+02 -2.326058431E+01  3.626780584E+02  1.250000000E+02  0.00000E+00  9.000E+00
      21     1     1     2   502   511 -2.454490863E+00 -1.029084897E+02  1.409682407E+01  1.038985189E+02  1.294944345E-06  0.00000E+00  9.000E+00
#rwgt            1           1   2.9387892955807370E-002           9      118923           0
</event>
<event>
      5   9999  3.19816E-02  5.28553E+02 -1.00000E+00  9.81716E-02
       2    -1     0     0   502     0  0.000000000E+00  0.000000000E+00  7.298777018E+02  7.298777018E+02  0.000000000E+00  0.00000E+00  9.000E+00
      21    -1     0     0   501   502  0.000000000E+00  0.000000000E+00 -1.609589686E+03  1.609589686E+03  0.000000000E+00  0.00000E+00  9.000E+00
      25     1     1     2     0     0  3.501305187E+02 -7.220216979E+01 -1.037480172E+00  3.787223387E+02  1.250000000E+02  0.00000E+00  9.000E+00
      25     1     1     2     0     0 -7.951134846E+02  3.574364325E+02 -1.081408027E+03  1.394644965E+03  1.250000000E+02  0.00000E+00  9.000E+00
       2     1     1     2   501     0  4.449829659E+02 -2.852342627E+02  2.027335228E+02  5.661000847E+02  6.031565972E-06  0.00000E+00  9.000E+00
#rwgt            1           1   3.1470549721270315E-002           9      118997           0
</event>
<event>
      5   9999  3.19816E-02  8.59289E+01 -1.00000E+00  1.26864E-01
      21    -1     0     0   511   501  0.000000000E+00  0.000000000E+00  6.332449259E+02  6.332449259E+02  0.000000000E+00  0.00000E+00  9.000E+00
      21    -1     0     0   501   502  0.000000000E+00  0.000000000E+00 -1.233158639E+02  1.233158639E+02  0.000000000E+00  0.00000E+00  9.000E+00
      25     1     1     2     0     0  7.064301049E+01 -2.075078706E+02  2.154215795E+02  3.317851838E+02  1.250000000E+02  0.00000E+00  9.000E+00
      25     1     1     2     0     0 -5.434567950E+00  1.515468039E+02  1.200097169E+02  2.302678885E+02  1.250000000E+02  0.00000E+00  9.000E+00
      21     1     1     2   511   502 -6.520844254E+01  5.596106663E+01  1.744977656E+02  1.945077175E+02  4.264961200E-06  0.00000E+00  9.000E+00
#rwgt            2          11   2.2296789983476048E-003           9      119032           0
</event>
<event>
      5   9999  3.19816E-02  2.06934E+01 -1.00000E+00  1.65157E-01
      -4    -1     0     0     0   501  0.000000000E+00  0.000000000E+00  2.963563190E+03  2.963563190E+03  0.000000000E+00  0.00000E+00  9.000E+00
      21    -1     0     0   501   502  0.000000000E+00  0.000000000E+00 -1.233459443E+03  1.233459443E+03  0.000000000E+00  0.00000E+00  9.000E+00
      25     1     1     2     0     0  2.827916920E+02  1.708930079E+03  3.756156048E+01  1.737080605E+03  1.250000000E+02  0.00000E+00  9.000E+00
      25     1     1     2     0     0 -2.628159039E+02 -1.714332416E+03  1.592885901E+03  2.358159945E+03  1.250000000E+02  0.00000E+00  9.000E+00
      -4     1     1     2     0   502 -1.997578809E+01  5.402336806E+00  9.965628541E+01  1.017820838E+02  1.348699152E-06  0.00000E+00  9.000E+00
#rwgt            1           1   1.1081218021459874E-002           9      119067           0
</event>
<event>
      5   9999  3.19816E-02  2.35540E+02 -1.00000E+00  1.09122E-01
      21    -1     0     0   502   511  0.000000000E+00  0.000000000E+00  1.768656465E+02  1.768656465E+02  0.000000000E+00  0.00000E+00  9.000E+00
      21    -1     0     0   501   502  0.000000000E+00  0.000000000E+00 -1.439725111E+03  1.439725111E+03  0.000000000E+00  0.00000E+00  9.000E+00
      25     1     1     2     0     0 -2.487336244E+02 -2.612165736E+00 -9.106007273E+02  9.522047700E+02  1.250000000E+02  0.00000E+00  9.000E+00
      25     1     1     2     0     0  6.328401013E+01  1.478280554E+02 -3.760327604E+02  4.276489644E+02  1.250000000E+02  0.00000E+00  9.000E+00
      21     1     1     2   501   511  1.854496142E+02 -1.452158897E+02  2.377402306E+01  2.367370233E+02  6.162094108E-06  0.00000E+00  9.000E+00
#rwgt            2          11   6.7925224424441122E-003           9      119491           0
</event>
<event>
      5   9999  3.19816E-02  5.28199E+01 -1.00000E+00  1.37730E-01
      21    -1     0     0   502   501  0.000000000E+00  0.000000000E+00  3.673934219E+02  3.673934219E+02  0.000000000E+00  0.00000E+00  9.000E+00
      21    -1     0     0   501   512  0.000000000E+00  0.000000000E+00 -1.758263356E+03  1.758263356E+03  0.000000000E+00  0.00000E+00  9.000E+00
      25     1     1     2     0     0  6.275189641E+02  2.983644602E+02 -8.860651146E+02  1.132933268E+03  1.250000000E+02  0.00000E+00  9.000E+00
      25     1     1     2     0     0 -5.982738863E+02 -2.543796429E+02 -2.119118906E+02  6.951059596E+02  1.250000000E+02  0.00000E+00  9.000E+00
      21     1     1     2   502   512 -2.924507783E+01 -4.398481728E+01 -2.928929286E+02  2.976175504E+02  5.394796609E-06  0.00000E+00  9.000E+00
#rwgt            1           1   3.1040113783721571E-002           9      119511           0
</event>
<event>
      5   9999  3.19816E-02  1.51536E+02 -1.00000E+00  1.16219E-01
       2    -1     0     0   502     0  0.000000000E+00  0.000000000E+00  2.515147182E+03  2.515147182E+03  0.000000000E+00  0.00000E+00  9.000E+00
      21    -1     0     0   501   502  0.000000000E+00  0.000000000E+00 -2.704920061E+02  2.704920061E+02  0.000000000E+00  0.00000E+00  9.000E+00
      25     1     1     2     0     0  2.238110698E+02  1.469747220E+02  8.008825483E+01  3.061569735E+02  1.250000000E+02  0.00000E+00  9.000E+00
      25     1     1     2     0     0 -1.088348279E+02 -2.456840759E+02 -1.300154463E+01  2.966474761E+02  1.250000000E+02  0.00000E+00  9.000E+00
       2     1     1     2   501     0 -1.149762419E+02  9.870935394E+01  2.177568466E+03  2.182834738E+03  3.051757812E-05  0.00000E+00  9.000E+00
#rwgt            1           1   2.6054264532728747E-002           9      119634           0
</event>
<event>
      5   9999  3.19816E-02  1.00907E+02 -1.00000E+00  1.23652E-01
      21    -1     0     0   502   501  0.000000000E+00  0.000000000E+00  2.767670875E+03  2.767670875E+03  0.000000000E+00  0.00000E+00  9.000E+00
      21    -1     0     0   501   511  0.000000000E+00  0.000000000E+00 -4.323100138E+02  4.323100138E+02  0.000000000E+00  0.00000E+00  9.000E+00
      25     1     1     2     0     0  6.820644779E+02  2.802690880E+02  2.291626094E+03  2.410588697E+03  1.250000000E+02  0.00000E+00  9.000E+00
      25     1     1     2     0     0 -6.256102499E+02 -1.966319964E+02 -2.372539536E+01  6.680121415E+02  1.250000000E+02  0.00000E+00  9.000E+00
      21     1     1     2   502   511 -5.645422808E+01 -8.363709158E+01  6.746016252E+01  1.213800498E+02  2.132480600E-06  0.00000E+00  9.000E+00
#rwgt            1           1   1.2084380991329363E-002           9      119663           0
</event>
<event>
      5   9999  3.19816E-02  8.64313E+00 -1.00000E+00  2.03375E-01
      21    -1     0     0   512   501  0.000000000E+00  0.000000000E+00  9.596383152E+01  9.596383152E+01  0.000000000E+00  0.00000E+00  9.000E+00
      21    -1     0     0   501   502  0.000000000E+00  0.000000000E+00 -7.135255837E+02  7.135255837E+02  0.000000000E+00  0.00000E+00  9.000E+00
      25     1     1     2     0     0 -5.779901355E+01 -2.184794807E+02 -2.498017650E+02  3.593047888E+02  1.250000000E+02  0.00000E+00  9.000E+00
      25     1     1     2     0     0  5.707860630E+01  2.098664253E+02 -3.581145444E+02  4.372332452E+02  1.250000000E+02  0.00000E+00  9.000E+00
      21     1     1     2   512   502  7.204072511E-01  8.613055384E+00 -9.645442765E+00  1.295138123E+01  1.685873940E-07  0.00000E+00  9.000E+00
#rwgt            1           1   2.8779049608871645E-002           9      119761           0
</event>
<event>
      5   9999  3.19816E-02  2.67723E+01 -1.00000E+00  1.56555E-01
      21    -1     0     0   502   511  0.000000000E+00  0.000000000E+00  8.014644557E+02  8.014644557E+02  0.000000000E+00  0.00000E+00  9.000E+00
      21    -1     0     0   501   502  0.000000000E+00  0.000000000E+00 -6.662459530E+01  6.662459530E+01  0.000000000E+00  0.00000E+00  9.000E+00
      25     1     1     2     0     0 -1.548529526E+02  1.002887957E+01  3.405200722E+02  3.945363544E+02  1.250000000E+02  0.00000E+00  9.000E+00
      25     1     1     2     0     0  1.707277707E+02  1.152904659E+01  2.544112830E+02  3.311057104E+02  1.250000000E+02  0.00000E+00  9.000E+00
      21     1     1     2   501   511 -1.587481802E+01 -2.155792616E+01  1.399085052E+02  1.424469861E+02  2.697398305E-06  0.00000E+00  9.000E+00
#rwgt            1           1   3.0891331341865676E-002           9      120009           0
</event>
<event>
      5   9999  3.19816E-02  7.20782E+01 -1.00000E+00  1.30580E-01
      21    -1     0     0   502   512  0.000000000E+00  0.000000000E+00  4.802211029E+02  4.802211029E+02  0.000000000E+00  0.00000E+00  9.000E+00
      21    -1     0     0   501   502  0.000000000E+00  0.000000000E+00 -7.188807829E+02  7.188807829E+02  0.000000000E+00  0.00000E+00  9.000E+00
      25     1     1     2     0     0 -8.904398957E+01  3.582848557E+02 -5.437597206E+02  6.690265343E+02  1.250000000E+02  0.00000E+00  9.000E+00
      25     1     1     2     0     0  2.203617834E+01 -3.317288001E+02  2.845980013E+02  4.551380146E+02  1.250000000E+02  0.00000E+00  9.000E+00
      21     1     1     2   501   512  6.700781123E+01 -2.655605553E+01  2.050203924E+01  7.493733692E+01  5.840038640E-07  0.00000E+00  9.000E+00
#rwgt            1           1   2.5169619259633000E-002           9      120075           0
</event>
<event>
      5   9999  3.19816E-02  1.19711E+01 -1.00000E+00  1.87138E-01
      21    -1     0     0   502   511  0.000000000E+00  0.000000000E+00  4.850248504E+02  4.850248504E+02  0.000000000E+00  0.00000E+00  9.000E+00
      21    -1     0     0   501   502  0.000000000E+00  0.000000000E+00 -2.885682331E+02  2.885682331E+02  0.000000000E+00  0.00000E+00  9.000E+00
      25     1     1     2     0     0 -1.565957522E+02 -2.962247985E+02  1.880381991E+02  4.040479243E+02  1.250000000E+02  0.00000E+00  9.000E+00
      25     1     1     2     0     0  1.578034932E+02  2.843147489E+02 -8.909548311E+00  3.484841445E+02  1.250000000E+02  0.00000E+00  9.000E+00
      21     1     1     2   501   511 -1.207740971E+00  1.191004953E+01  1.732796643E+01  2.106101466E+01  2.384185791E-07  0.00000E+00  9.000E+00
#rwgt            1           1   2.6964362078693269E-002           9      120177           0
</event>
<event>
      5   9999  3.19816E-02  2.80785E+02 -1.00000E+00  1.06535E-01
      21    -1     0     0   502   501  0.000000000E+00  0.000000000E+00  6.796930542E+02  6.796930542E+02  0.000000000E+00  0.00000E+00  9.000E+00
      -2    -1     0     0     0   502  0.000000000E+00  0.000000000E+00 -1.539410815E+03  1.539410815E+03  0.000000000E+00  0.00000E+00  9.000E+00
      25     1     1     2     0     0 -2.510701865E+02 -9.089426168E+01  3.714477082E+02  4.742324380E+02  1.250000000E+02  0.00000E+00  9.000E+00
      25     1     1     2     0     0  8.903959622E+00  2.330051909E+02  1.709015681E+02  3.149651496E+02  1.250000000E+02  0.00000E+00  9.000E+00
      -2     1     1     2     0   501  2.421662268E+02 -1.421109292E+02 -1.402067038E+03  1.429906282E+03  2.157918644E-05  0.00000E+00  9.000E+00
#rwgt            1           1   2.4599007449657911E-002           9      120387           0
</event>
<event>
      5   9999  3.19816E-02  8.17446E+01 -1.00000E+00  1.27898E-01
      21    -1     0     0   502   501  0.000000000E+00  0.000000000E+00  1.550238313E+02  1.550238313E+02  0.000000000E+00  0.00000E+00  9.000E+00
      21    -1     0     0   501   511  0.000000000E+00  0.000000000E+00 -7.511674042E+02  7.511674042E+02  0.000000000E+00  0.00000E+00  9.000E+00
      25     1     1     2     0     0  7.598168940E+01  2.748332072E+02 -1.495037502E+02  3.453735373E+02  1.250000000E+02  0.00000E+00  9.000E+00
      25     1     1     2     0     0 -1.053860746E+02 -1.985602951E+02 -3.304568123E+02  4.187590242E+02  1.250000000E+02  0.00000E+00  9.000E+00
      21     1     1     2   502   511  2.940438519E+01 -7.627291211E+01 -1.161830104E+02  1.420586741E+02  1.907348633E-06  0.00000E+00  9.000E+00
#rwgt            1           1   2.8822039472112787E-002           9      120432           0
</event>
<event>
      5   9999  3.19816E-02  5.97364E+01 -1.00000E+00  1.34806E-01
      21    -1     0     0   502   512  0.000000000E+00  0.000000000E+00  7.854840120E+02  7.854840120E+02  0.000000000E+00  0.00000E+00  9.000E+00
      21    -1     0     0   501   502  0.000000000E+00  0.000000000E+00 -1.397907733E+03  1.397907733E+03  0.000000000E+00  0.00000E+00  9.000E+00
      25     1     1     2     0     0  5.946945362E+01 -3.892179838E+01 -1.101300409E+03  1.110648060E+03  1.250000000E+02  0.00000E+00  9.000E+00
      25     1     1     2     0     0 -2.273306130E+01  8.602671780E+01 -2.705184723E+02  3.110026240E+02  1.250000000E+02  0.00000E+00  9.000E+00
      21     1     1     2   501   512 -3.673639232E+01 -4.710491942E+01  7.593951599E+02  7.617410615E+02  1.525878906E-05  0.00000E+00  9.000E+00
#rwgt            1           1   2.9861288346572291E-002           9      120522           0
</event>
<event>
      5   9999  3.19816E-02  3.35265E+02 -1.00000E+00  1.04047E-01
      21    -1     0     0   511   501  0.000000000E+00  0.000000000E+00  1.447537185E+03  1.447537185E+03  0.000000000E+00  0.00000E+00  9.000E+00
      21    -1     0     0   501   502  0.000000000E+00  0.000000000E+00 -1.399022808E+03  1.399022808E+03  0.000000000E+00  0.00000E+00  9.000E+00
      25     1     1     2     0     0 -8.774322729E+02 -6.539590150E+02  3.249058578E+02  1.148363446E+03  1.250000000E+02  0.00000E+00  9.000E+00
      25     1     1     2     0     0  1.199468579E+03  5.607116067E+02 -2.955436221E+02  1.362385192E+03  1.250000000E+02  0.00000E+00  9.000E+00
      21     1     1     2   511   502 -3.220363064E+02  9.324740824E+01  1.915214128E+01  3.358113552E+02  3.099441528E-06  0.00000E+00  9.000E+00
#rwgt            1           1   7.1134331377565987E-002           9      120582           0
</event>
<event>
      5   9999  3.19816E-02  3.24284E+02 -1.00000E+00  1.04505E-01
      21    -1     0     0   512   501  0.000000000E+00  0.000000000E+00  7.234654375E+02  7.234654375E+02  0.000000000E+00  0.00000E+00  9.000E+00
      21    -1     0     0   501   502  0.000000000E+00  0.000000000E+00 -3.221338305E+02  3.221338305E+02  0.000000000E+00  0.00000E+00  9.000E+00
      25     1     1     2     0     0  2.346203712E+02 -3.609737793E+02  8.741466179E+01  4.567440323E+02  1.250000000E+02  0.00000E+00  9.000E+00
      25     1     1     2     0     0 -7.728441542E+01  7.741506429E+01  5.865157894E+01  1.761561261E+02  1.250000000E+02  0.00000E+00  9.000E+00
      21     1     1     2   512   502 -1.573359558E+02  2.835587150E+02  2.552653663E+02  4.126991096E+02  5.394796609E-06  0.00000E+00  9.000E+00
#rwgt            1           1   2.7514641545951048E-002           9      120622           0
</event>
<event>
      5   9999  3.19816E-02  1.54863E+01 -1.00000E+00  1.76088E-01
      21    -1     0     0   511   501  0.000000000E+00  0.000000000E+00  4.507589761E+02  4.507589761E+02  0.000000000E+00  0.00000E+00  9.000E+00
      21    -1     0     0   501   502  0.000000000E+00  0.000000000E+00 -4.782872502E+02  4.782872502E+02  0.000000000E+00  0.00000E+00  9.000E+00
      25     1     1     2     0     0  1.026438769E+02  2.169586863E+02  3.086689775E+02  4.104977158E+02  1.250000000E+02  0.00000E+00  9.000E+00
      25     1     1     2     0     0 -1.013104616E+02 -2.015299023E+02 -3.872164242E+02  4.652307710E+02  1.250000000E+02  0.00000E+00  9.000E+00
      21     1     1     2   511   502 -1.333415319E+00 -1.542878401E+01  5.101917250E+01  5.331773941E+01  0.000000000E+00  0.00000E+00  9.000E+00
#rwgt            1           1   2.8300184137339174E-002           9      120673           0
</event>
<event>
      5   9999  3.19816E-02  7.74705E+01 -1.00000E+00  1.29029E-01
      21    -1     0     0   502   501  0.000000000E+00  0.000000000E+00  1.002727956E+02  1.002727956E+02  0.000000000E+00  0.00000E+00  9.000E+00
      21    -1     0     0   501   512  0.000000000E+00  0.000000000E+00 -1.247299694E+03  1.247299694E+03  0.000000000E+00  0.00000E+00  9.000E+00
      25     1     1     2     0     0 -2.980833106E+00  3.344482034E+01 -9.576516033E+02  9.663586470E+02  1.250000000E+02  0.00000E+00  9.000E+00
      25     1     1     2     0     0  2.149487949E+01 -1.086705664E+02  9.995170717E+00  1.673207258E+02  1.250000000E+02  0.00000E+00  9.000E+00
      21     1     1     2   502   512 -1.851404638E+01  7.522574606E+01 -1.993704660E+02  2.138931170E+02  0.000000000E+00  0.00000E+00  9.000E+00
#rwgt            2          11   3.0046644988455207E-003           9      120856           0
</event>
<event>
      5   9999  3.19816E-02  5.42681E+01 -1.00000E+00  1.37076E-01
      21    -1     0     0   511   501  0.000000000E+00  0.000000000E+00  6.007769326E+02  6.007769326E+02  0.000000000E+00  0.00000E+00  9.000E+00
      21    -1     0     0   501   502  0.000000000E+00  0.000000000E+00 -6.413136677E+02  6.413136677E+02  0.000000000E+00  0.00000E+00  9.000E+00
      25     1     1     2     0     0 -1.339898309E+02 -5.356979153E+02 -1.070123079E+02  5.761962906E+02  1.250000000E+02  0.00000E+00  9.000E+00
      25     1     1     2     0     0  1.775284688E+02  5.680925217E+02  6.463879404E+01  6.115951636E+02  1.250000000E+02  0.00000E+00  9.000E+00
      21     1     1     2   511   502 -4.353863789E+01 -3.239460641E+01  1.836778789E+00  5.429914613E+01  1.009766719E-06  0.00000E+00  9.000E+00
#rwgt            1           1   3.1298606790956342E-002           9      120876           0
</event>
<event>
      5   9999  3.19816E-02  9.23665E+00 -1.00000E+00  1.99830E-01
      21    -1     0     0   502   501  0.000000000E+00  0.000000000E+00  2.530873550E+02  2.530873550E+02  0.000000000E+00  0.00000E+00  9.000E+00
      21    -1     0     0   512   502  0.000000000E+00  0.000000000E+00 -8.301464593E+02  8.301464593E+02  0.000000000E+00  0.00000E+00  9.000E+00
      25     1     1     2     0     0 -9.849019148E+01 -3.600101365E+02 -2.758838923E+01  3.945804549E+02  1.250000000E+02  0.00000E+00  9.000E+00
      25     1     1     2     0     0  9.056729936E+01  3.552621298E+02 -4.718094168E+02  6.104447087E+02  1.250000000E+02  0.00000E+00  9.000E+00
      21     1     1     2   512   501  7.922892119E+00  4.748006623E+00 -7.766129833E+01  7.820865070E+01  9.536743164E-07  0.00000E+00  9.000E+00
#rwgt            1           1   2.9394370444502209E-002           9      120996           0
</event>
<event>
      5   9999  3.19816E-02  1.39969E+02 -1.00000E+00  1.17598E-01
      21    -1     0     0   502   501  0.000000000E+00  0.000000000E+00  2.006075551E+02  2.006075551E+02  0.000000000E+00  0.00000E+00  9.000E+00
      -2    -1     0     0     0   502  0.000000000E+00  0.000000000E+00 -4.128890458E+02  4.128890458E+02  0.000000000E+00  0.00000E+00  9.000E+00
      25     1     1     2     0     0  1.730804735E+02 -2.650311267E+01 -1.384915689E+02  2.558596880E+02  1.250000000E+02  0.00000E+00  9.000E+00
      25     1     1     2     0     0 -3.580248406E+01 -8.093142238E-01 -1.497993045E+02  1.983615499E+02  1.250000000E+02  0.00000E+00  9.000E+00
      -2     1     1     2     0   501 -1.372779894E+02  2.731242689E+01  7.600938259E+01  1.592753631E+02  4.370284743E-06  0.00000E+00  9.000E+00
#rwgt            1           1   2.3358865576002499E-002           9      121355           0
</event>
<event>
      5   9999  3.19816E-02  1.70755E+02 -1.00000E+00  1.14206E-01
       1    -1     0     0   502     0  0.000000000E+00  0.000000000E+00  1.573828666E+03  1.573828666E+03  0.000000000E+00  0.00000E+00  9.000E+00
      21    -1     0     0   501   502  0.000000000E+00  0.000000000E+00 -4.611665411E+02  4.611665411E+02  0.000000000E+00  0.00000E+00  9.000E+00
      25     1     1     2     0     0  8.458482441E+01  4.575806180E+02 -3.056948212E+00  4.818391427E+02  1.250000000E+02  0.00000E+00  9.000E+00
      25     1     1     2     0     0 -2.755473292E+01 -2.966312399E+02 -9.002691297E+01  3.353791897E+02  1.250000000E+02  0.00000E+00  9.000E+00
       1     1     1     2   501     0 -5.703009150E+01 -1.609493781E+02  1.205745986E+03  1.217776875E+03  1.525878906E-05  0.00000E+00  9.000E+00
#rwgt            1           1   2.7251338224732292E-002           9      121413           0
</event>
<event>
      5   9999  3.19816E-02  5.06587E+01 -1.00000E+00  1.38752E-01
      21    -1     0     0   502   501  0.000000000E+00  0.000000000E+00  7.584843581E+02  7.584843581E+02  0.000000000E+00  0.00000E+00  9.000E+00
      21    -1     0     0   501   511  0.000000000E+00  0.000000000E+00 -5.792843972E+02  5.792843972E+02  0.000000000E+00  0.00000E+00  9.000E+00
      25     1     1     2     0     0 -4.212995545E+02 -4.547266205E+02  2.872717597E+02  6.945643800E+02  1.250000000E+02  0.00000E+00  9.000E+00
      25     1     1     2     0     0  3.817139799E+02  4.231151437E+02 -9.960619023E+01  5.918432059E+02  1.250000000E+02  0.00000E+00  9.000E+00
      21     1     1     2   502   511  3.958557462E+01  3.161147688E+01 -8.465608563E+00  5.136116935E+01  1.255947799E-06  0.00000E+00  9.000E+00
#rwgt            1           1   3.1560864148934394E-002           9      121492           0
</event>
<event>
      5   9999  3.19816E-02  9.93086E+02 -1.00000E+00  9.10636E-02
      21    -1     0     0   502   501  0.000000000E+00  0.000000000E+00  3.730645665E+02  3.730645665E+02  0.000000000E+00  0.00000E+00  9.000E+00
       2    -1     0     0   501     0  0.000000000E+00  0.000000000E+00 -4.207279927E+03  4.207279927E+03  0.000000000E+00  0.00000E+00  9.000E+00
      25     1     1     2     0     0  3.078471391E+02 -3.418314148E+01 -2.834684083E+01  3.352117116E+02  1.250000000E+02  0.00000E+00  9.000E+00
      25     1     1     2     0     0  4.726347127E+02  6.482420999E+02 -2.319796096E+03  2.457779551E+03  1.250000000E+02  0.00000E+00  9.000E+00
       2     1     1     2   502     0 -7.804818519E+02 -6.140589584E+02 -1.486072424E+03  1.787353231E+03  2.157918644E-05  0.00000E+00  9.000E+00
#rwgt            2          13   4.3772371392584243E-004           9      121741           0
</event>
<event>
      5   9999  3.19816E-02  4.43842E+01 -1.00000E+00  1.42093E-01
      21    -1     0     0   502   501  0.000000000E+00  0.000000000E+00  6.992346747E+02  6.992346747E+02  0.000000000E+00  0.00000E+00  9.000E+00
      21    -1     0     0   511   502  0.000000000E+00  0.000000000E+00 -6.240309356E+02  6.240309356E+02  0.000000000E+00  0.00000E+00  9.000E+00
      25     1     1     2     0     0  1.377949084E+02  1.936263988E+02  5.191738857E+00  2.685713560E+02  1.250000000E+02  0.00000E+00  9.000E+00
      25     1     1     2     0     0 -1.436036567E+02 -2.376288300E+02  5.199638618E+02  6.025586184E+02  1.250000000E+02  0.00000E+00  9.000E+00
      21     1     1     2   511   501  5.808748346E+00  4.400243121E+01 -4.499518616E+02  4.521356359E+02  5.394796609E-06  0.00000E+00  9.000E+00
#rwgt            1           1   2.7996394338512660E-002           9      121760           0
</event>
<event>
      5   9999  3.19816E-02  6.59759E+01 -1.00000E+00  1.32536E-01
      21    -1     0     0   502   501  0.000000000E+00  0.000000000E+00  7.442550373E+01  7.442550373E+01  0.000000000E+00  0.00000E+00  9.000E+00
      21    -1     0     0   501   512  0.000000000E+00  0.000000000E+00 -2.267666104E+03  2.267666104E+03  0.000000000E+00  0.00000E+00  9.000E+00
      25     1     1     2     0     0  1.591229735E+02 -2.264868035E+02 -4.721372235E+02  5.613866321E+02  1.250000000E+02  0.00000E+00  9.000E+00
      25     1     1     2     0     0 -9.594178951E+01  2.074878748E+02 -5.590511139E+02  6.167813171E+02  1.250000000E+02  0.00000E+00  9.000E+00
      21     1     1     2   502   512 -6.318118400E+01  1.899892872E+01 -1.162052263E+03  1.163923658E+03  1.525878906E-05  0.00000E+00  9.000E+00
#rwgt            1           1   2.7073831130334292E-002           9      121848           0
</event>
<event>
      5   9999  3.19816E-02  3.31816E+02 -1.00000E+00  1.04189E-01
      21    -1     0     0   502   501  0.000000000E+00  0.000000000E+00  1.611223701E+03  1.611223701E+03  0.000000000E+00  0.00000E+00  9.000E+00
       2    -1     0     0   501     0  0.000000000E+00  0.000000000E+00 -4.071907000E+02  4.071907000E+02  0.000000000E+00  0.00000E+00  9.000E+00
      25     1     1     2     0     0 -3.834587780E+02 -3.137028917E+02  1.095586628E+03  1.208877660E+03  1.250000000E+02  0.00000E+00  9.000E+00
      25     1     1     2     0     0  5.485408884E+01  2.676514736E+02  3.015016253E+02  4.256459942E+02  1.250000000E+02  0.00000E+00  9.000E+00
       2     1     1     2   502     0  3.286046892E+02  4.605141812E+01 -1.930552520E+02  3.838907464E+02  6.607249480E-06  0.00000E+00  9.000E+00
#rwgt            2          13   7.0401450653842859E-004           9      121936           0
</event>
<event>
      5   9999  3.19816E-02  2.54639E+01 -1.00000E+00  1.58155E-01
      21    -1     0     0   502   511  0.000000000E+00  0.000000000E+00  2.586972943E+02  2.586972943E+02  0.000000000E+00  0.00000E+00  9.000E+00
      21    -1     0     0   501   502  0.000000000E+00  0.000000000E+00 -1.291263956E+02  1.291263956E+02  0.000000000E+00  0.00000E+00  9.000E+00
      25     1     1     2     0     0  6.988082747E+01  3.644627307E+01 -1.762595797E+01  1.488198080E+02  1.250000000E+02  0.00000E+00  9.000E+00
      25     1     1     2     0     0 -9.215329762E+01 -4.878923055E+01  1.253217762E+02  2.054340937E+02  1.250000000E+02  0.00000E+00  9.000E+00
      21     1     1     2   501   511  2.227247015E+01  1.234295747E+01  2.187508059E+01  3.356978815E+01  6.743495762E-07  0.00000E+00  9.000E+00
#rwgt            1           1   3.2907178487356963E-002           9      121970           0
</event>
<event>
      5   9999  3.19816E-02  6.23367E+01 -1.00000E+00  1.33823E-01
      21    -1     0     0   502   501  0.000000000E+00  0.000000000E+00  1.434149974E+02  1.434149974E+02  0.000000000E+00  0.00000E+00  9.000E+00
      21    -1     0     0   512   502  0.000000000E+00  0.000000000E+00 -1.609784261E+03  1.609784261E+03  0.000000000E+00  0.00000E+00  9.000E+00
      25     1     1     2     0     0 -3.653048665E+01  4.270129512E+02 -6.434832806E+02  7.831795894E+02  1.250000000E+02  0.00000E+00  9.000E+00
      25     1     1     2     0     0  4.997227282E+01 -3.661427829E+02 -4.660092027E+02  6.077395351E+02  1.250000000E+02  0.00000E+00  9.000E+00
      21     1     1     2   512   501 -1.344178617E+01 -6.087016828E+01 -3.568767802E+02  3.622801337E+02  3.814697266E-06  0.00000E+00  9.000E+00
#rwgt            1           1   3.1058571905570657E-002           9      122062           0
</event>
<event>
      5   9999  3.19816E-02  7.41776E+01 -1.00000E+00  1.29958E-01
      21    -1     0     0   511   501  0.000000000E+00  0.000000000E+00  3.860018871E+02  3.860018871E+02  0.000000000E+00  0.00000E+00  9.000E+00
      21    -1     0     0   501   502  0.000000000E+00  0.000000000E+00 -6.450759267E+02  6.450759267E+02  0.000000000E+00  0.00000E+00  9.000E+00
      25     1     1     2     0     0 -1.737329327E+02  3.090785021E+01 -2.020078586E+02  2.959233043E+02  1.250000000E+02  0.00000E+00  9.000E+00
      25     1     1     2     0     0  1.686433528E+02  4.309489227E+01 -3.623569514E+02  4.209813659E+02  1.250000000E+02  0.00000E+00  9.000E+00
      21     1     1     2   511   502  5.089579906E+00 -7.400274248E+01  3.052907704E+02  3.141731437E+02  3.814697266E-06  0.00000E+00  9.000E+00
#rwgt            1           1   3.4335636796688225E-002           9      122160           0
</event>
<event>
      5   9999  3.19816E-02  1.73018E+01 -1.00000E+00  1.71735E-01
      21    -1     0     0   502   501  0.000000000E+00  0.000000000E+00  1.048746290E+03  1.048746290E+03  0.000000000E+00  0.00000E+00  9.000E+00
      21    -1     0     0   512   502  0.000000000E+00  0.000000000E+00 -4.011455619E+02  4.011455619E+02  0.000000000E+00  0.00000E+00  9.000E+00
      25     1     1     2     0     0  5.119144304E+01  5.728360359E+02  1.750475031E+02  6.140263156E+02  1.250000000E+02  0.00000E+00  9.000E+00
      25     1     1     2     0     0 -6.702136150E+01 -5.658527561E+02  5.224157840E+02  7.830864932E+02  1.250000000E+02  0.00000E+00  9.000E+00
      21     1     1     2   512   501  1.582991846E+01 -6.983279867E+00 -4.986255945E+01  5.277904273E+01  1.348699152E-06  0.00000E+00  9.000E+00
#rwgt            1           1   2.9150394310631652E-002           9      122257           0
</event>
<event>
      5   9999  3.19816E-02  7.84268E+01 -1.00000E+00  1.28768E-01
       1    -1     0     0   502     0  0.000000000E+00  0.000000000E+00  7.209775246E+02  7.209775246E+02  0.000000000E+00  0.00000E+00  9.000E+00
      21    -1     0     0   501   502  0.000000000E+00  0.000000000E+00 -1.365580634E+03  1.365580634E+03  0.000000000E+00  0.00000E+00  9.000E+00
      25     1     1     2     0     0 -1.120665846E+02 -6.966708408E+02 -8.734087745E+02  1.129768590E+03  1.250000000E+02  0.00000E+00  9.000E+00
      25     1     1     2     0     0  1.406595022E+02  6.236420008E+02 -6.316543824E+01  6.544687260E+02  1.250000000E+02  0.00000E+00  9.000E+00
       1     1     1     2   501     0 -2.859291755E+01  7.302883992E+01  2.919711036E+02  3.023208423E+02  0.000000000E+00  0.00000E+00  9.000E+00
#rwgt            1           1   1.4661675787909329E-002           9      122516           0
</event>
<event>
      5   9999  3.19816E-02  8.09805E+01 -1.00000E+00  1.28094E-01
      21    -1     0     0   502   501  0.000000000E+00  0.000000000E+00  1.719903302E+03  1.719903302E+03  0.000000000E+00  0.00000E+00  9.000E+00
      -2    -1     0     0     0   502  0.000000000E+00  0.000000000E+00 -8.709873597E+01  8.709873597E+01  0.000000000E+00  0.00000E+00  9.000E+00
      25     1     1     2     0     0 -2.230573149E+02 -2.195657080E+02  9.259094072E+02  9.853410050E+02  1.250000000E+02  0.00000E+00  9.000E+00
      25     1     1     2     0     0  1.740406232E+02  1.551048285E+02  6.899582925E+02  7.389283400E+02  1.250000000E+02  0.00000E+00  9.000E+00
      -2     1     1     2     0   501  4.901669168E+01  6.446087949E+01  1.693686647E+01  8.273269301E+01  2.132480600E-06  0.00000E+00  9.000E+00
#rwgt            1           1   3.3934729864164050E-002           9      122633           0
</event>
<event>
      5   9999  3.19816E-02  1.05065E+02 -1.00000E+00  1.22870E-01
      21    -1     0     0   502   501  0.000000000E+00  0.000000000E+00  4.352327734E+02  4.352327734E+02  0.000000000E+00  0.00000E+00  9.000E+00
      21    -1     0     0   501   511  0.000000000E+00  0.000000000E+00 -7.890661751E+02  7.890661751E+02  0.000000000E+00  0.00000E+00  9.000E+00
      25     1     1     2     0     0  2.423795635E+01  2.912300771E+02 -1.115082433E+02  3.368405033E+02  1.250000000E+02  0.00000E+00  9.000E+00
      25     1     1     2     0     0  6.505839000E+01 -2.358691194E+02  2.575897708E+02  3.766222585E+02  1.250000000E+02  0.00000E+00  9.000E+00
      21     1     1     2   502   511 -8.929634635E+01 -5.536095776E+01 -4.999149292E+02  5.108361866E+02  5.394796609E-06  0.00000E+00  9.000E+00
#rwgt            1           1   2.5632225501276019E-002           9      122709           0
</event>
<event>
      5   9999  3.19816E-02  5.24971E+01 -1.00000E+00  1.37879E-01
      21    -1     0     0   502   501  0.000000000E+00  0.000000000E+00  5.802497708E+02  5.802497708E+02  0.000000000E+00  0.00000E+00  9.000E+00
      21    -1     0     0   501   512  0.000000000E+00  0.000000000E+00 -2.726279238E+02  2.726279238E+02  0.000000000E+00  0.00000E+00  9.000E+00
      25     1     1     2     0     0  3.730726137E+01  2.129167203E+00  5.381871772E+02  5.537750472E+02  1.250000000E+02  0.00000E+00  9.000E+00
      25     1     1     2     0     0  2.239839234E-01 -3.883538707E+01 -1.239758295E+02  1.802865601E+02  1.250000000E+02  0.00000E+00  9.000E+00
      21     1     1     2   502   512 -3.753124530E+01  3.670621987E+01 -1.065895008E+02  1.188160874E+02  1.348699152E-06  0.00000E+00  9.000E+00
#rwgt            1           1   2.7932697721221519E-002           9      122777           0
</event>
<event>
      5   9999  3.19816E-02  8.79599E+01 -1.00000E+00  1.26387E-01
      21    -1     0     0   502   511  0.000000000E+00  0.000000000E+00  3.691270214E+02  3.691270214E+02  0.000000000E+00  0.00000E+00  9.000E+00
      21    -1     0     0   501   502  0.000000000E+00  0.000000000E+00 -6.123405626E+02  6.123405626E+02  0.000000000E+00  0.00000E+00  9.000E+00
      25     1     1     2     0     0 -8.471008587E+01  2.338484445E+02 -3.733663697E+02  4.657127223E+02  1.250000000E+02  0.00000E+00  9.000E+00
      25     1     1     2     0     0  1.343462533E+02 -1.612316649E+02 -1.041014511E+02  2.655309354E+02  1.250000000E+02  0.00000E+00  9.000E+00
      21     1     1     2   501   511 -4.963616742E+01 -7.261677958E+01  2.342542796E+02  2.502239263E+02  3.814697266E-06  0.00000E+00  9.000E+00
#rwgt            1           1   3.1092559827937630E-002           9      122884           0
</event>
<event>
      5   9999  3.19816E-02  2.00363E+02 -1.00000E+00  1.11619E-01
      21    -1     0     0   502   501  0.000000000E+00  0.000000000E+00  3.852868829E+02  3.852868829E+02  0.000000000E+00  0.00000E+00  9.000E+00
      21    -1     0     0   512   502  0.000000000E+00  0.000000000E+00 -3.293247934E+02  3.293247934E+02  0.000000000E+00  0.00000E+00  9.000E+00
      25     1     1     2     0     0  1.770754081E+02  5.457380149E+01  1.435011275E+02  2.656154618E+02  1.250000000E+02  0.00000E+00  9.000E+00
      25     1     1     2     0     0 -2.992419066E+01 -1.905579054E+02 -9.447853353E+01  2.485135123E+02  1.250000000E+02  0.00000E+00  9.000E+00
      21     1     1     2   512   501 -1.471512175E+02  1.359841039E+02  6.939495496E+00  2.004827023E+02  9.078709013E-07  0.00000E+00  9.000E+00
#rwgt            2          11   3.1015509533670852E-003           9      123244           0
</event>
<event>
      5   9999  3.19816E-02  2.08394E+01 -1.00000E+00  1.64909E-01
      21    -1     0     0   502   511  0.000000000E+00  0.000000000E+00  3.711019228E+02  3.711019228E+02  0.000000000E+00  0.00000E+00  9.000E+00
      21    -1     0     0   501   502  0.000000000E+00  0.000000000E+00 -1.246594458E+03  1.246594458E+03  0.000000000E+00  0.00000E+00  9.000E+00
      25     1     1     2     0     0  3.841772730E+02 -3.439746155E+02 -9.046430742E+02  1.048768232E+03  1.250000000E+02  0.00000E+00  9.000E+00
      25     1     1     2     0     0 -4.049668774E+02  3.425355394E+02  1.786104325E+01  5.452272778E+02  1.250000000E+02  0.00000E+00  9.000E+00
      21     1     1     2   501   511  2.078960446E+01  1.439076115E+00  1.128949537E+01  2.370087128E+01  2.665600750E-07  0.00000E+00  9.000E+00
#rwgt            1           1   2.8109791412439983E-002           9      123264           0
</event>
<event>
      5   9999  3.19816E-02  1.25912E+01 -1.00000E+00  1.84859E-01
      21    -1     0     0   512   501  0.000000000E+00  0.000000000E+00  5.087533420E+02  5.087533420E+02  0.000000000E+00  0.00000E+00  9.000E+00
      21    -1     0     0   501   502  0.000000000E+00  0.000000000E+00 -1.782229536E+02  1.782229536E+02  0.000000000E+00  0.00000E+00  9.000E+00
      25     1     1     2     0     0 -1.568550129E+01 -6.086908629E+01 -1.333838352E+02  1.933063065E+02  1.250000000E+02  0.00000E+00  9.000E+00
      25     1     1     2     0     0  1.116247787E+01  4.911831446E+01  2.954415454E+02  3.247274495E+02  1.250000000E+02  0.00000E+00  9.000E+00
      21     1     1     2   512   502  4.523023416E+00  1.175077183E+01  1.684726783E+02  1.689425397E+02  2.697398305E-06  0.00000E+00  9.000E+00
#rwgt            1           1   2.9174881904053034E-002           9      123480           0
</event>
<event>
      5   9999  3.19816E-02  2.87310E+01 -1.00000E+00  1.54355E-01
      21    -1     0     0   502   501  0.000000000E+00  0.000000000E+00  1.039107728E+03  1.039107728E+03  0.000000000E+00  0.00000E+00  9.000E+00
      21    -1     0     0   511   502  0.000000000E+00  0.000000000E+00 -4.907564219E+02  4.907564219E+02  0.000000000E+00  0.00000E+00  9.000E+00
      25     1     1     2     0     0  3.698544785E+01 -3.076653731E+02  8.977946472E+02  9.579593591E+02  1.250000000E+02  0.00000E+00  9.000E+00
      25     1     1     2     0     0 -2.375322574E+01  3.331678950E+02 -1.789642793E+02  3.990216476E+02  1.250000000E+02  0.00000E+00  9.000E+00
      21     1     1     2   511   501 -1.323222211E+01 -2.550252193E+01 -1.704790623E+02  1.728831426E+02  2.697398305E-06  0.00000E+00  9.000E+00
#rwgt            1           1   3.0867550449715883E-002           9      123682           0
</event>
<event>
      5   9999  3.19816E-02  4.18305E+01 -1.00000E+00  1.43645E-01
       2    -1     0     0   502     0  0.000000000E+00  0.000000000E+00  3.310017162E+03  3.310017162E+03  0.000000000E+00  0.00000E+00  9.000E+00
      21    -1     0     0   501   502  0.000000000E+00  0.000000000E+00 -2.666065609E+02  2.666065609E+02  0.000000000E+00  0.00000E+00  9.000E+00
      25     1     1     2     0     0  1.766904149E+02 -3.598730655E+02  1.408985542E+02  4.429509324E+02  1.250000000E+02  0.00000E+00  9.000E+00
      25     1     1     2     0     0 -2.181748678E+02  3.545036685E+02  2.937669853E+02  5.245923804E+02  1.250000000E+02  0.00000E+00  9.000E+00
       2     1     1     2   501     0  4.148445291E+01  5.369396947E+00  2.608745061E+03  2.609080410E+03  5.285799584E-05  0.00000E+00  9.000E+00
#rwgt            1           1   2.8863018031638713E-002           9      123832           0
</event>
<event>
      5   9999  3.19816E-02  2.10227E+01 -1.00000E+00  1.64602E-01
      21    -1     0     0   511   501  0.000000000E+00  0.000000000E+00  6.338569747E+02  6.338569747E+02  0.000000000E+00  0.00000E+00  9.000E+00
      21    -1     0     0   501   502  0.000000000E+00  0.000000000E+00 -2.265927628E+02  2.265927628E+02  0.000000000E+00  0.00000E+00  9.000E+00
      25     1     1     2     0     0  1.509334600E+02  1.707851284E+02 -1.014199468E+02  2.790331075E+02  1.250000000E+02  0.00000E+00  9.000E+00
      25     1     1     2     0     0 -1.522299304E+02 -1.498024672E+02  3.973105075E+02  4.680762441E+02  1.250000000E+02  0.00000E+00  9.000E+00
      21     1     1     2   511   502  1.296470415E+00 -2.098266120E+01  1.113736512E+02  1.133403860E+02  0.000000000E+00  0.00000E+00  9.000E+00
#rwgt            1           1   2.8480153734274007E-002           9      123940           0
</event>
<event>
      5   9999  3.19816E-02  1.41478E+02 -1.00000E+00  1.17409E-01
      21    -1     0     0   502   501  0.000000000E+00  0.000000000E+00  5.884772816E+02  5.884772816E+02  0.000000000E+00  0.00000E+00  9.000E+00
       1    -1     0     0   501     0  0.000000000E+00  0.000000000E+00 -2.894383390E+02  2.894383390E+02  0.000000000E+00  0.00000E+00  9.000E+00
      25     1     1     2     0     0 -6.280587866E+00 -2.171499010E+02  1.927238068E+02  3.161660814E+02  1.250000000E+02  0.00000E+00  9.000E+00
      25     1     1     2     0     0 -2.031614857E+00  7.591668620E+01  2.930205230E+02  3.274957979E+02  1.250000000E+02  0.00000E+00  9.000E+00
       1     1     1     2   502     0  8.312202723E+00  1.412332148E+02 -1.867053873E+02  2.342537414E+02  0.000000000E+00  0.00000E+00  9.000E+00
#rwgt            1           1   2.8401068911909588E-002           9      124102           0
</event>
<event>
      5   9999  3.19816E-02  1.88596E+01 -1.00000E+00  1.68501E-01
      21    -1     0     0   502   501  0.000000000E+00  0.000000000E+00  8.078177458E+02  8.078177458E+02  0.000000000E+00  0.00000E+00  9.000E+00
      21    -1     0     0   501   511  0.000000000E+00  0.000000000E+00 -1.011151588E+02  1.011151588E+02  0.000000000E+00  0.00000E+00  9.000E+00
      25     1     1     2     0     0 -1.619165716E+02  1.134356006E+02  6.065098831E+02  6.500491135E+02  1.250000000E+02  0.00000E+00  9.000E+00
      25     1     1     2     0     0  1.517190626E+02 -9.757071662E+01  9.612376548E+01  2.395902690E+02  1.250000000E+02  0.00000E+00  9.000E+00
      21     1     1     2   502   511  1.019750903E+01 -1.586488399E+01  4.068938379E+00  1.929352207E+01  5.230286352E-07  0.00000E+00  9.000E+00
#rwgt            1           1   3.4494109155286917E-002           9      124135           0
</event>
<event>
      5   9999  3.19816E-02  5.24128E+01 -1.00000E+00  1.37918E-01
       1    -1     0     0   502     0  0.000000000E+00  0.000000000E+00  3.659034474E+02  3.659034474E+02  0.000000000E+00  0.00000E+00  9.000E+00
      21    -1     0     0   501   502  0.000000000E+00  0.000000000E+00 -5.581715240E+02  5.581715240E+02  0.000000000E+00  0.00000E+00  9.000E+00
      25     1     1     2     0     0 -1.722948503E+02 -9.652778887E+00  9.317888050E+01  2.325639597E+02  1.250000000E+02  0.00000E+00  9.000E+00
      25     1     1     2     0     0  2.225451166E+02  2.455291186E+01 -4.504829057E+02  5.183522188E+02  1.250000000E+02  0.00000E+00  9.000E+00
       1     1     1     2   501     0 -5.025026632E+01 -1.490013297E+01  1.650359486E+02  1.731587929E+02  1.907348633E-06  0.00000E+00  9.000E+00
#rwgt            1           1   2.8403917115245789E-002           9      124322           0
</event>
<event>
      5   9999  3.19816E-02  2.92553E+02 -1.00000E+00  1.05948E-01
      21    -1     0     0   502   511  0.000000000E+00  0.000000000E+00  1.287570760E+03  1.287570760E+03  0.000000000E+00  0.00000E+00  9.000E+00
      21    -1     0     0   501   502  0.000000000E+00  0.000000000E+00 -2.907404784E+02  2.907404784E+02  0.000000000E+00  0.00000E+00  9.000E+00
      25     1     1     2     0     0  6.604026018E+01 -3.124216357E+01  3.256422706E+02  3.563779976E+02  1.250000000E+02  0.00000E+00  9.000E+00
      25     1     1     2     0     0 -3.169309751E+02 -1.192279718E+02 -1.184130429E+02  3.798778764E+02  1.250000000E+02  0.00000E+00  9.000E+00
      21     1     1     2   501   511  2.508907150E+02  1.504701354E+02  7.896010537E+02  8.420553642E+02  1.078959322E-05  0.00000E+00  9.000E+00
#rwgt            1           1   2.7905548445587885E-002           9      124377           0
</event>
<event>
      5   9999  3.19816E-02  1.49136E+02 -1.00000E+00  1.16493E-01
      21    -1     0     0   502   501  0.000000000E+00  0.000000000E+00  9.545210174E+02  9.545210174E+02  0.000000000E+00  0.00000E+00  9.000E+00
      21    -1     0     0   512   502  0.000000000E+00  0.000000000E+00 -1.811743732E+02  1.811743732E+02  0.000000000E+00  0.00000E+00  9.000E+00
      25     1     1     2     0     0  9.880454307E+01 -3.535134992E+01  1.072483867E+02  1.952927856E+02  1.250000000E+02  0.00000E+00  9.000E+00
      25     1     1     2     0     0 -2.388322449E+02  8.667154305E+01  7.263228240E+02  7.795656754E+02  1.250000000E+02  0.00000E+00  9.000E+00
      21     1     1     2   512   501  1.400277019E+02 -5.132019313E+01 -6.022456640E+01  1.608369296E+02  9.536743164E-07  0.00000E+00  9.000E+00
#rwgt            1           1   2.8559244145389861E-002           9      124422           0
</event>
<event>
      5   9999  3.19816E-02  5.76574E+01 -1.00000E+00  1.35634E-01
      21    -1     0     0   502   501  0.000000000E+00  0.000000000E+00  6.718427813E+01  6.718427813E+01  0.000000000E+00  0.00000E+00  9.000E+00
      21    -1     0     0   511   502  0.000000000E+00  0.000000000E+00 -9.202107943E+02  9.202107943E+02  0.000000000E+00  0.00000E+00  9.000E+00
      25     1     1     2     0     0 -7.385015446E+01 -7.884677126E+01 -5.423253483E+02  5.669324846E+02  1.250000000E+02  0.00000E+00  9.000E+00
      25     1     1     2     0     0  1.670409497E+01  7.118511663E+01 -4.960369211E+01  1.530747330E+02  1.250000000E+02  0.00000E+00  9.000E+00
      21     1     1     2   511   501  5.714605950E+01  7.661654628E+00 -2.610974757E+02  2.673878548E+02  3.814697266E-06  0.00000E+00  9.000E+00
#rwgt            1           1   2.8788048461409567E-002           9      124465           0
</event>
<event>
      5   9999  3.19816E-02  1.85414E+02 -1.00000E+00  1.12859E-01
      21    -1     0     0   502   512  0.000000000E+00  0.000000000E+00  4.393669192E+02  4.393669192E+02  0.000000000E+00  0.00000E+00  9.000E+00
      21    -1     0     0   501   502  0.000000000E+00  0.000000000E+00 -1.102231882E+03  1.102231882E+03  0.000000000E+00  0.00000E+00  9.000E+00
      25     1     1     2     0     0 -2.467582654E+02 -3.462942626E+02 -7.297984789E+01  4.491774884E+02  1.250000000E+02  0.00000E+00  9.000E+00
      25     1     1     2     0     0  4.224632511E+02  2.870833227E+02 -7.009642519E+02  8.762807285E+02  1.250000000E+02  0.00000E+00  9.000E+00
      21     1     1     2   501   512 -1.757049857E+02  5.921093992E+01  1.110791371E+02  2.161405841E+02  4.046097457E-06  0.00000E+00  9.000E+00
#rwgt            1           1   3.0722702758798476E-002           9      124573           0
</event>
<event>
      5   9999  3.19816E-02  3.16859E+01 -1.00000E+00  1.51409E-01
      21    -1     0     0   502   501  0.000000000E+00  0.000000000E+00  5.197173760E+01  5.197173760E+01  0.000000000E+00  0.00000E+00  9.000E+00
       2    -1     0     0   501     0  0.000000000E+00  0.000000000E+00 -2.237869639E+03  2.237869639E+03  0.000000000E+00  0.00000E+00  9.000E+00
      25     1     1     2     0     0  7.280961983E+01  1.299947937E+02 -2.367910251E+02  3.064227092E+02  1.250000000E+02  0.00000E+00  9.000E+00
      25     1     1     2     0     0 -9.089595505E+01 -1.039778213E+02 -4.937854287E+02  5.277523203E+02  1.250000000E+02  0.00000E+00  9.000E+00
       2     1     1     2   502     0  1.808633523E+01 -2.601697237E+01 -1.455321447E+03  1.455666347E+03  0.000000000E+00  0.00000E+00  9.000E+00
#rwgt            1           1   2.7119069387754706E-002           9      124651           0
</event>
<event>
      5   9999  3.22399E-02  1.05916E+02 -1.00000E+00  1.22715E-01
      21    -1     0     0   502   511  0.000000000E+00  0.000000000E+00  3.465567254E+03  3.465567254E+03  0.000000000E+00  0.00000E+00  9.000E+00
      21    -1     0     0   501   502  0.000000000E+00  0.000000000E+00 -5.496783822E+02  5.496783822E+02  0.000000000E+00  0.00000E+00  9.000E+00
      25     1     1     2     0     0 -6.392240747E+02  3.688778412E+02 -2.156451193E+02  7.789775972E+02  1.250000000E+02  0.00000E+00  9.000E+00
      25     1     1     2     0     0  6.480936125E+02 -2.633336431E+02  2.707257969E+03  2.798971355E+03  1.250000000E+02  0.00000E+00  9.000E+00
      21     1     1     2   501   511 -8.869537735E+00 -1.055441981E+02  4.242760221E+02  4.372966835E+02  5.394796609E-06  0.00000E+00  9.000E+00
#rwgt            1           1   5.0795035661946486E-002           9      124757           0
</event>
<event>
      5   9999  3.19816E-02  2.69104E+02 -1.00000E+00  1.07149E-01
      21    -1     0     0   502   501  0.000000000E+00  0.000000000E+00  9.161006253E+02  9.161006253E+02  0.000000000E+00  0.00000E+00  9.000E+00
      21    -1     0     0   512   502  0.000000000E+00  0.000000000E+00 -8.408748983E+02  8.408748983E+02  0.000000000E+00  0.00000E+00  9.000E+00
      25     1     1     2     0     0 -5.281345189E+02  1.912375824E+02  5.393190512E+02  7.886621089E+02  1.250000000E+02  0.00000E+00  9.000E+00
      25     1     1     2     0     0  5.255535174E+02  7.785398569E+01 -1.745537459E+02  5.730285795E+02  1.250000000E+02  0.00000E+00  9.000E+00
      21     1     1     2   512   501  2.581001501E+00 -2.690915681E+02 -2.895395783E+02  3.952848352E+02  3.814697266E-06  0.00000E+00  9.000E+00
#rwgt            1           1   3.2155577920413861E-002           9      124845           0
</event>
<event>
      5   9999  3.19816E-02  4.68449E+01 -1.00000E+00  1.40710E-01
      21    -1     0     0   502   501  0.000000000E+00  0.000000000E+00  8.537042339E+01  8.537042339E+01  0.000000000E+00  0.00000E+00  9.000E+00
      21    -1     0     0   501   511  0.000000000E+00  0.000000000E+00 -6.457866080E+02  6.457866080E+02  0.000000000E+00  0.00000E+00  9.000E+00
      25     1     1     2     0     0  1.451554859E+02 -1.385912789E+01 -2.357143663E+02  3.040533720E+02  1.250000000E+02  0.00000E+00  9.000E+00
      25     1     1     2     0     0 -1.740305921E+02  5.074644452E+01 -2.147035544E+02  3.075458745E+02  1.250000000E+02  0.00000E+00  9.000E+00
      21     1     1     2   502   511  2.887510619E+01 -3.688731663E+01 -1.099982639E+02  1.195577850E+02  1.348699152E-06  0.00000E+00  9.000E+00
#rwgt            1           1   2.6826966659933674E-002           9      124898           0
</event>
<event>
      5   9999  3.19816E-02  4.15329E+01 -1.00000E+00  1.43834E-01
      21    -1     0     0   502   501  0.000000000E+00  0.000000000E+00  2.038096429E+03  2.038096429E+03  0.000000000E+00  0.00000E+00  9.000E+00
      21    -1     0     0   512   502  0.000000000E+00  0.000000000E+00 -1.974240749E+02  1.974240749E+02  0.000000000E+00  0.00000E+00  9.000E+00
      25     1     1     2     0     0 -2.767053308E+02 -3.463053265E+02  2.792637531E+02  5.386153201E+02  1.250000000E+02  0.00000E+00  9.000E+00
      25     1     1     2     0     0  3.182324303E+02  3.469972625E+02  1.578526046E+03  1.651983189E+03  1.250000000E+02  0.00000E+00  9.000E+00
      21     1     1     2   512   501 -4.152709946E+01 -6.919359558E-01 -1.711744415E+01  4.492199527E+01  1.118282261E-06  0.00000E+00  9.000E+00
#rwgt            1           1   2.8747249095914681E-002           9      125010           0
</event>
<event>
      5   9999  3.19816E-02  5.00859E+01 -1.00000E+00  1.39033E-01
      21    -1     0     0   511   501  0.000000000E+00  0.000000000E+00  3.987273643E+03  3.987273643E+03  0.000000000E+00  0.00000E+00  9.000E+00
      21    -1     0     0   501   502  0.000000000E+00  0.000000000E+00 -6.993980765E+01  6.993980765E+01  0.000000000E+00  0.00000E+00  9.000E+00
      25     1     1     2     0     0  1.502078810E+02  1.225098917E+02  3.242983319E+02  3.979516166E+02  1.250000000E+02  0.00000E+00  9.000E+00
      25     1     1     2     0     0 -1.011170225E+02 -1.125758795E+02  2.595801737E+02  3.254302498E+02  1.250000000E+02  0.00000E+00  9.000E+00
      21     1     1     2   511   502 -4.909085849E+01 -9.934012237E+00  3.333455329E+03  3.333831584E+03  6.103515625E-05  0.00000E+00  9.000E+00
#rwgt            1           1   3.5037076794571076E-002           9      125158           0
</event>
<event>
      5   9999  3.19816E-02  1.41677E+02 -1.00000E+00  1.17385E-01
      21    -1     0     0   502   512  0.000000000E+00  0.000000000E+00  1.266234473E+03  1.266234473E+03  0.000000000E+00  0.00000E+00  9.000E+00
      21    -1     0     0   501   502  0.000000000E+00  0.000000000E+00 -3.193947176E+02  3.193947176E+02  0.000000000E+00  0.00000E+00  9.000E+00
      25     1     1     2     0     0  3.517578649E+02 -4.556999679E+02  5.263875518E+02  7.900031082E+02  1.250000000E+02  0.00000E+00  9.000E+00
      25     1     1     2     0     0 -3.421694099E+02  3.143478208E+02  1.745821517E+02  5.118577783E+02  1.250000000E+02  0.00000E+00  9.000E+00
      21     1     1     2   501   512 -9.588455035E+00  1.413521471E+02  2.458700524E+02  2.837683045E+02  2.697398305E-06  0.00000E+00  9.000E+00
#rwgt            1           1   2.8482956937068721E-002           9      125248           0
</event>
<event>
      5   9999  3.19816E-02  2.04215E+01 -1.00000E+00  1.65625E-01
      21    -1     0     0   511   501  0.000000000E+00  0.000000000E+00  4.039659516E+02  4.039659516E+02  0.000000000E+00  0.00000E+00  9.000E+00
      21    -1     0     0   501   502  0.000000000E+00  0.000000000E+00 -1.233054084E+02  1.233054084E+02  0.000000000E+00  0.00000E+00  9.000E+00
      25     1     1     2     0     0  4.325371154E+01 -1.830683201E+01  1.631549495E+02  2.108330174E+02  1.250000000E+02  0.00000E+00  9.000E+00
      25     1     1     2     0     0 -2.947143599E+01  3.337617109E+01 -5.433615354E+01  1.433874190E+02  1.250000000E+02  0.00000E+00  9.000E+00
      21     1     1     2   511   502 -1.378227555E+01 -1.506933908E+01  1.718417472E+02  1.730509237E+02  1.907348633E-06  0.00000E+00  9.000E+00
#rwgt            1           1   3.3473138967508816E-002           9      125329           0
</event>
<event>
      5   9999  3.19816E-02  2.63031E+01 -1.00000E+00  1.57116E-01
      21    -1     0     0   502   512  0.000000000E+00  0.000000000E+00  2.447789946E+01  2.447789946E+01  0.000000000E+00  0.00000E+00  9.000E+00
      21    -1     0     0   501   502  0.000000000E+00  0.000000000E+00 -9.987089202E+02  9.987089202E+02  0.000000000E+00  0.00000E+00  9.000E+00
      25     1     1     2     0     0  2.527105063E+01  4.451400054E+01 -3.664690465E+02  3.905696920E+02  1.250000000E+02  0.00000E+00  9.000E+00
      25     1     1     2     0     0 -5.481263568E+00 -6.184079104E+01 -5.683366981E+02  5.852229747E+02  1.250000000E+02  0.00000E+00  9.000E+00
      21     1     1     2   501   512 -1.978978706E+01  1.732679050E+01 -3.942527612E+01  4.739415299E+01  8.259061849E-07  0.00000E+00  9.000E+00
#rwgt            1           1   1.9204401059590256E-002           9      125491           0
</event>
<event>
      5   9999  3.19816E-02  6.02124E+01 -1.00000E+00  1.34621E-01
      21    -1     0     0   502   501  0.000000000E+00  0.000000000E+00  2.595510906E+03  2.595510906E+03  0.000000000E+00  0.00000E+00  9.000E+00
      21    -1     0     0   511   502  0.000000000E+00  0.000000000E+00 -3.404646253E+01  3.404646253E+01  0.000000000E+00  0.00000E+00  9.000E+00
      25     1     1     2     0     0 -2.151874748E+01  1.528822443E+02  3.529364371E+02  4.050002046E+02  1.250000000E+02  0.00000E+00  9.000E+00
      25     1     1     2     0     0 -5.941702603E+00 -9.929626830E+01  2.027381323E+03  2.033665430E+03  1.250000000E+02  0.00000E+00  9.000E+00
      21     1     1     2   511   501  2.746045009E+01 -5.358597600E+01  1.811466835E+02  1.908917339E+02  4.672030912E-06  0.00000E+00  9.000E+00
#rwgt            1           1   5.7666796586538303E-002           9      125596           0
</event>
<event>
      5   9999  3.19816E-02  7.58250E+01 -1.00000E+00  1.29486E-01
      21    -1     0     0   512   501  0.000000000E+00  0.000000000E+00  1.560542631E+02  1.560542631E+02  0.000000000E+00  0.00000E+00  9.000E+00
      21    -1     0     0   501   502  0.000000000E+00  0.000000000E+00 -7.630294606E+02  7.630294606E+02  0.000000000E+00  0.00000E+00  9.000E+00
      25     1     1     2     0     0 -9.543292402E+01 -9.718884838E+01 -5.795575984E+02  6.083297832E+02  1.250000000E+02  0.00000E+00  9.000E+00
      25     1     1     2     0     0  1.712549885E+02  9.652078985E+01 -1.128289981E+01  2.332312968E+02  1.250000000E+02  0.00000E+00  9.000E+00
      21     1     1     2   512   502 -7.582206449E+01  6.680585315E-01 -1.613469933E+01  7.752264371E+01  1.305872339E-06  0.00000E+00  9.000E+00
#rwgt            1           1   2.7383260142676842E-002           9      125678           0
</event>
<event>
      5   9999  3.19816E-02  2.31716E+02 -1.00000E+00  1.09369E-01
      21    -1     0     0   502   511  0.000000000E+00  0.000000000E+00  6.677150882E+02  6.677150882E+02  0.000000000E+00  0.00000E+00  9.000E+00
      21    -1     0     0   501   502  0.000000000E+00  0.000000000E+00 -1.056408247E+03  1.056408247E+03  0.000000000E+00  0.00000E+00  9.000E+00
      25     1     1     2     0     0  6.513620971E+02 -2.359116391E+02 -6.420173766E+02  9.527529558E+02  1.250000000E+02  0.00000E+00  9.000E+00
      25     1     1     2     0     0 -4.196913930E+02  2.313448366E+02  1.962498819E+02  5.327291196E+02  1.250000000E+02  0.00000E+00  9.000E+00
      21     1     1     2   501   511 -2.316707041E+02  4.566802507E+00  5.707433635E+01  2.386412594E+02  3.631483605E-06  0.00000E+00  9.000E+00
#rwgt            2          11   5.6548945476192977E-003           9      125786           0
</event>
<event>
      5   9999  3.19816E-02  6.55196E+02 -1.00000E+00  9.56274E-02
      21    -1     0     0   502   501  0.000000000E+00  0.000000000E+00  4.799893093E+02  4.799893093E+02  0.000000000E+00  0.00000E+00  9.000E+00
       1    -1     0     0   501     0  0.000000000E+00  0.000000000E+00 -1.895656935E+03  1.895656935E+03  0.000000000E+00  0.00000E+00  9.000E+00
      25     1     1     2     0     0  2.227957177E+02  5.201914791E+02 -5.760960573E+01  5.823924565E+02  1.250000000E+02  0.00000E+00  9.000E+00
      25     1     1     2     0     0  3.373297285E+02 -1.802776794E+02 -1.706567683E+02  4.370813654E+02  1.250000000E+02  0.00000E+00  9.000E+00
       1     1     1     2   502     0 -5.601254462E+02 -3.399137998E+02 -1.187401252E+03  1.356172422E+03  2.642899792E-05  0.00000E+00  9.000E+00
#rwgt            2          12   6.1709816042978356E-004           9      125821           0
</event>
<event>
      5   9999  3.19816E-02  8.29754E+00 -1.00000E+00  2.05618E-01
       2    -1     0     0   502     0  0.000000000E+00  0.000000000E+00  1.091647924E+03  1.091647924E+03  0.000000000E+00  0.00000E+00  9.000E+00
      21    -1     0     0   501   502  0.000000000E+00  0.000000000E+00 -8.833639714E+01  8.833639714E+01  0.000000000E+00  0.00000E+00  9.000E+00
      25     1     1     2     0     0 -1.606565513E+02 -5.080883932E+01  8.061940695E+01  2.247588806E+02  1.250000000E+02  0.00000E+00  9.000E+00
      25     1     1     2     0     0  1.689041623E+02  4.989992498E+01  7.041578743E+02  7.365337267E+02  1.250000000E+02  0.00000E+00  9.000E+00
       2     1     1     2   501     0 -8.247610955E+00  9.089143420E-01  2.185342459E+02  2.186917141E+02  3.814697266E-06  0.00000E+00  9.000E+00
#rwgt            1           1   2.9769239284495295E-002           9      125870           0
</event>
<event>
      5   9999  3.19816E-02  3.30994E+01 -1.00000E+00  1.50132E-01
      -2    -1     0     0     0   501  0.000000000E+00  0.000000000E+00  5.571008369E+02  5.571008369E+02  0.000000000E+00  0.00000E+00  9.000E+00
      21    -1     0     0   501   502  0.000000000E+00  0.000000000E+00 -8.254248641E+02  8.254248641E+02  0.000000000E+00  0.00000E+00  9.000E+00
      25     1     1     2     0     0 -6.548832232E+01 -1.769307522E+02 -1.084452359E+02  2.509553359E+02  1.250000000E+02  0.00000E+00  9.000E+00
      25     1     1     2     0     0  5.218752512E+01  1.466213900E+02 -6.297014083E+02  6.605832525E+02  1.250000000E+02  0.00000E+00  9.000E+00
      -2     1     1     2     0   502  1.330079720E+01  3.030936222E+01  4.698226171E+02  4.709871125E+02  0.000000000E+00  0.00000E+00  9.000E+00
#rwgt            1           1   3.6303985460272692E-002           9      126093           0
</event>
<event>
      5   9999  3.19816E-02  8.51313E+01 -1.00000E+00  1.27056E-01
      21    -1     0     0   502   501  0.000000000E+00  0.000000000E+00  2.951774189E+02  2.951774189E+02  0.000000000E+00  0.00000E+00  9.000E+00
      21    -1     0     0   511   502  0.000000000E+00  0.000000000E+00 -2.717253064E+02  2.717253064E+02  0.000000000E+00  0.00000E+00  9.000E+00
      25     1     1     2     0     0 -4.098446991E+01  2.067116016E+02  9.961007888E+01  2.644930638E+02  1.250000000E+02  0.00000E+00  9.000E+00
      25     1     1     2     0     0  8.341995681E+01 -1.329107617E+02 -2.273933986E+01  2.019065064E+02  1.250000000E+02  0.00000E+00  9.000E+00
      21     1     1     2   511   501 -4.243548690E+01 -7.380083991E+01 -5.341862653E+01  1.005031551E+02  2.023048729E-06  0.00000E+00  9.000E+00
#rwgt            1           1   3.0108372444734337E-002           9      126174           0
</event>
<event>
      5   9999  3.19816E-02  1.16544E+02 -1.00000E+00  1.20909E-01
      21    -1     0     0   502   501  0.000000000E+00  0.000000000E+00  5.628540861E+02  5.628540861E+02  0.000000000E+00  0.00000E+00  9.000E+00
      21    -1     0     0   512   502  0.000000000E+00  0.000000000E+00 -4.560009003E+02  4.560009003E+02  0.000000000E+00  0.00000E+00  9.000E+00
      25     1     1     2     0     0  4.402563852E+01 -1.243370759E+01 -3.016481507E+02  3.297111778E+02  1.250000000E+02  0.00000E+00  9.000E+00
      25     1     1     2     0     0 -1.005119596E+02 -8.950686150E+01  5.052955960E+02  5.376455818E+02  1.250000000E+02  0.00000E+00  9.000E+00
      21     1     1     2   512   501  5.648632104E+01  1.019405691E+02 -9.679425943E+01  1.514982269E+02  1.348699152E-06  0.00000E+00  9.000E+00
#rwgt            1           1   2.8662401061747639E-002           9      126232           0
</event>
<event>
      5   9999  3.19816E-02  5.58192E+01 -1.00000E+00  1.36401E-01
      21    -1     0     0   511   501  0.000000000E+00  0.000000000E+00  4.262160631E+02  4.262160631E+02  0.000000000E+00  0.00000E+00  9.000E+00
      21    -1     0     0   501   502  0.000000000E+00  0.000000000E+00 -1.187150177E+02  1.187150177E+02  0.000000000E+00  0.00000E+00  9.000E+00
      25     1     1     2     0     0 -1.391932119E+02 -5.733567845E+01  5.523344993E+01  2.033171519E+02  1.250000000E+02  0.00000E+00  9.000E+00
      25     1     1     2     0     0  1.163541775E+02  6.402780094E+00  1.619555311E+02  2.354440152E+02  1.250000000E+02  0.00000E+00  9.000E+00
      21     1     1     2   511   502  2.283903439E+01  5.093289835E+01  9.031206431E+01  1.061699138E+02  9.536743164E-07  0.00000E+00  9.000E+00
#rwgt            1           1   2.5446884110746883E-002           9      126310           0
</event>
<event>
      5   9999  3.19816E-02  9.70132E+00 -1.00000E+00  1.97292E-01
      21    -1     0     0   502   512  0.000000000E+00  0.000000000E+00  8.247561673E+02  8.247561673E+02  0.000000000E+00  0.00000E+00  9.000E+00
      21    -1     0     0   501   502  0.000000000E+00  0.000000000E+00 -4.970558309E+01  4.970558309E+01  0.000000000E+00  0.00000E+00  9.000E+00
      25     1     1     2     0     0  1.330923067E+02  7.381186195E+01  3.355452644E+02  3.890724579E+02  1.250000000E+02  0.00000E+00  9.000E+00
      25     1     1     2     0     0 -1.274242796E+02 -8.168517036E+01  4.191710565E+02  4.628593617E+02  1.250000000E+02  0.00000E+00  9.000E+00
      21     1     1     2   501   512 -5.668027084E+00  7.873308413E+00  2.033426334E+01  2.252993080E+01  4.129530925E-07  0.00000E+00  9.000E+00
#rwgt            1           1   3.0269590897243390E-002           9      126390           0
</event>
<event>
      5   9999  3.19816E-02  1.95282E+02 -1.00000E+00  1.12027E-01
      21    -1     0     0   511   501  0.000000000E+00  0.000000000E+00  2.487805276E+02  2.487805276E+02  0.000000000E+00  0.00000E+00  9.000E+00
      21    -1     0     0   501   502  0.000000000E+00  0.000000000E+00 -6.280298530E+02  6.280298530E+02  0.000000000E+00  0.00000E+00  9.000E+00
      25     1     1     2     0     0 -3.373286987E+01  3.001957869E+01 -3.877462339E+02  4.098917217E+02  1.250000000E+02  0.00000E+00  9.000E+00
      25     1     1     2     0     0  1.876277235E+02 -1.502340845E+02 -7.083208310E+00  2.710158937E+02  1.250000000E+02  0.00000E+00  9.000E+00
      21     1     1     2   511   502 -1.538948536E+02  1.202145058E+02  1.558011683E+01  1.959027652E+02  2.676241913E-06  0.00000E+00  9.000E+00
#rwgt            1           1   2.4292476372113403E-002           9      126625           0
</event>
<event>
      5   9999  3.19816E-02  2.75345E+01 -1.00000E+00  1.55673E-01
      21    -1     0     0   502   501  0.000000000E+00  0.000000000E+00  1.134254040E+03  1.134254040E+03  0.000000000E+00  0.00000E+00  9.000E+00
      21    -1     0     0   512   502  0.000000000E+00  0.000000000E+00 -1.433508408E+02  1.433508408E+02  0.000000000E+00  0.00000E+00  9.000E+00
      25     1     1     2     0     0 -1.338159190E+02  3.129996022E+02  3.122375068E+02  4.785318295E+02  1.250000000E+02  0.00000E+00  9.000E+00
      25     1     1     2     0     0  1.595589994E+02 -3.227690139E+02  6.688882057E+02  7.698541046E+02  1.250000000E+02  0.00000E+00  9.000E+00
      21     1     1     2   512   501 -2.574308040E+01  9.769411608E+00  9.777486596E+00  2.921894652E+01  1.192092896E-07  0.00000E+00  9.000E+00
#rwgt            1           1   2.4214545251127435E-002           9      126663           0
</event>
<event>
      5   9999  3.75458E-02  1.07525E+01 -1.00000E+00  1.92184E-01
      21    -1     0     0   502   511  0.000000000E+00  0.000000000E+00  2.590377365E+03  2.590377365E+03  0.000000000E+00  0.00000E+00  9.000E+00
      21    -1     0     0   501   502  0.000000000E+00  0.000000000E+00 -6.824896232E+01  6.824896232E+01  0.000000000E+00  0.00000E+00  9.000E+00
      25     1     1     2     0     0 -1.934598931E+02 -2.570169393E+02  5.439622848E+02  6.442083549E+02  1.250000000E+02  0.00000E+00  9.000E+00
      25     1     1     2     0     0  1.900178425E+02  2.672036765E+02  1.689662028E+03  1.725713578E+03  1.250000000E+02  0.00000E+00  9.000E+00
      21     1     1     2   501   511  3.442050568E+00 -1.018673720E+01  2.885040892E+02  2.887043935E+02  0.000000000E+00  0.00000E+00  9.000E+00
#rwgt            1           1  0.10575150023608933                9      126810           0
</event>
<event>
      5   9999  3.19816E-02  2.64895E+01 -1.00000E+00  1.56891E-01
      21    -1     0     0   502   501  0.000000000E+00  0.000000000E+00  7.690896267E+02  7.690896267E+02  0.000000000E+00  0.00000E+00  9.000E+00
      21    -1     0     0   501   512  0.000000000E+00  0.000000000E+00 -1.406160298E+02  1.406160298E+02  0.000000000E+00  0.00000E+00  9.000E+00
      25     1     1     2     0     0  1.003770047E+02  8.070307650E+01  3.654255474E+02  4.071232741E+02  1.250000000E+02  0.00000E+00  9.000E+00
      25     1     1     2     0     0 -1.018751914E+02 -1.071501351E+02  3.563738650E+02  4.055700158E+02  1.250000000E+02  0.00000E+00  9.000E+00
      21     1     1     2   502   512  1.498186697E+00  2.644705857E+01 -9.332581541E+01  9.701236670E+01  2.697398305E-06  0.00000E+00  9.000E+00
#rwgt            1           1   2.9159944191453537E-002           9      127071           0
</event>
<event>
      5   9999  3.19816E-02  1.36191E+02 -1.00000E+00  1.18080E-01
      21    -1     0     0   502   511  0.000000000E+00  0.000000000E+00  2.781577568E+02  2.781577568E+02  0.000000000E+00  0.00000E+00  9.000E+00
      21    -1     0     0   501   502  0.000000000E+00  0.000000000E+00 -1.066216775E+03  1.066216775E+03  0.000000000E+00  0.00000E+00  9.000E+00
      25     1     1     2     0     0 -3.227887164E+02 -5.847461943E+00 -7.302982096E+02  8.081999896E+02  1.250000000E+02  0.00000E+00  9.000E+00
      25     1     1     2     0     0  3.533611241E+02 -1.268678089E+02 -2.749985141E+01  3.966620309E+02  1.250000000E+02  0.00000E+00  9.000E+00
      21     1     1     2   501   511 -3.057240767E+01  1.327152708E+02 -3.026095701E+01  1.395125110E+02  2.477718555E-06  0.00000E+00  9.000E+00
#rwgt            1           1   2.8017410507325622E-002           9      127174           0
</event>
<event>
      5   9999  3.19816E-02  1.17486E+02 -1.00000E+00  1.20760E-01
      21    -1     0     0   502   512  0.000000000E+00  0.000000000E+00  5.468902863E+02  5.468902863E+02  0.000000000E+00  0.00000E+00  9.000E+00
      21    -1     0     0   501   502  0.000000000E+00  0.000000000E+00 -1.190012414E+02  1.190012414E+02  0.000000000E+00  0.00000E+00  9.000E+00
      25     1     1     2     0     0 -1.266332284E+02 -1.441568315E+02  2.363769604E+02  3.291143175E+02  1.250000000E+02  0.00000E+00  9.000E+00
      25     1     1     2     0     0  2.076850115E+01  9.320880717E+01  8.828675740E+01  1.803850435E+02  1.250000000E+02  0.00000E+00  9.000E+00
      21     1     1     2   501   512  1.058647272E+02  5.094802430E+01  1.032253272E+02  1.563921667E+02  1.907348633E-06  0.00000E+00  9.000E+00
#rwgt            1           1   2.8638841733250511E-002           9      127233           0
</event>
<event>
      5   9999  3.19816E-02  7.53568E+01 -1.00000E+00  1.29619E-01
       2    -1     0     0   502     0  0.000000000E+00  0.000000000E+00  1.900484441E+03  1.900484441E+03  0.000000000E+00  0.00000E+00  9.000E+00
      21    -1     0     0   501   502  0.000000000E+00  0.000000000E+00 -1.036262091E+03  1.036262091E+03  0.000000000E+00  0.00000E+00  9.000E+00
      25     1     1     2     0     0  1.890136415E+02 -6.791366657E+02 -2.950362009E+02  7.743540064E+02  1.250000000E+02  0.00000E+00  9.000E+00
      25     1     1     2     0     0 -1.201795270E+02  6.484689878E+02 -2.755483879E+02  7.256080629E+02  1.250000000E+02  0.00000E+00  9.000E+00
       2     1     1     2   501     0 -6.883411460E+01  3.066767787E+01  1.434806939E+03  1.436784463E+03  0.000000000E+00  0.00000E+00  9.000E+00
#rwgt            1           1   2.2441415142098416E-002           9      127317           0
</event>
<event>
      5   9999  3.23616E-02  3.09204E+01 -1.00000E+00  1.52134E-01
      21    -1     0     0   502   511  0.000000000E+00  0.000000000E+00  6.497940589E+02  6.497940589E+02  0.000000000E+00  0.00000E+00  9.000E+00
      21    -1     0     0   501   502  0.000000000E+00  0.000000000E+00 -1.501352851E+03  1.501352851E+03  0.000000000E+00  0.00000E+00  9.000E+00
      25     1     1     2     0     0 -6.940515837E+01 -8.944446260E+02 -4.469139392E+01  9.069016406E+02  1.250000000E+02  0.00000E+00  9.000E+00
      25     1     1     2     0     0  4.924734432E+01  8.709981709E+02 -8.260068524E+02  1.207880555E+03  1.250000000E+02  0.00000E+00  9.000E+00
      21     1     1     2   501   511  2.015781404E+01  2.344645511E+01  1.913945439E+01  3.636471420E+01  2.384185791E-07  0.00000E+00  9.000E+00
#rwgt            1           1   4.0404397030394064E-002           9      127456           0
</event>
<event>
      5   9999  3.19816E-02  7.73452E+00 -1.00000E+00  2.09605E-01
      21    -1     0     0   512   501  0.000000000E+00  0.000000000E+00  5.355152066E+01  5.355152066E+01  0.000000000E+00  0.00000E+00  9.000E+00
      21    -1     0     0   501   502  0.000000000E+00  0.000000000E+00 -1.213685748E+03  1.213685748E+03  0.000000000E+00  0.00000E+00  9.000E+00
      25     1     1     2     0     0 -2.522295614E+01  1.136484625E+02 -8.889730626E+02  9.052349289E+02  1.250000000E+02  0.00000E+00  9.000E+00
      25     1     1     2     0     0  1.985048571E+01 -1.080843490E+02 -2.940260239E+02  3.378647229E+02  1.250000000E+02  0.00000E+00  9.000E+00
      21     1     1     2   512   502  5.372470432E+00 -5.564113483E+00  2.286485876E+01  2.413761719E+01  1.118282261E-06  0.00000E+00  9.000E+00
#rwgt            1           1   2.6270952555723984E-002           9      127703           0
</event>
<event>
      5   9999  3.19816E-02  4.69853E+01 -1.00000E+00  1.40634E-01
      21    -1     0     0   502   501  0.000000000E+00  0.000000000E+00  1.171298033E+03  1.171298033E+03  0.000000000E+00  0.00000E+00  9.000E+00
      21    -1     0     0   501   511  0.000000000E+00  0.000000000E+00 -2.267043521E+02  2.267043521E+02  0.000000000E+00  0.00000E+00  9.000E+00
      25     1     1     2     0     0  3.480708367E+02  2.206480113E+02  1.323893162E+02  4.505449848E+02  1.250000000E+02  0.00000E+00  9.000E+00
      25     1     1     2     0     0 -3.614728998E+02 -1.756146979E+02  7.908144181E+02  8.958323633E+02  1.250000000E+02  0.00000E+00  9.000E+00
      21     1     1     2   502   511  1.340206307E+01 -4.503331340E+01  2.138994642E+01  5.162503674E+01  7.152557373E-07  0.00000E+00  9.000E+00
#rwgt            1           1   3.2067933492805782E-002           9      127977           0
</event>
<event>
      5   9999  3.19816E-02  7.37402E+00 -1.00000E+00  2.12407E-01
      21    -1     0     0   502   512  0.000000000E+00  0.000000000E+00  1.371027896E+03  1.371027896E+03  0.000000000E+00  0.00000E+00  9.000E+00
      21    -1     0     0   501   502  0.000000000E+00  0.000000000E+00 -2.520434787E+02  2.520434787E+02  0.000000000E+00  0.00000E+00  9.000E+00
      25     1     1     2     0     0  1.874905765E+02  8.356511308E+01  5.077705372E+02  5.617755449E+02  1.250000000E+02  0.00000E+00  9.000E+00
      25     1     1     2     0     0 -1.948319474E+02 -8.287195456E+01 -1.578610891E+02  2.921855096E+02  1.250000000E+02  0.00000E+00  9.000E+00
      21     1     1     2   501   512  7.341370893E+00 -6.931585164E-01  7.690749696E+02  7.691103205E+02  0.000000000E+00  0.00000E+00  9.000E+00
#rwgt            1           1   2.8993938606662443E-002           9      128080           0
</event>
<event>
      5   9999  3.19816E-02  2.63486E+02 -1.00000E+00  1.07456E-01
      21    -1     0     0   511   501  0.000000000E+00  0.000000000E+00  3.358545036E+02  3.358545036E+02  0.000000000E+00  0.00000E+00  9.000E+00
      21    -1     0     0   501   502  0.000000000E+00  0.000000000E+00 -5.791154681E+02  5.791154681E+02  0.000000000E+00  0.00000E+00  9.000E+00
      25     1     1     2     0     0 -4.498807424E+01  2.478992383E+02  2.427995891E+01  2.822985575E+02  1.250000000E+02  0.00000E+00  9.000E+00
      25     1     1     2     0     0 -2.022684214E+02 -1.568535411E+02 -2.308348645E+02  3.666405356E+02  1.250000000E+02  0.00000E+00  9.000E+00
      21     1     1     2   511   502  2.472564957E+02 -9.104569716E+01 -3.670605887E+01  2.660308786E+02  5.581235843E-06  0.00000E+00  9.000E+00
#rwgt            1           1   2.7694729045241197E-002           9      128351           0
</event>
<event>
      5   9999  3.19816E-02  2.62910E+02 -1.00000E+00  1.07488E-01
      21    -1     0     0   502   501  0.000000000E+00  0.000000000E+00  3.363887532E+02  3.363887532E+02  0.000000000E+00  0.00000E+00  9.000E+00
      21    -1     0     0   501   512  0.000000000E+00  0.000000000E+00 -1.342650266E+03  1.342650266E+03  0.000000000E+00  0.00000E+00  9.000E+00
      25     1     1     2     0     0  2.987064774E+02 -4.692752447E+02 -8.430806537E+01  5.763485619E+02  1.250000000E+02  0.00000E+00  9.000E+00
      25     1     1     2     0     0 -1.886535217E+02  2.305077574E+02 -6.416993486E+02  7.184198156E+02  1.250000000E+02  0.00000E+00  9.000E+00
      21     1     1     2   502   512 -1.100529557E+02  2.387674873E+02 -2.802540987E+02  3.842706415E+02  5.394796609E-06  0.00000E+00  9.000E+00
#rwgt            1           1   2.3202842690155667E-002           9      128404           0
</event>
<event>
      5   9999  3.19816E-02  4.61825E+01 -1.00000E+00  1.41073E-01
      -2    -1     0     0     0   501  0.000000000E+00  0.000000000E+00  5.052650535E+02  5.052650535E+02  0.000000000E+00  0.00000E+00  9.000E+00
      21    -1     0     0   501   502  0.000000000E+00  0.000000000E+00 -2.589091126E+02  2.589091126E+02  0.000000000E+00  0.00000E+00  9.000E+00
      25     1     1     2     0     0  1.369833097E+01  1.721187106E+02 -1.124453380E+02  2.410009312E+02  1.250000000E+02  0.00000E+00  9.000E+00
      25     1     1     2     0     0 -3.585211939E+01 -1.315966899E+02  2.558168587E+01  1.867685357E+02  1.250000000E+02  0.00000E+00  9.000E+00
      -2     1     1     2     0   502  2.215378842E+01 -4.052202069E+01  3.332195930E+02  3.364046992E+02  3.814697266E-06  0.00000E+00  9.000E+00
#rwgt            1           1   2.3117629000635690E-002           9      128456           0
</event>
<event>
      5   9999  3.19816E-02  2.84560E+01 -1.00000E+00  1.54651E-01
      21    -1     0     0   502   511  0.000000000E+00  0.000000000E+00  3.033167230E+02  3.033167230E+02  0.000000000E+00  0.00000E+00  9.000E+00
      21    -1     0     0   501   502  0.000000000E+00  0.000000000E+00 -8.422155996E+02  8.422155996E+02  0.000000000E+00  0.00000E+00  9.000E+00
      25     1     1     2     0     0 -1.335962088E+02 -4.382742987E+01  1.186253319E+02  2.224089926E+02  1.250000000E+02  0.00000E+00  9.000E+00
      25     1     1     2     0     0  1.088835394E+02  5.793506546E+01 -7.789033538E+02  7.984532119E+02  1.250000000E+02  0.00000E+00  9.000E+00
      21     1     1     2   501   511  2.471266936E+01 -1.410763559E+01  1.213791454E+02  1.246701181E+02  2.336015456E-06  0.00000E+00  9.000E+00
#rwgt            1           1   2.8010386951967121E-002           9      128568           0
</event>
<event>
      5   9999  3.19816E-02  4.25775E+01 -1.00000E+00  1.43178E-01
      21    -1     0     0   512   501  0.000000000E+00  0.000000000E+00  1.045033159E+03  1.045033159E+03  0.000000000E+00  0.00000E+00  9.000E+00
      21    -1     0     0   501   502  0.000000000E+00  0.000000000E+00 -1.707368465E+03  1.707368465E+03  0.000000000E+00  0.00000E+00  9.000E+00
      25     1     1     2     0     0 -6.304600043E+02  6.284212230E+02 -9.170609408E+02  1.284141277E+03  1.250000000E+02  0.00000E+00  9.000E+00
      25     1     1     2     0     0  6.578608365E+02 -6.610101826E+02 -2.405264530E+02  9.711814024E+02  1.250000000E+02  0.00000E+00  9.000E+00
      21     1     1     2   512   502 -2.740083219E+01  3.258895955E+01  4.952520876E+02  4.970789436E+02  5.394796609E-06  0.00000E+00  9.000E+00
#rwgt            1           1   4.5327581296567221E-002           9      128721           0
</event>
<event>
      5   9999  3.19816E-02  5.87847E+01 -1.00000E+00  1.35180E-01
      21    -1     0     0   502   501  0.000000000E+00  0.000000000E+00  6.022955927E+02  6.022955927E+02  0.000000000E+00  0.00000E+00  9.000E+00
      21    -1     0     0   511   502  0.000000000E+00  0.000000000E+00 -3.884120503E+02  3.884120503E+02  0.000000000E+00  0.00000E+00  9.000E+00
      25     1     1     2     0     0  2.272269401E+02  3.459700970E+02  5.734981417E+01  4.361667015E+02  1.250000000E+02  0.00000E+00  9.000E+00
      25     1     1     2     0     0 -1.718886077E+02 -3.658021976E+02  2.124498452E+02  4.734098414E+02  1.250000000E+02  0.00000E+00  9.000E+00
      21     1     1     2   511   501 -5.533833239E+01  1.983210064E+01 -5.591611701E+01  8.113110001E+01  9.536743164E-07  0.00000E+00  9.000E+00
#rwgt            1           1   2.7055146742440573E-002           9      128924           0
</event>
<event>
      5   9999  3.19816E-02  7.53584E+01 -1.00000E+00  1.29619E-01
      21    -1     0     0   502   501  0.000000000E+00  0.000000000E+00  4.067240897E+02  4.067240897E+02  0.000000000E+00  0.00000E+00  9.000E+00
       3    -1     0     0   501     0  0.000000000E+00  0.000000000E+00 -6.765071721E+02  6.765071721E+02  0.000000000E+00  0.00000E+00  9.000E+00
      25     1     1     2     0     0 -1.406385790E+01 -3.277600598E+02  5.136145259E+01  3.548062115E+02  1.250000000E+02  0.00000E+00  9.000E+00
      25     1     1     2     0     0  4.452941661E+01  3.966856168E+02 -2.084016955E+01  4.188098139E+02  1.250000000E+02  0.00000E+00  9.000E+00
       3     1     1     2   502     0 -3.046555872E+01 -6.892555701E+01 -3.003043655E+02  3.096152364E+02  0.000000000E+00  0.00000E+00  9.000E+00
#rwgt            1           1   2.7872687162775474E-002           9      129014           0
</event>
<event>
      5   9999  4.05878E-02  3.27985E+01 -1.00000E+00  1.50397E-01
      21    -1     0     0   511   501  0.000000000E+00  0.000000000E+00  2.278375169E+03  2.278375169E+03  0.000000000E+00  0.00000E+00  9.000E+00
      21    -1     0     0   501   502  0.000000000E+00  0.000000000E+00 -3.319830910E+01  3.319830910E+01  0.000000000E+00  0.00000E+00  9.000E+00
      25     1     1     2     0     0  1.852771700E+01 -1.823224227E+02  1.291439853E+03  1.310353630E+03  1.250000000E+02  0.00000E+00  9.000E+00
      25     1     1     2     0     0  8.299302211E+00  2.011917937E+02  5.873196271E+02  6.333374777E+02  1.250000000E+02  0.00000E+00  9.000E+00
      21     1     1     2   511   502 -2.682701921E+01 -1.886937100E+01  3.664173796E+02  3.678823701E+02  0.000000000E+00  0.00000E+00  9.000E+00
#rwgt            1           1  0.11261427073498553                9      129100           0
</event>
<event>
      5   9999  3.19816E-02  3.55324E+01 -1.00000E+00  1.48104E-01
      21    -1     0     0   502   501  0.000000000E+00  0.000000000E+00  1.726424018E+03  1.726424018E+03  0.000000000E+00  0.00000E+00  9.000E+00
      21    -1     0     0   512   502  0.000000000E+00  0.000000000E+00 -2.536556816E+02  2.536556816E+02  0.000000000E+00  0.00000E+00  9.000E+00
      25     1     1     2     0     0  3.425751012E+02 -5.234583177E+02  8.361479225E+02  1.051729366E+03  1.250000000E+02  0.00000E+00  9.000E+00
      25     1     1     2     0     0 -3.133728620E+02  5.437014303E+02  6.088432275E+02  8.832490429E+02  1.250000000E+02  0.00000E+00  9.000E+00
      21     1     1     2   512   501 -2.920223923E+01 -2.024311262E+01  2.777718678E+01  4.510129144E+01  3.371747881E-07  0.00000E+00  9.000E+00
#rwgt            1           1   2.5268259126583526E-002           9      129306           0
</event>
<event>
      5   9999  3.19816E-02  3.55550E+02 -1.00000E+00  1.03249E-01
      21    -1     0     0   502   511  0.000000000E+00  0.000000000E+00  6.428193119E+02  6.428193119E+02  0.000000000E+00  0.00000E+00  9.000E+00
      21    -1     0     0   501   502  0.000000000E+00  0.000000000E+00 -1.202440302E+03  1.202440302E+03  0.000000000E+00  0.00000E+00  9.000E+00
      25     1     1     2     0     0  5.558776819E+02  1.603254310E+02 -5.760248805E+02  8.259139810E+02  1.250000000E+02  0.00000E+00  9.000E+00
      25     1     1     2     0     0 -2.567291038E+02  3.183603842E+01 -3.867586876E+02  4.817993862E+02  1.250000000E+02  0.00000E+00  9.000E+00
      21     1     1     2   501   511 -2.991485782E+02 -1.921614694E+02  4.031625785E+02  5.375462462E+02  9.344061824E-06  0.00000E+00  9.000E+00
#rwgt            2          11   4.3966840712863246E-003           9      129466           0
</event>
<event>
      5   9999  3.19816E-02  3.56834E+01 -1.00000E+00  1.47984E-01
      21    -1     0     0   502   501  0.000000000E+00  0.000000000E+00  8.823728783E+02  8.823728783E+02  0.000000000E+00  0.00000E+00  9.000E+00
       2    -1     0     0   501     0  0.000000000E+00  0.000000000E+00 -7.403402911E+02  7.403402911E+02  0.000000000E+00  0.00000E+00  9.000E+00
      25     1     1     2     0     0 -1.333686697E+00  7.283749795E+01  8.622371021E+01  1.684238939E+02  1.250000000E+02  0.00000E+00  9.000E+00
      25     1     1     2     0     0 -4.913650861E-01 -1.084742006E+02  7.455127265E+02  7.636629617E+02  1.250000000E+02  0.00000E+00  9.000E+00
       2     1     1     2   502     0  1.825051783E+00  3.563670262E+01 -6.897038495E+02  6.906263139E+02  7.629394531E-06  0.00000E+00  9.000E+00
#rwgt            2          13   6.2040546069874625E-003           9      129546           0
</event>
<event>
      5   9999  3.19816E-02  7.46771E+01 -1.00000E+00  1.29814E-01
      21    -1     0     0   511   501  0.000000000E+00  0.000000000E+00  8.080798015E+02  8.080798015E+02  0.000000000E+00  0.00000E+00  9.000E+00
      21    -1     0     0   501   502  0.000000000E+00  0.000000000E+00 -4.204872782E+02  4.204872782E+02  0.000000000E+00  0.00000E+00  9.000E+00
      25     1     1     2     0     0  8.469840720E+01  4.898757140E+02  3.205391985E+02  6.045844962E+02  1.250000000E+02  0.00000E+00  9.000E+00
      25     1     1     2     0     0 -9.517200820E+01 -4.159367610E+02 -8.675512189E+01  4.530039199E+02  1.250000000E+02  0.00000E+00  9.000E+00
      21     1     1     2   511   502  1.047360100E+01 -7.393895294E+01  1.538084467E+02  1.709786635E+02  1.907348633E-06  0.00000E+00  9.000E+00
#rwgt            1           1   2.8563810474469764E-002           9      129565           0
</event>
<event>
      5   9999  3.19816E-02  2.77009E+01 -1.00000E+00  1.55484E-01
      21    -1     0     0   512   501  0.000000000E+00  0.000000000E+00  8.075954849E+02  8.075954849E+02  0.000000000E+00  0.00000E+00  9.000E+00
      21    -1     0     0   501   502  0.000000000E+00  0.000000000E+00 -2.708630993E+02  2.708630993E+02  0.000000000E+00  0.00000E+00  9.000E+00
      25     1     1     2     0     0 -4.588004976E+01  8.647737668E+01 -2.324526862E+02  2.815005630E+02  1.250000000E+02  0.00000E+00  9.000E+00
      25     1     1     2     0     0  1.881197667E+01 -8.059002433E+01  7.457655924E+02  7.606838774E+02  1.250000000E+02  0.00000E+00  9.000E+00
      21     1     1     2   512   502  2.706807309E+01 -5.887352349E+00  2.341947937E+01  3.627414386E+01  3.371747881E-07  0.00000E+00  9.000E+00
#rwgt            1           1   3.0695073432508737E-002           9      129675           0
</event>
<event>
      5   9999  3.19816E-02  1.54844E+01 -1.00000E+00  1.76093E-01
      21    -1     0     0   502   501  0.000000000E+00  0.000000000E+00  4.354613414E+02  4.354613414E+02  0.000000000E+00  0.00000E+00  9.000E+00
      21    -1     0     0   501   511  0.000000000E+00  0.000000000E+00 -9.196159460E+02  9.196159460E+02  0.000000000E+00  0.00000E+00  9.000E+00
      25     1     1     2     0     0  2.441047122E+02 -6.699275658E+01  2.771819235E+02  3.956386718E+02  1.250000000E+02  0.00000E+00  9.000E+00
      25     1     1     2     0     0 -2.487429846E+02  5.221931781E+01 -1.037103754E+02  3.016301900E+02  1.250000000E+02  0.00000E+00  9.000E+00
      21     1     1     2   502   511  4.638272418E+00  1.477343876E+01 -6.576261527E+02  6.578084256E+02  1.078959322E-05  0.00000E+00  9.000E+00
#rwgt            1           1   2.6465702351062319E-002           9      129851           0
</event>
<event>
      5   9999  3.19816E-02  4.51308E+01 -1.00000E+00  1.41663E-01
      21    -1     0     0   502   512  0.000000000E+00  0.000000000E+00  3.685710292E+02  3.685710292E+02  0.000000000E+00  0.00000E+00  9.000E+00
      21    -1     0     0   501   502  0.000000000E+00  0.000000000E+00 -2.017490726E+02  2.017490726E+02  0.000000000E+00  0.00000E+00  9.000E+00
      25     1     1     2     0     0 -1.249569977E+02 -1.868346787E+02  1.407000637E+02  2.931602913E+02  1.250000000E+02  0.00000E+00  9.000E+00
      25     1     1     2     0     0  1.097663852E+02  1.443371985E+02 -8.301609448E+00  2.203991899E+02  1.250000000E+02  0.00000E+00  9.000E+00
      21     1     1     2   501   512  1.519061248E+01  4.249748026E+01  3.442350242E+01  5.676062064E+01  4.768371582E-07  0.00000E+00  9.000E+00
#rwgt            1           1   2.3366647190354490E-002           9      130025           0
</event>
<event>
      5   9999  3.19816E-02  3.62133E+01 -1.00000E+00  1.47571E-01
      21    -1     0     0   511   501  0.000000000E+00  0.000000000E+00  4.316346486E+02  4.316346486E+02  0.000000000E+00  0.00000E+00  9.000E+00
      21    -1     0     0   501   502  0.000000000E+00  0.000000000E+00 -5.693734264E+02  5.693734264E+02  0.000000000E+00  0.00000E+00  9.000E+00
      25     1     1     2     0     0 -1.286534766E+02 -2.261633006E+02 -3.400982637E+02  4.460867455E+02  1.250000000E+02  0.00000E+00  9.000E+00
      25     1     1     2     0     0  1.138871071E+02  1.930973914E+02 -8.108124549E+01  2.691766039E+02  1.250000000E+02  0.00000E+00  9.000E+00
      21     1     1     2   511   502  1.476636951E+01  3.306590919E+01  2.834407313E+02  2.857447256E+02  5.394796609E-06  0.00000E+00  9.000E+00
#rwgt            1           1   2.7960595818242128E-002           9      130133           0
</event>
<event>
      5   9999  3.19816E-02  1.13423E+02 -1.00000E+00  1.21417E-01
      21    -1     0     0   512   501  0.000000000E+00  0.000000000E+00  1.239000060E+03  1.239000060E+03  0.000000000E+00  0.00000E+00  9.000E+00
      21    -1     0     0   501   502  0.000000000E+00  0.000000000E+00 -9.215667942E+02  9.215667942E+02  0.000000000E+00  0.00000E+00  9.000E+00
      25     1     1     2     0     0  4.023831002E+02 -4.056360170E+02 -2.322477276E+02  6.292986132E+02  1.250000000E+02  0.00000E+00  9.000E+00
      25     1     1     2     0     0 -2.967240459E+02  3.643930562E+02 -3.659857885E+02  6.086033652E+02  1.250000000E+02  0.00000E+00  9.000E+00
      21     1     1     2   512   502 -1.056590543E+02  4.124296080E+01  9.156667815E+02  9.226648754E+02  1.078959322E-05  0.00000E+00  9.000E+00
#rwgt            1           1   3.0641728207305714E-002           9      130291           0
</event>
<event>
      5   9999  3.19816E-02  4.26655E+02 -1.00000E+00  1.00849E-01
      -3    -1     0     0     0   501  0.000000000E+00  0.000000000E+00  8.111426438E+02  8.111426438E+02  0.000000000E+00  0.00000E+00  9.000E+00
      21    -1     0     0   501   502  0.000000000E+00  0.000000000E+00 -3.504337266E+02  3.504337266E+02  0.000000000E+00  0.00000E+00  9.000E+00
      25     1     1     2     0     0 -4.732062517E+01  2.060500938E+02 -1.040993518E+02  2.667537399E+02  1.250000000E+02  0.00000E+00  9.000E+00
      25     1     1     2     0     0 -7.871248829E+01  2.015652873E+02  3.088182494E+02  3.972630514E+02  1.250000000E+02  0.00000E+00  9.000E+00
      -3     1     1     2     0   502  1.260331135E+02 -4.076153810E+02  2.559900196E+02  4.975595790E+02  9.344061824E-06  0.00000E+00  9.000E+00
#rwgt            2           3   4.8993256129902582E-005           9      130447           0
</event>
<event>
      5   9999  3.19816E-02  1.47502E+02 -1.00000E+00  1.16683E-01
      21    -1     0     0   502   501  0.000000000E+00  0.000000000E+00  4.082285531E+02  4.082285531E+02  0.000000000E+00  0.00000E+00  9.000E+00
      21    -1     0     0   511   502  0.000000000E+00  0.000000000E+00 -2.387278580E+02  2.387278580E+02  0.000000000E+00  0.00000E+00  9.000E+00
      25     1     1     2     0     0  1.763020087E+02  9.764095362E+00  5.006235324E+01  2.220562430E+02  1.250000000E+02  0.00000E+00  9.000E+00
      25     1     1     2     0     0 -1.529894700E+02 -1.554119425E+02  1.172926602E+02  2.773828004E+02  1.250000000E+02  0.00000E+00  9.000E+00
      21     1     1     2   511   501 -2.331253871E+01  1.456478471E+02  2.145681588E+00  1.475173677E+02  2.799991234E-06  0.00000E+00  9.000E+00
#rwgt            1           1   2.5764091943781292E-002           9      130511           0
</event>
<event>
      5   9999  3.19816E-02  9.93342E+01 -1.00000E+00  1.23959E-01
      21    -1     0     0   502   501  0.000000000E+00  0.000000000E+00  8.189280915E+02  8.189280915E+02  0.000000000E+00  0.00000E+00  9.000E+00
      21    -1     0     0   512   502  0.000000000E+00  0.000000000E+00 -1.998244404E+03  1.998244404E+03  0.000000000E+00  0.00000E+00  9.000E+00
      25     1     1     2     0     0  6.390227173E+02 -2.340728575E+02  5.451956674E+02  8.809105809E+02  1.250000000E+02  0.00000E+00  9.000E+00
      25     1     1     2     0     0 -7.218581548E+02  1.792496560E+02 -1.325315133E+03  1.524891746E+03  1.250000000E+02  0.00000E+00  9.000E+00
      21     1     1     2   512   501  8.283543754E+01  5.482320151E+01 -3.991968464E+02  4.113701683E+02  5.394796609E-06  0.00000E+00  9.000E+00
#rwgt            1           1   3.3013677631338043E-002           9      130549           0
</event>
<event>
      5   9999  3.19816E-02  1.02272E+02 -1.00000E+00  1.23391E-01
      21    -1     0     0   502   501  0.000000000E+00  0.000000000E+00  9.424858709E+02  9.424858709E+02  0.000000000E+00  0.00000E+00  9.000E+00
      21    -1     0     0   501   511  0.000000000E+00  0.000000000E+00 -2.174738627E+03  2.174738627E+03  0.000000000E+00  0.00000E+00  9.000E+00
      25     1     1     2     0     0  2.776955244E+02 -5.346160543E+02  3.033030406E+02  6.859641858E+02  1.250000000E+02  0.00000E+00  9.000E+00
      25     1     1     2     0     0 -3.796784341E+02  5.422944116E+02  1.921258643E+02  7.005542733E+02  1.250000000E+02  0.00000E+00  9.000E+00
      21     1     1     2   502   511  1.019829096E+02 -7.678357356E+00 -1.727681661E+03  1.730706039E+03  0.000000000E+00  0.00000E+00  9.000E+00
#rwgt            1           1   3.0032817701506141E-002           9      130684           0
</event>
<event>
      5   9999  3.19816E-02  4.69198E+01 -1.00000E+00  1.40670E-01
       2    -1     0     0   502     0  0.000000000E+00  0.000000000E+00  3.641489498E+02  3.641489498E+02  0.000000000E+00  0.00000E+00  9.000E+00
      21    -1     0     0   501   502  0.000000000E+00  0.000000000E+00 -4.320351608E+02  4.320351608E+02  0.000000000E+00  0.00000E+00  9.000E+00
      25     1     1     2     0     0  4.816444212E+01 -4.726864101E+01  1.352049534E+01  1.426952757E+02  1.250000000E+02  0.00000E+00  9.000E+00
      25     1     1     2     0     0 -1.905029720E+01  8.406318251E+01 -3.496383948E+02  3.811843906E+02  1.250000000E+02  0.00000E+00  9.000E+00
       2     1     1     2   501     0 -2.911414492E+01 -3.679454150E+01  2.682316884E+02  2.723044443E+02  0.000000000E+00  0.00000E+00  9.000E+00
#rwgt            1           1   2.6635942070224787E-002           9      130819           0
</event>
<event>
      5   9999  3.19816E-02  1.03365E+02 -1.00000E+00  1.23185E-01
      21    -1     0     0   502   511  0.000000000E+00  0.000000000E+00  2.079268906E+03  2.079268906E+03  0.000000000E+00  0.00000E+00  9.000E+00
      21    -1     0     0   501   502  0.000000000E+00  0.000000000E+00 -2.848737775E+01  2.848737775E+01  0.000000000E+00  0.00000E+00  9.000E+00
      25     1     1     2     0     0 -7.461843352E+01  6.433261342E+01  6.489377052E+02  6.681704431E+02  1.250000000E+02  0.00000E+00  9.000E+00
      25     1     1     2     0     0  1.701018355E+02 -2.474344402E+01  7.474998813E+02  7.771280107E+02  1.250000000E+02  0.00000E+00  9.000E+00
      21     1     1     2   501   511 -9.548340200E+01 -3.958916940E+01  6.543439415E+02  6.624578297E+02  7.629394531E-06  0.00000E+00  9.000E+00
#rwgt            1           1   3.8830954160899343E-002           9      130881           0
</event>
<event>
      5   9999  3.19816E-02  3.19741E+01 -1.00000E+00  1.51142E-01
      21    -1     0     0   502   501  0.000000000E+00  0.000000000E+00  1.851712417E+03  1.851712417E+03  0.000000000E+00  0.00000E+00  9.000E+00
      21    -1     0     0   501   512  0.000000000E+00  0.000000000E+00 -3.962499166E+02  3.962499166E+02  0.000000000E+00  0.00000E+00  9.000E+00
      25     1     1     2     0     0  7.133502281E+01 -7.892282068E+02  1.087697444E+03  1.351547475E+03  1.250000000E+02  0.00000E+00  9.000E+00
      25     1     1     2     0     0 -7.028158605E+01  7.572714768E+02  3.833972170E+02  8.608240336E+02  1.250000000E+02  0.00000E+00  9.000E+00
      21     1     1     2   502   512 -1.053436768E+00  3.195672998E+01 -1.563216102E+01  3.559082435E+01  4.129530925E-07  0.00000E+00  9.000E+00
#rwgt            1           1   1.5977589763920334E-002           9      130937           0
</event>
<event>
      5   9999  3.19816E-02  6.19962E+01 -1.00000E+00  1.33948E-01
       3    -1     0     0   502     0  0.000000000E+00  0.000000000E+00  1.212500709E+03  1.212500709E+03  0.000000000E+00  0.00000E+00  9.000E+00
      21    -1     0     0   501   502  0.000000000E+00  0.000000000E+00 -1.390941341E+02  1.390941341E+02  0.000000000E+00  0.00000E+00  9.000E+00
      25     1     1     2     0     0  3.123438300E+00 -1.058423033E+02  5.463619169E+01  1.726918136E+02  1.250000000E+02  0.00000E+00  9.000E+00
      25     1     1     2     0     0  5.294751638E+01  7.939273106E+01 -9.837878037E-01  1.572660582E+02  1.250000000E+02  0.00000E+00  9.000E+00
       3     1     1     2   501     0 -5.607095468E+01  2.644957222E+01  1.019754171E+03  1.021636972E+03  1.078959322E-05  0.00000E+00  9.000E+00
#rwgt            1           1   2.7359030002401807E-002           9      131168           0
</event>
<event>
      5   9999  3.91297E-02  5.22755E+01 -1.00000E+00  1.37982E-01
      21    -1     0     0   502   501  0.000000000E+00  0.000000000E+00  1.044573463E+03  1.044573463E+03  0.000000000E+00  0.00000E+00  9.000E+00
      21    -1     0     0   501   511  0.000000000E+00  0.000000000E+00 -4.561806644E+02  4.561806644E+02  0.000000000E+00  0.00000E+00  9.000E+00
      25     1     1     2     0     0  2.883716361E+01  2.134548845E+02  9.398606710E+02  9.722950430E+02  1.250000000E+02  0.00000E+00  9.000E+00
      25     1     1     2     0     0 -7.823603286E+01 -2.305567704E+02 -1.338689920E+02  3.046690142E+02  1.250000000E+02  0.00000E+00  9.000E+00
      21     1     1     2   502   511  4.939886925E+01  1.710188588E+01 -2.175988804E+02  2.237900703E+02  5.394796609E-06  0.00000E+00  9.000E+00
#rwgt            1           1   3.9387129601048516E-002           9      131218           0
</event>
<event>
      5   9999  3.19816E-02  4.15919E+01 -1.00000E+00  1.43797E-01
      21    -1     0     0   502   501  0.000000000E+00  0.000000000E+00  9.136172980E+02  9.136172980E+02  0.000000000E+00  0.00000E+00  9.000E+00
      21    -1     0     0   501   512  0.000000000E+00  0.000000000E+00 -3.471401041E+02  3.471401041E+02  0.000000000E+00  0.00000E+00  9.000E+00
      25     1     1     2     0     0  3.685110939E+02 -3.514737380E+02  2.401362716E+02  5.767361995E+02  1.250000000E+02  0.00000E+00  9.000E+00
      25     1     1     2     0     0 -4.094997854E+02  3.585316664E+02  3.138461083E+02  6.405930141E+02  1.250000000E+02  0.00000E+00  9.000E+00
      21     1     1     2   502   512  4.098869141E+01 -7.057928421E+00  1.249481400E+01  4.342818848E+01  2.920019320E-07  0.00000E+00  9.000E+00
#rwgt            1           1   2.8894229848676293E-002           9      131354           0
</event>
<event>
      5   9999  3.19816E-02  3.70594E+01 -1.00000E+00  1.46927E-01
      21    -1     0     0   511   501  0.000000000E+00  0.000000000E+00  2.441668656E+02  2.441668656E+02  0.000000000E+00  0.00000E+00  9.000E+00
      21    -1     0     0   501   502  0.000000000E+00  0.000000000E+00 -7.172275692E+02  7.172275692E+02  0.000000000E+00  0.00000E+00  9.000E+00
      25     1     1     2     0     0 -2.458289751E+02 -9.409203458E+01 -2.248815915E+02  3.680786956E+02  1.250000000E+02  0.00000E+00  9.000E+00
      25     1     1     2     0     0  2.405827793E+02  1.307782418E+02 -3.636351414E+02  4.720577701E+02  1.250000000E+02  0.00000E+00  9.000E+00
      21     1     1     2   511   502  5.246195806E+00 -3.668620726E+01  1.154560293E+02  1.212579691E+02  1.907348633E-06  0.00000E+00  9.000E+00
#rwgt            1           1   3.0361246036282496E-002           9      131477           0
</event>
<event>
      5   9999  3.19816E-02  3.50348E+01 -1.00000E+00  1.48503E-01
      21    -1     0     0   502   512  0.000000000E+00  0.000000000E+00  7.819083134E+01  7.819083134E+01  0.000000000E+00  0.00000E+00  9.000E+00
      21    -1     0     0   501   502  0.000000000E+00  0.000000000E+00 -1.599781387E+03  1.599781387E+03  0.000000000E+00  0.00000E+00  9.000E+00
      25     1     1     2     0     0 -4.338804035E+01 -3.998721365E+01  2.051652015E+00  1.382414865E+02  1.250000000E+02  0.00000E+00  9.000E+00
      25     1     1     2     0     0  7.701806375E+01  4.980845112E+01 -1.449048906E+03  1.457319593E+03  1.250000000E+02  0.00000E+00  9.000E+00
      21     1     1     2   501   512 -3.363002341E+01 -9.821237473E+00 -7.459330226E+01  8.241113955E+01  9.536743164E-07  0.00000E+00  9.000E+00
#rwgt            1           1   2.9701589066078289E-002           9      131590           0
</event>
<event>
      5   9999  3.19816E-02  8.31908E+00 -1.00000E+00  2.05474E-01
      21    -1     0     0   502   511  0.000000000E+00  0.000000000E+00  1.884087760E+02  1.884087760E+02  0.000000000E+00  0.00000E+00  9.000E+00
      21    -1     0     0   501   502  0.000000000E+00  0.000000000E+00 -7.445517123E+02  7.445517123E+02  0.000000000E+00  0.00000E+00  9.000E+00
      25     1     1     2     0     0  1.749699351E+02  1.505170598E+02 -4.963238753E+02  5.614554770E+02  1.250000000E+02  0.00000E+00  9.000E+00
      25     1     1     2     0     0 -1.786222204E+02 -1.579915422E+02 -1.312921398E+02  2.995494133E+02  1.250000000E+02  0.00000E+00  9.000E+00
      21     1     1     2   501   511  3.652285329E+00  7.474482434E+00  7.147307884E+01  7.195559793E+01  9.536743164E-07  0.00000E+00  9.000E+00
#rwgt            1           1   3.0086524101624879E-002           9      131729           0
</event>
<event>
      5   9999  3.19816E-02  1.98429E+01 -1.00000E+00  1.66652E-01
      21    -1     0     0   502   501  0.000000000E+00  0.000000000E+00  1.298347642E+03  1.298347642E+03  0.000000000E+00  0.00000E+00  9.000E+00
      21    -1     0     0   501   512  0.000000000E+00  0.000000000E+00 -1.336619955E+03  1.336619955E+03  0.000000000E+00  0.00000E+00  9.000E+00
      25     1     1     2     0     0 -8.099398289E+02 -8.461548512E+01  6.545354851E+02  1.052237620E+03  1.250000000E+02  0.00000E+00  9.000E+00
      25     1     1     2     0     0  7.902072331E+02  8.252636653E+01  8.129207555E+01  8.083758247E+02  1.250000000E+02  0.00000E+00  9.000E+00
      21     1     1     2   502   512  1.973259584E+01  2.089118590E+00 -7.740998732E+02  7.743541525E+02  0.000000000E+00  0.00000E+00  9.000E+00
#rwgt            1           1   2.6608227660766169E-002           9      131958           0
</event>
<event>
      5   9999  3.19816E-02  2.63261E+01 -1.00000E+00  1.57088E-01
      21    -1     0     0   502   511  0.000000000E+00  0.000000000E+00  3.483132651E+02  3.483132651E+02  0.000000000E+00  0.00000E+00  9.000E+00
      21    -1     0     0   501   502  0.000000000E+00  0.000000000E+00 -3.751901691E+02  3.751901691E+02  0.000000000E+00  0.00000E+00  9.000E+00
      25     1     1     2     0     0 -2.276549307E+02  2.040230981E+02 -1.160081800E+02  3.500501248E+02  1.250000000E+02  0.00000E+00  9.000E+00
      25     1     1     2     0     0  2.197803424E+02 -1.789023179E+02  3.303852743E+01  3.114899397E+02  1.250000000E+02  0.00000E+00  9.000E+00
      21     1     1     2   501   511  7.874588298E+00 -2.512078025E+01  5.609274856E+01  6.196336969E+01  6.743495762E-07  0.00000E+00  9.000E+00
#rwgt            1           1   2.6785663844543266E-002           9      132190           0
</event>
<event>
      5   9999  3.19816E-02  1.52225E+02 -1.00000E+00  1.16141E-01
      21    -1     0     0   502   501  0.000000000E+00  0.000000000E+00  4.540947123E+02  4.540947123E+02  0.000000000E+00  0.00000E+00  9.000E+00
      21    -1     0     0   501   512  0.000000000E+00  0.000000000E+00 -7.105433982E+02  7.105433982E+02  0.000000000E+00  0.00000E+00  9.000E+00
      25     1     1     2     0     0 -4.913028632E+02  4.729605646E+01 -1.204672016E+02  5.232138826E+02  1.250000000E+02  0.00000E+00  9.000E+00
      25     1     1     2     0     0  4.241354126E+02  8.930965036E+01 -2.269648117E+01  4.516715534E+02  1.250000000E+02  0.00000E+00  9.000E+00
      21     1     1     2   502   512  6.716745055E+01 -1.366057068E+02 -1.132850031E+02  1.897526745E+02  1.348699152E-06  0.00000E+00  9.000E+00
#rwgt            1           1   2.8295538522934389E-002           9      132301           0
</event>
<event>
      5   9999  3.19816E-02  1.72963E+02 -1.00000E+00  1.13994E-01
      21    -1     0     0   511   501  0.000000000E+00  0.000000000E+00  7.895983862E+02  7.895983862E+02  0.000000000E+00  0.00000E+00  9.000E+00
      21    -1     0     0   501   502  0.000000000E+00  0.000000000E+00 -2.406472350E+02  2.406472350E+02  0.000000000E+00  0.00000E+00  9.000E+00
      25     1     1     2     0     0 -1.007666962E+02  2.246867039E+02 -5.827712987E+00  2.762191236E+02  1.250000000E+02  0.00000E+00  9.000E+00
      25     1     1     2     0     0 -4.597755200E+01 -1.331314690E+02  1.695875273E+01  1.890780861E+02  1.250000000E+02  0.00000E+00  9.000E+00
      21     1     1     2   511   502  1.467442482E+02 -9.155523487E+01  5.378201115E+02  5.649484116E+02  0.000000000E+00  0.00000E+00  9.000E+00
#rwgt            1           1   2.5484097100096876E-002           9      132347           0
</event>
<event>
      5   9999  3.19816E-02  8.45174E+01 -1.00000E+00  1.27205E-01
      21    -1     0     0   502   501  0.000000000E+00  0.000000000E+00  5.770874777E+02  5.770874777E+02  0.000000000E+00  0.00000E+00  9.000E+00
      21    -1     0     0   501   512  0.000000000E+00  0.000000000E+00 -5.769600832E+02  5.769600832E+02  0.000000000E+00  0.00000E+00  9.000E+00
      25     1     1     2     0     0  1.908728496E+01 -2.156520691E+02  2.751762473E+02  3.717756130E+02  1.250000000E+02  0.00000E+00  9.000E+00
      25     1     1     2     0     0  1.660600208E+01  1.390415375E+02  2.147579869E+02  2.852267543E+02  1.250000000E+02  0.00000E+00  9.000E+00
      21     1     1     2   502   512 -3.569328704E+01  7.661053160E+01 -4.898068396E+02  4.970451936E+02  0.000000000E+00  0.00000E+00  9.000E+00
#rwgt            1           1   3.0351074019940989E-002           9      132418           0
</event>
<event>
      5   9999  3.19816E-02  7.05945E+01 -1.00000E+00  1.31035E-01
      21    -1     0     0   502   501  0.000000000E+00  0.000000000E+00  4.253963840E+02  4.253963840E+02  0.000000000E+00  0.00000E+00  9.000E+00
      21    -1     0     0   501   511  0.000000000E+00  0.000000000E+00 -1.549184282E+02  1.549184282E+02  0.000000000E+00  0.00000E+00  9.000E+00
      25     1     1     2     0     0  1.449626408E+01  1.502558782E+02  1.929071440E+00  1.959992141E+02  1.250000000E+02  0.00000E+00  9.000E+00
      25     1     1     2     0     0  2.730006073E+01 -9.336431808E+01  2.707618621E+02  3.136864281E+02  1.250000000E+02  0.00000E+00  9.000E+00
      21     1     1     2   502   511 -4.179632481E+01 -5.689156016E+01 -2.212977628E+00  7.062917001E+01  1.431132222E-06  0.00000E+00  9.000E+00
#rwgt            1           1   2.8368897748601622E-002           9      132496           0
</event>
<event>
      5   9999  3.19816E-02  1.82830E+01 -1.00000E+00  1.69651E-01
      21    -1     0     0   502   501  0.000000000E+00  0.000000000E+00  8.608962726E+01  8.608962726E+01  0.000000000E+00  0.00000E+00  9.000E+00
      21    -1     0     0   501   512  0.000000000E+00  0.000000000E+00 -1.054692470E+03  1.054692470E+03  0.000000000E+00  0.00000E+00  9.000E+00
      25     1     1     2     0     0 -1.817917086E+02  1.324997769E+02 -2.213638927E+02  3.394574925E+02  1.250000000E+02  0.00000E+00  9.000E+00
      25     1     1     2     0     0  2.000729515E+02 -1.327533593E+02 -7.096055241E+02  7.594851152E+02  1.250000000E+02  0.00000E+00  9.000E+00
      21     1     1     2   502   512 -1.828124289E+01  2.535824499E-01 -3.763342580E+01  4.183948952E+01  4.768371582E-07  0.00000E+00  9.000E+00
#rwgt            1           1   2.8315802593422926E-002           9      132555           0
</event>
<event>
      5   9999  3.19816E-02  1.69085E+02 -1.00000E+00  1.14369E-01
      21    -1     0     0   511   501  0.000000000E+00  0.000000000E+00  1.031546892E+02  1.031546892E+02  0.000000000E+00  0.00000E+00  9.000E+00
      21    -1     0     0   501   502  0.000000000E+00  0.000000000E+00 -1.991515708E+03  1.991515708E+03  0.000000000E+00  0.00000E+00  9.000E+00
      25     1     1     2     0     0 -2.123082859E+02  1.250033153E+02 -1.669062761E+03  1.691773075E+03  1.250000000E+02  0.00000E+00  9.000E+00
      25     1     1     2     0     0  6.666103330E+01 -3.911522028E+01 -3.170096300E+01  1.503450860E+02  1.250000000E+02  0.00000E+00  9.000E+00
      21     1     1     2   511   502  1.456472526E+02 -8.588809506E+01 -1.875972952E+02  2.525522366E+02  3.814697266E-06  0.00000E+00  9.000E+00
#rwgt            1           1   3.5680376904274384E-002           9      132731           0
</event>
<event>
      5   9999  3.19816E-02  1.74446E+01 -1.00000E+00  1.71421E-01
      21    -1     0     0   502   512  0.000000000E+00  0.000000000E+00  7.603311596E+02  7.603311596E+02  0.000000000E+00  0.00000E+00  9.000E+00
      21    -1     0     0   501   502  0.000000000E+00  0.000000000E+00 -2.582463874E+02  2.582463874E+02  0.000000000E+00  0.00000E+00  9.000E+00
      25     1     1     2     0     0 -1.960454400E+02  3.598883704E+02  1.763806034E+02  4.633449805E+02  1.250000000E+02  0.00000E+00  9.000E+00
      25     1     1     2     0     0  2.127440722E+02 -3.548414620E+02  3.120142151E+02  5.330575708E+02  1.250000000E+02  0.00000E+00  9.000E+00
      21     1     1     2   501   512 -1.669863219E+01 -5.046908388E+00  1.368995368E+01  2.217499567E+01  3.769728732E-07  0.00000E+00  9.000E+00
#rwgt            1           1   2.4302320099438158E-002           9      132802           0
</event>
<event>
      5   9999  3.19816E-02  5.11495E+01 -1.00000E+00  1.38515E-01
      21    -1     0     0   502   501  0.000000000E+00  0.000000000E+00  7.281602996E+02  7.281602996E+02  0.000000000E+00  0.00000E+00  9.000E+00
      21    -1     0     0   501   511  0.000000000E+00  0.000000000E+00 -1.983836065E+02  1.983836065E+02  0.000000000E+00  0.00000E+00  9.000E+00
      25     1     1     2     0     0 -1.613427966E+02 -3.469839089E+01 -1.044912835E+02  2.319027914E+02  1.250000000E+02  0.00000E+00  9.000E+00
      25     1     1     2     0     0  1.167034989E+02  5.967047369E+01  6.130834309E+02  6.392781596E+02  1.250000000E+02  0.00000E+00  9.000E+00
      21     1     1     2   502   511  4.463929777E+01 -2.497208280E+01  2.118454560E+01  5.536295510E+01  7.539457465E-07  0.00000E+00  9.000E+00
#rwgt            1           1   2.7877300670661478E-002           9      133023           0
</event>
<event>
      5   9999  3.30621E-02  2.03985E+01 -1.00000E+00  1.65665E-01
      21    -1     0     0   502   501  0.000000000E+00  0.000000000E+00  4.942855614E+01  4.942855614E+01  0.000000000E+00  0.00000E+00  9.000E+00
      21    -1     0     0   501   512  0.000000000E+00  0.000000000E+00 -2.142073363E+03  2.142073363E+03  0.000000000E+00  0.00000E+00  9.000E+00
      25     1     1     2     0     0  1.998785246E+02  1.418343688E+02 -4.753152045E+02  5.491975568E+02  1.250000000E+02  0.00000E+00  9.000E+00
      25     1     1     2     0     0 -1.798258759E+02 -1.455749278E+02 -1.541944106E+03  1.564207796E+03  1.250000000E+02  0.00000E+00  9.000E+00
      21     1     1     2   502   512 -2.005264877E+01  3.740559004E+00 -7.538549713E+01  7.809656639E+01  9.536743164E-07  0.00000E+00  9.000E+00
#rwgt            1           1  0.10147935345328832                9      133220           0
</event>
<event>
      5   9999  3.19816E-02  2.90710E+02 -1.00000E+00  1.06038E-01
      21    -1     0     0   502   501  0.000000000E+00  0.000000000E+00  5.904621047E+01  5.904621047E+01  0.000000000E+00  0.00000E+00  9.000E+00
      21    -1     0     0   511   502  0.000000000E+00  0.000000000E+00 -2.213179907E+03  2.213179907E+03  0.000000000E+00  0.00000E+00  9.000E+00
      25     1     1     2     0     0 -1.993944475E+02  9.907253287E+01 -5.597158975E+02  6.152076059E+02  1.250000000E+02  0.00000E+00  9.000E+00
      25     1     1     2     0     0 -8.071647872E+01 -2.129060125E+01 -3.887335009E+02  4.167819266E+02  1.250000000E+02  0.00000E+00  9.000E+00
      21     1     1     2   511   501  2.801109262E+02 -7.778193162E+01 -1.205684298E+03  1.240236585E+03  1.525878906E-05  0.00000E+00  9.000E+00
#rwgt            2          11   1.1132518587651419E-003           9      133615           0
</event>
<event>
      5   9999  3.19816E-02  4.42364E+01 -1.00000E+00  1.42180E-01
      21    -1     0     0   512   501  0.000000000E+00  0.000000000E+00  9.510283652E+01  9.510283652E+01  0.000000000E+00  0.00000E+00  9.000E+00
      21    -1     0     0   501   502  0.000000000E+00  0.000000000E+00 -4.701865876E+02  4.701865876E+02  0.000000000E+00  0.00000E+00  9.000E+00
      25     1     1     2     0     0  7.202625098E+01 -8.447586391E+01 -2.644508994E+02  3.128629582E+02  1.250000000E+02  0.00000E+00  9.000E+00
      25     1     1     2     0     0 -8.518542673E+01  4.224203775E+01 -1.302487015E+02  2.040359550E+02  1.250000000E+02  0.00000E+00  9.000E+00
      21     1     1     2   512   502  1.315917575E+01  4.223382616E+01  1.961584989E+01  4.839051090E+01  5.840038640E-07  0.00000E+00  9.000E+00
#rwgt            1           1   2.9472454189139914E-002           9      133635           0
</event>
<event>
      5   9999  3.19816E-02  2.44933E+02 -1.00000E+00  1.08535E-01
      21    -1     0     0   511   501  0.000000000E+00  0.000000000E+00  1.130583897E+03  1.130583897E+03  0.000000000E+00  0.00000E+00  9.000E+00
      21    -1     0     0   501   502  0.000000000E+00  0.000000000E+00 -2.868989054E+03  2.868989054E+03  0.000000000E+00  0.00000E+00  9.000E+00
      25     1     1     2     0     0  2.728771299E+02 -2.361766524E+02  4.436909321E+02  5.854297416E+02  1.250000000E+02  0.00000E+00  9.000E+00
      25     1     1     2     0     0 -4.165964232E+02  4.345126336E+02 -2.738262279E+03  2.806431741E+03  1.250000000E+02  0.00000E+00  9.000E+00
      21     1     1     2   511   502  1.437192933E+02 -1.983359812E+02  5.561661904E+02  6.077114677E+02  1.321449896E-05  0.00000E+00  9.000E+00
#rwgt            2          11   4.2391668678526681E-003           9      133878           0
</event>
<event>
      5   9999  3.19816E-02  2.19898E+02 -1.00000E+00  1.10169E-01
       1    -1     0     0   502     0  0.000000000E+00  0.000000000E+00  3.872076107E+02  3.872076107E+02  0.000000000E+00  0.00000E+00  9.000E+00
      21    -1     0     0   501   502  0.000000000E+00  0.000000000E+00 -4.518900484E+02  4.518900484E+02  0.000000000E+00  0.00000E+00  9.000E+00
      25     1     1     2     0     0 -6.806227278E+01  5.031671787E-01 -4.094689704E+01  1.481025811E+02  1.250000000E+02  0.00000E+00  9.000E+00
      25     1     1     2     0     0  1.321103859E+02 -2.108675363E+02  2.257166302E+02  3.584567883E+02  1.250000000E+02  0.00000E+00  9.000E+00
       1     1     1     2   501     0 -6.404811309E+01  2.103643692E+02 -2.494521709E+02  3.325382898E+02  2.697398305E-06  0.00000E+00  9.000E+00
#rwgt            1           1   3.0079118194469207E-002           9      133913           0
</event>
<event>
      5   9999  3.19816E-02  5.26738E+01 -1.00000E+00  1.37797E-01
      21    -1     0     0   502   511  0.000000000E+00  0.000000000E+00  6.250883071E+02  6.250883071E+02  0.000000000E+00  0.00000E+00  9.000E+00
      21    -1     0     0   501   502  0.000000000E+00  0.000000000E+00 -3.308551749E+02  3.308551749E+02  0.000000000E+00  0.00000E+00  9.000E+00
      25     1     1     2     0     0 -7.638609483E+01  2.971440375E+02  2.164712171E+02  3.957451229E+02  1.250000000E+02  0.00000E+00  9.000E+00
      25     1     1     2     0     0  2.988151182E+01 -3.218796932E+02 -1.112320574E+02  3.640013904E+02  1.250000000E+02  0.00000E+00  9.000E+00
      21     1     1     2   501   511  4.650458301E+01  2.473565574E+01  1.889939724E+02  1.961969686E+02  3.814697266E-06  0.00000E+00  9.000E+00
#rwgt            1           1   2.8034109036450826E-002           9      133973           0
</event>
<event>
      5   9999  3.19816E-02  7.68066E+01 -1.00000E+00  1.29212E-01
      21    -1     0     0   502   501  0.000000000E+00  0.000000000E+00  2.500554915E+02  2.500554915E+02  0.000000000E+00  0.00000E+00  9.000E+00
       1    -1     0     0   501     0  0.000000000E+00  0.000000000E+00 -1.261444270E+03  1.261444270E+03  0.000000000E+00  0.00000E+00  9.000E+00
      25     1     1     2     0     0 -1.110904100E+02  3.482446793E+02 -1.443219824E+01  3.865859855E+02  1.250000000E+02  0.00000E+00  9.000E+00
      25     1     1     2     0     0  3.500769812E+01 -3.377245518E+02 -4.738046387E+02  5.961537113E+02  1.250000000E+02  0.00000E+00  9.000E+00
       1     1     1     2   502     0  7.608271187E+01 -1.052012740E+01 -5.231519415E+02  5.287600647E+02  0.000000000E+00  0.00000E+00  9.000E+00
#rwgt            1           1   2.9434876311358216E-002           9      134095           0
</event>
<event>
      5   9999  3.19816E-02  1.35262E+02 -1.00000E+00  1.18202E-01
      21    -1     0     0   502   511  0.000000000E+00  0.000000000E+00  5.319618181E+01  5.319618181E+01  0.000000000E+00  0.00000E+00  9.000E+00
      21    -1     0     0   501   502  0.000000000E+00  0.000000000E+00 -2.967956437E+03  2.967956437E+03  0.000000000E+00  0.00000E+00  9.000E+00
      25     1     1     2     0     0 -1.984669572E+02 -6.879779253E+01 -1.556665725E+03  1.575739651E+03  1.250000000E+02  0.00000E+00  9.000E+00
      25     1     1     2     0     0  1.093520698E+02  1.705545349E+02 -1.249433990E+03  1.271910776E+03  1.250000000E+02  0.00000E+00  9.000E+00
      21     1     1     2   501   511  8.911488739E+01 -1.017567424E+02 -1.086605403E+02  1.735021924E+02  2.336015456E-06  0.00000E+00  9.000E+00
#rwgt            1           1   3.4903066608039282E-002           9      134180           0
</event>
<event>
      5   9999  3.19816E-02  2.48352E+01 -1.00000E+00  1.58966E-01
      21    -1     0     0   502   501  0.000000000E+00  0.000000000E+00  1.428998026E+02  1.428998026E+02  0.000000000E+00  0.00000E+00  9.000E+00
      21    -1     0     0   501   512  0.000000000E+00  0.000000000E+00 -7.421066444E+02  7.421066444E+02  0.000000000E+00  0.00000E+00  9.000E+00
      25     1     1     2     0     0  2.435505859E+02  3.408708049E+01 -4.268091724E+02  5.082026039E+02  1.250000000E+02  0.00000E+00  9.000E+00
      25     1     1     2     0     0 -2.220556315E+02 -2.164714980E+01 -6.132521799E+01  2.629887544E+02  1.250000000E+02  0.00000E+00  9.000E+00
      21     1     1     2   502   512 -2.149495446E+01 -1.243993069E+01 -1.110724515E+02  1.138150887E+02  0.000000000E+00  0.00000E+00  9.000E+00
#rwgt            1           1   2.5648029942014622E-002           9      134259           0
</event>
<event>
      5   9999  3.19816E-02  1.70481E+02 -1.00000E+00  1.14232E-01
      21    -1     0     0   502   501  0.000000000E+00  0.000000000E+00  5.629498644E+02  5.629498644E+02  0.000000000E+00  0.00000E+00  9.000E+00
      21    -1     0     0   501   511  0.000000000E+00  0.000000000E+00 -8.468477981E+02  8.468477981E+02  0.000000000E+00  0.00000E+00  9.000E+00
      25     1     1     2     0     0 -4.579914437E+02  8.401245147E+01  1.546405970E+02  5.063131133E+02  1.250000000E+02  0.00000E+00  9.000E+00
      25     1     1     2     0     0  3.245643671E+02  2.210575190E+01  8.006052596E+01  3.575826904E+02  1.250000000E+02  0.00000E+00  9.000E+00
      21     1     1     2   502   511  1.334270766E+02 -1.061182034E+02 -5.185990567E+02  5.459018588E+02  1.078959322E-05  0.00000E+00  9.000E+00
#rwgt            1           1   3.0161285256158792E-002           9      134439           0
</event>
<event>
      5   9999  3.19816E-02  1.44018E+02 -1.00000E+00  1.17098E-01
      21    -1     0     0   502   501  0.000000000E+00  0.000000000E+00  1.137483835E+03  1.137483835E+03  0.000000000E+00  0.00000E+00  9.000E+00
      21    -1     0     0   501   512  0.000000000E+00  0.000000000E+00 -6.807227206E+02  6.807227206E+02  0.000000000E+00  0.00000E+00  9.000E+00
      25     1     1     2     0     0  1.957029953E+01 -3.764924596E+02  9.059962189E+02  9.892339043E+02  1.250000000E+02  0.00000E+00  9.000E+00
      25     1     1     2     0     0  8.017315333E+01  4.803791571E+02 -4.640153366E+02  6.841981451E+02  1.250000000E+02  0.00000E+00  9.000E+00
      21     1     1     2   502   512 -9.974345286E+01 -1.038866975E+02  1.478023189E+01  1.447745059E+02  2.861022949E-06  0.00000E+00  9.000E+00
#rwgt            1           1   2.8663604476895421E-002           9      134502           0
</event>
<event>
      5   9999  3.19816E-02  5.22451E+01 -1.00000E+00  1.37996E-01
      21    -1     0     0   502   511  0.000000000E+00  0.000000000E+00  8.699123486E+02  8.699123486E+02  0.000000000E+00  0.00000E+00  9.000E+00
      21    -1     0     0   501   502  0.000000000E+00  0.000000000E+00 -1.312677360E+03  1.312677360E+03  0.000000000E+00  0.00000E+00  9.000E+00
      25     1     1     2     0     0 -1.065309949E+02  4.026603118E+02 -2.560246125E+02  5.046362867E+02  1.250000000E+02  0.00000E+00  9.000E+00
      25     1     1     2     0     0  6.566652563E+01 -3.701081206E+02 -8.892572435E+02  9.734965632E+02  1.250000000E+02  0.00000E+00  9.000E+00
      21     1     1     2   501   511  4.086446922E+01 -3.255219120E+01  7.025168442E+02  7.044568591E+02  1.078959322E-05  0.00000E+00  9.000E+00
#rwgt            1           1   3.2972649418668162E-002           9      134605           0
</event>
<event>
      5   9999  3.19816E-02  9.33422E+01 -1.00000E+00  1.25189E-01
      21    -1     0     0   512   501  0.000000000E+00  0.000000000E+00  3.864930227E+03  3.864930227E+03  0.000000000E+00  0.00000E+00  9.000E+00
      21    -1     0     0   501   502  0.000000000E+00  0.000000000E+00 -3.284549985E+02  3.284549985E+02  0.000000000E+00  0.00000E+00  9.000E+00
      25     1     1     2     0     0  8.503910416E+02 -6.054892514E+02  2.036946788E+03  2.292282569E+03  1.250000000E+02  0.00000E+00  9.000E+00
      25     1     1     2     0     0 -7.596374753E+02  5.836588748E+02  9.906481832E+02  1.383732488E+03  1.250000000E+02  0.00000E+00  9.000E+00
      21     1     1     2   512   502 -9.075356627E+01  2.183037665E+01  5.088802574E+02  5.173701688E+02  7.629394531E-06  0.00000E+00  9.000E+00
#rwgt            1           1   5.4349409101415162E-002           9      134715           0
</event>
<event>
      5   9999  3.19816E-02  2.44375E+02 -1.00000E+00  1.08569E-01
      21    -1     0     0   502   501  0.000000000E+00  0.000000000E+00  3.914811248E+02  3.914811248E+02  0.000000000E+00  0.00000E+00  9.000E+00
      21    -1     0     0   511   502  0.000000000E+00  0.000000000E+00 -9.876490370E+02  9.876490370E+02  0.000000000E+00  0.00000E+00  9.000E+00
      25     1     1     2     0     0 -2.684012552E+01  5.478496235E+02 -7.226210588E+01  5.671916909E+02  1.250000000E+02  0.00000E+00  9.000E+00
      25     1     1     2     0     0 -9.847253915E+01 -3.380501987E+02 -2.822471168E+02  4.682554994E+02  1.250000000E+02  0.00000E+00  9.000E+00
      21     1     1     2   511   501  1.253126647E+02 -2.097994248E+02 -2.416586896E+02  3.436829714E+02  3.814697266E-06  0.00000E+00  9.000E+00
#rwgt            2          11   3.8187524119324395E-003           9      134885           0
</event>
<event>
      5   9999  3.19816E-02  9.32805E+01 -1.00000E+00  1.25202E-01
      21    -1     0     0   502   501  0.000000000E+00  0.000000000E+00  4.746893961E+02  4.746893961E+02  0.000000000E+00  0.00000E+00  9.000E+00
       2    -1     0     0   501     0  0.000000000E+00  0.000000000E+00 -1.095853896E+03  1.095853896E+03  0.000000000E+00  0.00000E+00  9.000E+00
      25     1     1     2     0     0  1.052059824E+02  2.254661831E+02  3.227185460E+00  2.784577404E+02  1.250000000E+02  0.00000E+00  9.000E+00
      25     1     1     2     0     0 -1.893346604E+02 -2.657602304E+02  2.392073002E+02  4.234633941E+02  1.250000000E+02  0.00000E+00  9.000E+00
       2     1     1     2   502     0  8.412867803E+01  4.029404726E+01 -8.635989854E+02  8.686221574E+02  1.078959322E-05  0.00000E+00  9.000E+00
#rwgt            1           1   2.7896812701094991E-002           9      134905           0
</event>
<event>
      5   9999  3.19816E-02  1.37948E+01 -1.00000E+00  1.80881E-01
      21    -1     0     0   502   511  0.000000000E+00  0.000000000E+00  1.710691315E+03  1.710691315E+03  0.000000000E+00  0.00000E+00  9.000E+00
      21    -1     0     0   501   502  0.000000000E+00  0.000000000E+00 -1.092753760E+02  1.092753760E+02  0.000000000E+00  0.00000E+00  9.000E+00
      25     1     1     2     0     0  1.182936244E+02 -1.473963728E+02  2.877238327E+01  2.284117386E+02  1.250000000E+02  0.00000E+00  9.000E+00
      25     1     1     2     0     0 -1.047475876E+02  1.447885083E+02  1.269365810E+03  1.287963637E+03  1.250000000E+02  0.00000E+00  9.000E+00
      21     1     1     2   501   511 -1.354603681E+01  2.607864545E+00  3.032777456E+02  3.035913158E+02  3.814697266E-06  0.00000E+00  9.000E+00
#rwgt            1           1   2.8497098831749758E-002           9      135002           0
</event>
<event>
      5   9999  3.19816E-02  4.54060E+01 -1.00000E+00  1.41507E-01
      21    -1     0     0   512   501  0.000000000E+00  0.000000000E+00  4.285520005E+02  4.285520005E+02  0.000000000E+00  0.00000E+00  9.000E+00
      21    -1     0     0   501   502  0.000000000E+00  0.000000000E+00 -2.046888591E+02  2.046888591E+02  0.000000000E+00  0.00000E+00  9.000E+00
      25     1     1     2     0     0 -1.673475763E+02 -5.879317543E+01 -6.648212882E+01  2.269509247E+02  1.250000000E+02  0.00000E+00  9.000E+00
      25     1     1     2     0     0  1.734636988E+02  1.037853963E+02  2.296716438E+02  3.305073785E+02  1.250000000E+02  0.00000E+00  9.000E+00
      21     1     1     2   512   502 -6.116122424E+00 -4.499222087E+01  6.067362652E+01  7.578255635E+01  0.000000000E+00  0.00000E+00  9.000E+00
#rwgt            1           1   2.9994150727366355E-002           9      135216           0
</event>
<event>
      5   9999  3.19816E-02  2.25516E+02 -1.00000E+00  1.09782E-01
      21    -1     0     0   502   501  0.000000000E+00  0.000000000E+00  4.417815532E+02  4.417815532E+02  0.000000000E+00  0.00000E+00  9.000E+00
       2    -1     0     0   501     0  0.000000000E+00  0.000000000E+00 -8.820612535E+02  8.820612535E+02  0.000000000E+00  0.00000E+00  9.000E+00
      25     1     1     2     0     0 -1.273477651E+02  2.088833357E+02  3.312206867E+02  4.303276014E+02  1.250000000E+02  0.00000E+00  9.000E+00
      25     1     1     2     0     0 -8.541504412E+01 -1.341212622E+02 -5.074227308E+02  5.462481766E+02  1.250000000E+02  0.00000E+00  9.000E+00
       2     1     1     2   502     0  2.127628092E+02 -7.476207349E+01 -2.640776563E+02  3.472670286E+02  0.000000000E+00  0.00000E+00  9.000E+00
#rwgt            1           1   2.0267715511989134E-002           9      135316           0
</event>
<event>
      5   9999  3.19816E-02  2.32546E+01 -1.00000E+00  1.61142E-01
      21    -1     0     0   502   511  0.000000000E+00  0.000000000E+00  3.079227903E+03  3.079227903E+03  0.000000000E+00  0.00000E+00  9.000E+00
      21    -1     0     0   501   502  0.000000000E+00  0.000000000E+00 -1.948293016E+02  1.948293016E+02  0.000000000E+00  0.00000E+00  9.000E+00
      25     1     1     2     0     0 -2.348465486E+02 -7.028180954E+02  1.217027837E+03  1.430345389E+03  1.250000000E+02  0.00000E+00  9.000E+00
      25     1     1     2     0     0  2.192436241E+02  7.200612687E+02  1.604629588E+03  1.776799683E+03  1.250000000E+02  0.00000E+00  9.000E+00
      21     1     1     2   501   511  1.560292458E+01 -1.724317329E+01  6.274117596E+01  6.691213224E+01  6.743495762E-07  0.00000E+00  9.000E+00
#rwgt            1           1   5.6829584717670460E-002           9      135382           0
</event>
<event>
      5   9999  3.19816E-02  9.29668E+01 -1.00000E+00  1.25269E-01
      21    -1     0     0   502   501  0.000000000E+00  0.000000000E+00  6.996406263E+02  6.996406263E+02  0.000000000E+00  0.00000E+00  9.000E+00
      21    -1     0     0   501   512  0.000000000E+00  0.000000000E+00 -4.596356300E+02  4.596356300E+02  0.000000000E+00  0.00000E+00  9.000E+00
      25     1     1     2     0     0 -1.782231351E+02  2.791905078E+02 -1.051533395E+02  3.693142975E+02  1.250000000E+02  0.00000E+00  9.000E+00
      25     1     1     2     0     0  2.686260457E+02 -2.575079777E+02  4.838079429E+02  6.230292422E+02  1.250000000E+02  0.00000E+00  9.000E+00
      21     1     1     2   502   512 -9.040291053E+01 -2.168253003E+01 -1.386496071E+02  1.669327167E+02  0.000000000E+00  0.00000E+00  9.000E+00
#rwgt            1           1   3.1828261798728101E-002           9      135551           0
</event>
<event>
      5   9999  3.19816E-02  1.17284E+02 -1.00000E+00  1.20792E-01
      21    -1     0     0   511   501  0.000000000E+00  0.000000000E+00  4.526615038E+02  4.526615038E+02  0.000000000E+00  0.00000E+00  9.000E+00
      21    -1     0     0   501   502  0.000000000E+00  0.000000000E+00 -5.998063366E+02  5.998063366E+02  0.000000000E+00  0.00000E+00  9.000E+00
      25     1     1     2     0     0  5.175600092E+01  9.469774057E+01  2.427325163E+02  2.935820502E+02  1.250000000E+02  0.00000E+00  9.000E+00
      25     1     1     2     0     0 -1.644299915E+02 -1.272563135E+02 -5.259725722E+02  5.792266726E+02  1.250000000E+02  0.00000E+00  9.000E+00
      21     1     1     2   511   502  1.126739906E+02  3.255857296E+01  1.360952231E+02  1.796591177E+02  1.907348633E-06  0.00000E+00  9.000E+00
#rwgt            1           1   2.9616839379695517E-002           9      135625           0
</event>
<event>
      5   9999  3.19816E-02  3.15776E+01 -1.00000E+00  1.51510E-01
      21    -1     0     0   502   501  0.000000000E+00  0.000000000E+00  2.064835212E+02  2.064835212E+02  0.000000000E+00  0.00000E+00  9.000E+00
      21    -1     0     0   512   502  0.000000000E+00  0.000000000E+00 -6.419328547E+02  6.419328547E+02  0.000000000E+00  0.00000E+00  9.000E+00
      25     1     1     2     0     0 -2.938573095E+02  6.753064757E+01 -9.790171814E+01  3.407671538E+02  1.250000000E+02  0.00000E+00  9.000E+00
      25     1     1     2     0     0  3.102170499E+02 -9.453993577E+01 -3.075734844E+02  4.641108336E+02  1.250000000E+02  0.00000E+00  9.000E+00
      21     1     1     2   512   501 -1.635974049E+01  2.700928821E+01 -2.997413096E+01  4.353838864E+01  4.768371582E-07  0.00000E+00  9.000E+00
#rwgt            1           1   2.2552695805629817E-002           9      135778           0
</event>
<event>
      5   9999  3.19816E-02  2.72470E+01 -1.00000E+00  1.56001E-01
      21    -1     0     0   511   501  0.000000000E+00  0.000000000E+00  8.098052312E+01  8.098052312E+01  0.000000000E+00  0.00000E+00  9.000E+00
      21    -1     0     0   501   502  0.000000000E+00  0.000000000E+00 -5.111654671E+02  5.111654671E+02  0.000000000E+00  0.00000E+00  9.000E+00
      25     1     1     2     0     0  4.781835025E+01 -5.277868917E+01 -3.336279683E+01  1.476829742E+02  1.250000000E+02  0.00000E+00  9.000E+00
      25     1     1     2     0     0 -7.121393000E+01  3.881288951E+01 -3.883095201E+02  4.159172365E+02  1.250000000E+02  0.00000E+00  9.000E+00
      21     1     1     2   511   502  2.339557975E+01  1.396579966E+01 -8.512627115E+00  2.854577959E+01  4.129530925E-07  0.00000E+00  9.000E+00
#rwgt            1           1   2.7168368800365657E-002           9      135957           0
</event>
<event>
      5   9999  3.19816E-02  6.31814E+01 -1.00000E+00  1.33515E-01
      21    -1     0     0   502   501  0.000000000E+00  0.000000000E+00  1.423899939E+03  1.423899939E+03  0.000000000E+00  0.00000E+00  9.000E+00
      21    -1     0     0   512   502  0.000000000E+00  0.000000000E+00 -1.330766823E+03  1.330766823E+03  0.000000000E+00  0.00000E+00  9.000E+00
      25     1     1     2     0     0 -7.608153895E+01  1.477290686E+02  7.916652194E+02  8.185176222E+02  1.250000000E+02  0.00000E+00  9.000E+00
      25     1     1     2     0     0  1.391780819E+02 -1.444554332E+02  5.954408457E+02  6.406346161E+02  1.250000000E+02  0.00000E+00  9.000E+00
      21     1     1     2   512   501 -6.309654293E+01 -3.273635430E+00 -1.293972949E+03  1.295514525E+03  1.525878906E-05  0.00000E+00  9.000E+00
#rwgt            1           1   3.7486735047661354E-002           9      136067           0
</event>
<event>
      5   9999  3.19816E-02  2.42296E+01 -1.00000E+00  1.59776E-01
      21    -1     0     0   502   511  0.000000000E+00  0.000000000E+00  3.076909725E+02  3.076909725E+02  0.000000000E+00  0.00000E+00  9.000E+00
      21    -1     0     0   501   502  0.000000000E+00  0.000000000E+00 -1.253347289E+03  1.253347289E+03  0.000000000E+00  0.00000E+00  9.000E+00
      25     1     1     2     0     0  2.206815714E+01 -2.674212660E+02 -1.343874757E+02  3.250940336E+02  1.250000000E+02  0.00000E+00  9.000E+00
      25     1     1     2     0     0 -3.495863290E+01  2.469052442E+02 -1.003829517E+03  1.041865157E+03  1.250000000E+02  0.00000E+00  9.000E+00
      21     1     1     2   501   511  1.289047575E+01  2.051602179E+01  1.925606767E+02  1.940790708E+02  4.672030912E-06  0.00000E+00  9.000E+00
#rwgt            1           1   2.7832348336003579E-002           9      136113           0
</event>
<event>
      5   9999  3.19816E-02  1.61513E+01 -1.00000E+00  1.74410E-01
      21    -1     0     0   502   512  0.000000000E+00  0.000000000E+00  6.703513541E+01  6.703513541E+01  0.000000000E+00  0.00000E+00  9.000E+00
      21    -1     0     0   501   502  0.000000000E+00  0.000000000E+00 -4.384182392E+02  4.384182392E+02  0.000000000E+00  0.00000E+00  9.000E+00
      25     1     1     2     0     0  1.473185149E+01  5.134344553E+01 -3.002352138E+02  3.295745143E+02  1.250000000E+02  0.00000E+00  9.000E+00
      25     1     1     2     0     0 -2.908048516E+01 -4.392842163E+01 -7.997916508E+01  1.574707836E+02  1.250000000E+02  0.00000E+00  9.000E+00
      21     1     1     2   501   512  1.434863367E+01 -7.415023898E+00  8.831275123E+00  1.840807670E+01  0.000000000E+00  0.00000E+00  9.000E+00
#rwgt            1           1   5.1894788783233808E-002           9      136317           0
</event>
<event>
      5   9999  3.19816E-02  8.06667E+01 -1.00000E+00  1.28175E-01
      21    -1     0     0   511   501  0.000000000E+00  0.000000000E+00  8.371088832E+02  8.371088832E+02  0.000000000E+00  0.00000E+00  9.000E+00
      21    -1     0     0   501   502  0.000000000E+00  0.000000000E+00 -5.093007506E+02  5.093007506E+02  0.000000000E+00  0.00000E+00  9.000E+00
      25     1     1     2     0     0  1.681910238E+02 -4.760185348E+02 -1.466879431E+02  5.403926523E+02  1.250000000E+02  0.00000E+00  9.000E+00
      25     1     1     2     0     0 -2.364361542E+02  4.330101102E+02  2.491289156E+02  5.666480628E+02  1.250000000E+02  0.00000E+00  9.000E+00
      21     1     1     2   511   502  6.824513038E+01  4.300842463E+01  2.253671601E+02  2.393689187E+02  3.814697266E-06  0.00000E+00  9.000E+00
#rwgt            1           1   3.1747507048653451E-002           9      136467           0
</event>
<event>
      5   9999  3.19816E-02  5.29227E+01 -1.00000E+00  1.37682E-01
      21    -1     0     0   512   501  0.000000000E+00  0.000000000E+00  2.320214243E+03  2.320214243E+03  0.000000000E+00  0.00000E+00  9.000E+00
      21    -1     0     0   501   502  0.000000000E+00  0.000000000E+00 -1.537955650E+02  1.537955650E+02  0.000000000E+00  0.00000E+00  9.000E+00
      25     1     1     2     0     0  1.011472316E+02  5.040230638E+02  9.386639665E+02  1.077490164E+03  1.250000000E+02  0.00000E+00  9.000E+00
      25     1     1     2     0     0 -9.811926376E+01 -4.511870947E+02  6.037899407E+02  7.703145311E+02  1.250000000E+02  0.00000E+00  9.000E+00
      21     1     1     2   512   502 -3.027967790E+00 -5.283596914E+01  6.239647710E+02  6.262051131E+02  0.000000000E+00  0.00000E+00  9.000E+00
#rwgt            1           1   2.8603196700846847E-002           9      136554           0
</event>
<event>
      5   9999  3.19816E-02  3.72994E+01 -1.00000E+00  1.46748E-01
      21    -1     0     0   511   501  0.000000000E+00  0.000000000E+00  1.162352154E+02  1.162352154E+02  0.000000000E+00  0.00000E+00  9.000E+00
      21    -1     0     0   501   502  0.000000000E+00  0.000000000E+00 -2.867234988E+02  2.867234988E+02  0.000000000E+00  0.00000E+00  9.000E+00
      25     1     1     2     0     0  3.648704073E+01  7.396109898E+01 -1.248923497E+02  1.949990957E+02  1.250000000E+02  0.00000E+00  9.000E+00
      25     1     1     2     0     0 -1.894024233E+01 -1.068754737E+02 -3.537631567E+01  1.692855084E+02  1.250000000E+02  0.00000E+00  9.000E+00
      21     1     1     2   511   502 -1.754679841E+01  3.291437472E+01 -1.021961813E+01  3.867411010E+01  7.996802250E-07  0.00000E+00  9.000E+00
#rwgt            1           1   2.6515185076903335E-002           9      136711           0
</event>
<event>
      5   9999  3.19816E-02  4.71921E+01 -1.00000E+00  1.40523E-01
      21    -1     0     0   502   501  0.000000000E+00  0.000000000E+00  3.404159238E+02  3.404159238E+02  0.000000000E+00  0.00000E+00  9.000E+00
      -2    -1     0     0     0   502  0.000000000E+00  0.000000000E+00 -2.187705615E+02  2.187705615E+02  0.000000000E+00  0.00000E+00  9.000E+00
      25     1     1     2     0     0  7.535662139E+01  1.154678142E+02  2.074813986E+02  2.787202312E+02  1.250000000E+02  0.00000E+00  9.000E+00
      25     1     1     2     0     0 -2.863703584E+01 -1.088065085E+02 -1.324967797E+02  2.141012208E+02  1.250000000E+02  0.00000E+00  9.000E+00
      -2     1     1     2     0   501 -4.671958555E+01 -6.661305649E+00  4.666074341E+01  6.636503328E+01  6.743495762E-07  0.00000E+00  9.000E+00
#rwgt            1           1   2.8525061024550505E-002           9      136806           0
</event>
<event>
      5   9999  3.19816E-02  7.94115E+01 -1.00000E+00  1.28505E-01
      21    -1     0     0   502   511  0.000000000E+00  0.000000000E+00  1.016593177E+03  1.016593177E+03  0.000000000E+00  0.00000E+00  9.000E+00
      21    -1     0     0   501   502  0.000000000E+00  0.000000000E+00 -1.574512250E+02  1.574512250E+02  0.000000000E+00  0.00000E+00  9.000E+00
      25     1     1     2     0     0 -7.367834546E+01  1.372530590E+02  2.347690501E+02  3.082343389E+02  1.250000000E+02  0.00000E+00  9.000E+00
      25     1     1     2     0     0 -1.204318737E-01 -1.665776793E+02 -2.665122441E+01  2.099605332E+02  1.250000000E+02  0.00000E+00  9.000E+00
      21     1     1     2   501   511  7.379877734E+01  2.932462023E+01  6.510241260E+02  6.558495296E+02  0.000000000E+00  0.00000E+00  9.000E+00
#rwgt            2          11   1.4776136454252662E-003           9      137077           0
</event>
<event>
      5   9999  3.19816E-02  1.20305E+02 -1.00000E+00  1.20321E-01
      21    -1     0     0   512   501  0.000000000E+00  0.000000000E+00  2.018650376E+02  2.018650376E+02  0.000000000E+00  0.00000E+00  9.000E+00
      21    -1     0     0   501   502  0.000000000E+00  0.000000000E+00 -5.833920328E+02  5.833920328E+02  0.000000000E+00  0.00000E+00  9.000E+00
      25     1     1     2     0     0 -4.651027672E+01 -2.519172476E+02 -1.306645471E+02  3.135661483E+02  1.250000000E+02  0.00000E+00  9.000E+00
      25     1     1     2     0     0 -2.458834408E+01  1.548693128E+02 -2.832975268E+02  3.470901603E+02  1.250000000E+02  0.00000E+00  9.000E+00
      21     1     1     2   512   502  7.109862080E+01  9.704793479E+01  3.243507864E+01  1.246007618E+02  2.739220927E-06  0.00000E+00  9.000E+00
#rwgt            1           1   3.1763671155018748E-002           9      137097           0
</event>
<event>
      5   9999  3.19816E-02  1.10920E+02 -1.00000E+00  1.21837E-01
      21    -1     0     0   502   501  0.000000000E+00  0.000000000E+00  7.916406023E+02  7.916406023E+02  0.000000000E+00  0.00000E+00  9.000E+00
      21    -1     0     0   501   511  0.000000000E+00  0.000000000E+00 -2.447144427E+02  2.447144427E+02  0.000000000E+00  0.00000E+00  9.000E+00
      25     1     1     2     0     0  3.065815630E+02  1.387169808E+02  6.045794539E+01  3.640258490E+02  1.250000000E+02  0.00000E+00  9.000E+00
      25     1     1     2     0     0 -3.035934744E+02 -2.783756728E+01  4.454439243E+02  5.540660769E+02  1.250000000E+02  0.00000E+00  9.000E+00
      21     1     1     2   502   511 -2.988088613E+00 -1.108794135E+02  4.102428997E+01  1.182631192E+02  1.581489940E-06  0.00000E+00  9.000E+00
#rwgt            1           1   2.9448621683249292E-002           9      137174           0
</event>
<event>
      5   9999  3.19816E-02  1.97442E+02 -1.00000E+00  1.11852E-01
      21    -1     0     0   502   501  0.000000000E+00  0.000000000E+00  5.734608425E+02  5.734608425E+02  0.000000000E+00  0.00000E+00  9.000E+00
      21    -1     0     0   501   512  0.000000000E+00  0.000000000E+00 -5.816709575E+02  5.816709575E+02  0.000000000E+00  0.00000E+00  9.000E+00
      25     1     1     2     0     0 -4.157436198E+02  1.917472464E+02  8.438719564E+01  4.820331552E+02  1.250000000E+02  0.00000E+00  9.000E+00
      25     1     1     2     0     0  2.806119731E+02 -3.357013600E+02 -4.880743007E-02  4.550422892E+02  1.250000000E+02  0.00000E+00  9.000E+00
      21     1     1     2   502   512  1.351316467E+02  1.439541136E+02 -9.254850326E+01  2.180563556E+02  0.000000000E+00  0.00000E+00  9.000E+00
#rwgt            1           1   2.8104139113575417E-002           9      137224           0
</event>
<event>
      5   9999  3.19816E-02  1.87061E+02 -1.00000E+00  1.12716E-01
      21    -1     0     0   502   511  0.000000000E+00  0.000000000E+00  4.049190275E+02  4.049190275E+02  0.000000000E+00  0.00000E+00  9.000E+00
      21    -1     0     0   501   502  0.000000000E+00  0.000000000E+00 -8.959408508E+02  8.959408508E+02  0.000000000E+00  0.00000E+00  9.000E+00
      25     1     1     2     0     0 -8.760781769E+01  1.010344583E+02 -8.397913934E+00  1.832446901E+02  1.250000000E+02  0.00000E+00  9.000E+00
      25     1     1     2     0     0  1.252856766E+02  8.219248149E+01 -7.591130639E+02  7.837919039E+02  1.250000000E+02  0.00000E+00  9.000E+00
      21     1     1     2   501   511 -3.767785892E+01 -1.832269398E+02  2.764891545E+02  3.338232843E+02  8.529922400E-06  0.00000E+00  9.000E+00
#rwgt            1           1   2.6605613862165214E-002           9      137260           0
</event>
<event>
      5   9999  3.19816E-02  7.13431E+01 -1.00000E+00  1.30804E-01
      21    -1     0     0   502   501  0.000000000E+00  0.000000000E+00  3.233383916E+02  3.233383916E+02  0.000000000E+00  0.00000E+00  9.000E+00
      21    -1     0     0   501   512  0.000000000E+00  0.000000000E+00 -8.799562753E+02  8.799562753E+02  0.000000000E+00  0.00000E+00  9.000E+00
      25     1     1     2     0     0  1.127150064E+02 -1.040838219E+02 -5.168710555E+02  5.534607508E+02  1.250000000E+02  0.00000E+00  9.000E+00
      25     1     1     2     0     0 -1.658105565E+02  1.517357037E+02  2.456540186E+02  3.556511793E+02  1.250000000E+02  0.00000E+00  9.000E+00
      21     1     1     2   502   512  5.309555013E+01 -4.765188187E+01 -2.854008468E+02  2.941827368E+02  6.607249480E-06  0.00000E+00  9.000E+00
#rwgt            1           1   3.2132319125732382E-002           9      137305           0
</event>
<event>
      5   9999  3.19816E-02  2.08662E+02 -1.00000E+00  1.10982E-01
      21    -1     0     0   502   501  0.000000000E+00  0.000000000E+00  2.650892265E+02  2.650892265E+02  0.000000000E+00  0.00000E+00  9.000E+00
      21    -1     0     0   511   502  0.000000000E+00  0.000000000E+00 -1.596672959E+03  1.596672959E+03  0.000000000E+00  0.00000E+00  9.000E+00
      25     1     1     2     0     0 -1.611672343E+02  4.166630829E+02 -2.626452924E+02  5.330952557E+02  1.250000000E+02  0.00000E+00  9.000E+00
      25     1     1     2     0     0  1.604764409E+01 -5.665967233E+02 -7.816000049E+02  9.735568506E+02  1.250000000E+02  0.00000E+00  9.000E+00
      21     1     1     2   511   501  1.451195902E+02  1.499336404E+02 -2.873384355E+02  3.551100794E+02  3.814697266E-06  0.00000E+00  9.000E+00
#rwgt            1           1   1.4782291931282245E-002           9      137413           0
</event>
<event>
      5   9999  3.19816E-02  5.34704E+01 -1.00000E+00  1.37433E-01
      21    -1     0     0   502   501  0.000000000E+00  0.000000000E+00  3.170082777E+02  3.170082777E+02  0.000000000E+00  0.00000E+00  9.000E+00
      21    -1     0     0   512   502  0.000000000E+00  0.000000000E+00 -2.520528236E+03  2.520528236E+03  0.000000000E+00  0.00000E+00  9.000E+00
      25     1     1     2     0     0  6.358518796E+02 -1.194181347E+02 -1.792119842E+02  6.828691229E+02  1.250000000E+02  0.00000E+00  9.000E+00
      25     1     1     2     0     0 -5.890014454E+02  9.364751323E+01 -1.384953345E+03  1.513080741E+03  1.250000000E+02  0.00000E+00  9.000E+00
      21     1     1     2   512   501 -4.685043425E+01  2.577062150E+01 -6.393546286E+02  6.415866498E+02  7.629394531E-06  0.00000E+00  9.000E+00
#rwgt            1           1   3.8002384973835499E-002           9      137473           0
</event>
<event>
      5   9999  3.19816E-02  4.10999E+01 -1.00000E+00  1.44113E-01
      21    -1     0     0   502   501  0.000000000E+00  0.000000000E+00  3.776881307E+02  3.776881307E+02  0.000000000E+00  0.00000E+00  9.000E+00
      21    -1     0     0   511   502  0.000000000E+00  0.000000000E+00 -6.398482610E+02  6.398482610E+02  0.000000000E+00  0.00000E+00  9.000E+00
      25     1     1     2     0     0  3.829768374E+02  1.178412153E+01 -3.897926142E+02  5.606901155E+02  1.250000000E+02  0.00000E+00  9.000E+00
      25     1     1     2     0     0 -3.425531862E+02 -1.920883790E+01  1.655490890E+02  4.009278809E+02  1.250000000E+02  0.00000E+00  9.000E+00
      21     1     1     2   511   501 -4.042365121E+01  7.424716366E+00 -3.791660505E+01  5.591839526E+01  4.768371582E-07  0.00000E+00  9.000E+00
#rwgt            1           1   2.7422113336937667E-002           9      137589           0
</event>
<event>
      5   9999  3.19816E-02  1.95591E+02 -1.00000E+00  1.12002E-01
      21    -1     0     0   502   501  0.000000000E+00  0.000000000E+00  8.950766621E+01  8.950766621E+01  0.000000000E+00  0.00000E+00  9.000E+00
       1    -1     0     0   501     0  0.000000000E+00  0.000000000E+00 -2.508152080E+03  2.508152080E+03  0.000000000E+00  0.00000E+00  9.000E+00
      25     1     1     2     0     0  1.603762303E+02  1.119351102E+02 -1.606604692E+02  2.822884881E+02  1.250000000E+02  0.00000E+00  9.000E+00
      25     1     1     2     0     0 -5.089127207E+01 -2.740119774E+02 -1.601575060E+03  1.630441707E+03  1.250000000E+02  0.00000E+00  9.000E+00
       1     1     1     2   502     0 -1.094849582E+02  1.620768672E+02 -6.564088840E+02  6.849295511E+02  7.629394531E-06  0.00000E+00  9.000E+00
#rwgt            1           1   3.5730800322948154E-002           9      137741           0
</event>
<event>
      5   9999  3.19816E-02  2.65207E+01 -1.00000E+00  1.56854E-01
      21    -1     0     0   502   511  0.000000000E+00  0.000000000E+00  9.601792349E+02  9.601792349E+02  0.000000000E+00  0.00000E+00  9.000E+00
      21    -1     0     0   501   502  0.000000000E+00  0.000000000E+00 -1.015347981E+02  1.015347981E+02  0.000000000E+00  0.00000E+00  9.000E+00
      25     1     1     2     0     0 -4.644720654E+01 -1.469097676E+02  3.902490197E+01  2.022072348E+02  1.250000000E+02  0.00000E+00  9.000E+00
      25     1     1     2     0     0  6.679154987E+01  1.639232072E+02  5.932177978E+02  6.315570320E+02  1.250000000E+02  0.00000E+00  9.000E+00
      21     1     1     2   501   511 -2.034434333E+01 -1.701343957E+01  2.264017369E+02  2.279497662E+02  2.697398305E-06  0.00000E+00  9.000E+00
#rwgt            1           1   2.5449221406147582E-002           9      137792           0
</event>
<event>
      5   9999  3.19816E-02  9.79721E+01 -1.00000E+00  1.24229E-01
      21    -1     0     0   512   501  0.000000000E+00  0.000000000E+00  7.715758955E+02  7.715758955E+02  0.000000000E+00  0.00000E+00  9.000E+00
      21    -1     0     0   501   502  0.000000000E+00  0.000000000E+00 -5.672061782E+02  5.672061782E+02  0.000000000E+00  0.00000E+00  9.000E+00
      25     1     1     2     0     0 -2.687789988E+02 -2.681773867E+02 -1.498829365E+01  4.000136371E+02  1.250000000E+02  0.00000E+00  9.000E+00
      25     1     1     2     0     0  1.869397191E+02  2.143177104E+02 -2.870519395E+02  4.229685042E+02  1.250000000E+02  0.00000E+00  9.000E+00
      21     1     1     2   512   502  8.183927967E+01  5.385967623E+01  5.064099504E+02  5.157999324E+02  5.394796609E-06  0.00000E+00  9.000E+00
#rwgt            2          11   3.5035987096861485E-003           9      138023           0
</event>
<event>
      5   9999  3.19816E-02  1.30210E+01 -1.00000E+00  1.83375E-01
      21    -1     0     0   502   501  0.000000000E+00  0.000000000E+00  6.135343797E+02  6.135343797E+02  0.000000000E+00  0.00000E+00  9.000E+00
      21    -1     0     0   501   511  0.000000000E+00  0.000000000E+00 -8.915084450E+02  8.915084450E+02  0.000000000E+00  0.00000E+00  9.000E+00
      25     1     1     2     0     0 -4.487622167E+01  2.597122307E+02  8.795919911E+00  2.918333193E+02  1.250000000E+02  0.00000E+00  9.000E+00
      25     1     1     2     0     0  3.198410623E+01 -2.615397899E+02  4.172514893E+02  5.090676282E+02  1.250000000E+02  0.00000E+00  9.000E+00
      21     1     1     2   502   511  1.289211544E+01  1.827559248E+00 -7.040214745E+02  7.041418771E+02  7.629394531E-06  0.00000E+00  9.000E+00
#rwgt            1           1   3.6704718159949204E-002           9      138058           0
</event>
<event>
      5   9999  3.19816E-02  7.57228E+01 -1.00000E+00  1.29515E-01
      21    -1     0     0   502   501  0.000000000E+00  0.000000000E+00  1.004141096E+02  1.004141096E+02  0.000000000E+00  0.00000E+00  9.000E+00
      21    -1     0     0   512   502  0.000000000E+00  0.000000000E+00 -1.129798554E+03  1.129798554E+03  0.000000000E+00  0.00000E+00  9.000E+00
      25     1     1     2     0     0 -1.766381213E+02  1.832345062E+02 -6.284190205E+02  6.894282961E+02  1.250000000E+02  0.00000E+00  9.000E+00
      25     1     1     2     0     0  1.015446675E+02 -1.929766636E+02 -1.854662144E+02  3.123684185E+02  1.250000000E+02  0.00000E+00  9.000E+00
      21     1     1     2   512   501  7.509345376E+01  9.742157441E+00 -2.154992097E+02  2.284159491E+02  2.697398305E-06  0.00000E+00  9.000E+00
#rwgt            1           1   2.9371004593721529E-002           9      138232           0
</event>
<event>
      5   9999  3.19816E-02  1.34323E+02 -1.00000E+00  1.18326E-01
       1    -1     0     0   502     0  0.000000000E+00  0.000000000E+00  1.737485075E+03  1.737485075E+03  0.000000000E+00  0.00000E+00  9.000E+00
      21    -1     0     0   501   502  0.000000000E+00  0.000000000E+00 -3.268777366E+02  3.268777366E+02  0.000000000E+00  0.00000E+00  9.000E+00
      25     1     1     2     0     0 -2.620373970E+01 -3.430940061E+01 -2.573232519E+02  2.893164823E+02  1.250000000E+02  0.00000E+00  9.000E+00
      25     1     1     2     0     0  1.427412996E+02  1.011044934E+02  1.781219355E+02  2.791945936E+02  1.250000000E+02  0.00000E+00  9.000E+00
       1     1     1     2   501     0 -1.165375599E+02 -6.679509276E+01  1.489808654E+03  1.495851735E+03  0.000000000E+00  0.00000E+00  9.000E+00
#rwgt            2          17   1.8962174323376348E-003           9      138325           0
</event>
<event>
      5   9999  3.19816E-02  1.78853E+02 -1.00000E+00  1.13444E-01
      21    -1     0     0   502   501  0.000000000E+00  0.000000000E+00  4.152212964E+02  4.152212964E+02  0.000000000E+00  0.00000E+00  9.000E+00
      21    -1     0     0   501   511  0.000000000E+00  0.000000000E+00 -6.254392208E+02  6.254392208E+02  0.000000000E+00  0.00000E+00  9.000E+00
      25     1     1     2     0     0 -5.653904323E+01 -3.460798733E+02 -1.178500233E+02  3.904888860E+02  1.250000000E+02  0.00000E+00  9.000E+00
      25     1     1     2     0     0 -1.182180549E+02  3.841365942E+02  4.687388905E+01  4.235074887E+02  1.250000000E+02  0.00000E+00  9.000E+00
      21     1     1     2   502   511  1.747570982E+02 -3.805672086E+01 -1.392417902E+02  2.266641425E+02  2.697398305E-06  0.00000E+00  9.000E+00
#rwgt            1           1   2.8298519052178166E-002           9      138344           0
</event>
<event>
      5   9999  3.19816E-02  8.62718E+01 -1.00000E+00  1.26783E-01
       1    -1     0     0   502     0  0.000000000E+00  0.000000000E+00  6.298825451E+02  6.298825451E+02  0.000000000E+00  0.00000E+00  9.000E+00
      21    -1     0     0   501   502  0.000000000E+00  0.000000000E+00 -1.140044603E+03  1.140044603E+03  0.000000000E+00  0.00000E+00  9.000E+00
      25     1     1     2     0     0 -5.278915086E+02  3.826483739E+02 -6.117097684E+02  9.027198146E+02  1.250000000E+02  0.00000E+00  9.000E+00
      25     1     1     2     0     0  5.516830674E+02 -2.997220050E+02 -1.000393316E+02  6.479354559E+02  1.250000000E+02  0.00000E+00  9.000E+00
       1     1     1     2   501     0 -2.379155877E+01 -8.292636885E+01  2.015870419E+02  2.192718778E+02  2.697398305E-06  0.00000E+00  9.000E+00
#rwgt            1           1   2.6813781760468464E-002           9      138402           0
</event>
<event>
      5   9999  3.19816E-02  1.31700E+01 -1.00000E+00  1.82878E-01
      21    -1     0     0   502   501  0.000000000E+00  0.000000000E+00  2.074443156E+02  2.074443156E+02  0.000000000E+00  0.00000E+00  9.000E+00
      21    -1     0     0   501   511  0.000000000E+00  0.000000000E+00 -3.436215853E+02  3.436215853E+02  0.000000000E+00  0.00000E+00  9.000E+00
      25     1     1     2     0     0  1.781336169E+02 -1.310531300E+02 -1.291234369E+01  2.543584812E+02  1.250000000E+02  0.00000E+00  9.000E+00
      25     1     1     2     0     0 -1.846561922E+02  1.196117669E+02 -1.044728681E+02  2.737598660E+02  1.250000000E+02  0.00000E+00  9.000E+00
      21     1     1     2   502   511  6.522575297E+00  1.144136308E+01 -1.879205800E+01  2.294755371E+01  2.384185791E-07  0.00000E+00  9.000E+00
#rwgt            1           1   2.7839536372487702E-002           9      138531           0
</event>
<event>
      5   9999  3.19816E-02  2.95888E+01 -1.00000E+00  1.53457E-01
      21    -1     0     0   502   501  0.000000000E+00  0.000000000E+00  1.089673012E+03  1.089673012E+03  0.000000000E+00  0.00000E+00  9.000E+00
       2    -1     0     0   501     0  0.000000000E+00  0.000000000E+00 -1.576783388E+03  1.576783388E+03  0.000000000E+00  0.00000E+00  9.000E+00
      25     1     1     2     0     0  7.855579714E+01  8.163770453E+02  6.866112404E+02  1.076894836E+03  1.250000000E+02  0.00000E+00  9.000E+00
      25     1     1     2     0     0 -9.117616584E+01 -8.431394196E+02 -6.779390937E+02  1.092896879E+03  1.250000000E+02  0.00000E+00  9.000E+00
       2     1     1     2   502     0  1.262036871E+01  2.676237436E+01 -4.957825230E+02  4.966646842E+02  7.629394531E-06  0.00000E+00  9.000E+00
#rwgt            1           1   2.7266553573356604E-002           9      138733           0
</event>
<event>
      5   9999  3.19816E-02  5.42446E+01 -1.00000E+00  1.37086E-01
      21    -1     0     0   502   501  0.000000000E+00  0.000000000E+00  2.553831672E+03  2.553831672E+03  0.000000000E+00  0.00000E+00  9.000E+00
      21    -1     0     0   511   502  0.000000000E+00  0.000000000E+00 -9.975849210E+01  9.975849210E+01  0.000000000E+00  0.00000E+00  9.000E+00
      25     1     1     2     0     0 -1.289944604E+02  8.412220725E+01  2.381153190E+03  2.389399848E+03  1.250000000E+02  0.00000E+00  9.000E+00
      25     1     1     2     0     0  7.502386545E+01 -8.956726865E+01 -2.704037987E+00  1.711233117E+02  1.250000000E+02  0.00000E+00  9.000E+00
      21     1     1     2   511   501  5.397059496E+01  5.445061400E+00  7.562402781E+01  9.306700487E+01  1.348699152E-06  0.00000E+00  9.000E+00
#rwgt            1           1   7.1053971915068431E-002           9      138867           0
</event>
<event>
      5   9999  3.19816E-02  6.30884E+01 -1.00000E+00  1.33549E-01
      21    -1     0     0   502   512  0.000000000E+00  0.000000000E+00  3.364427267E+03  3.364427267E+03  0.000000000E+00  0.00000E+00  9.000E+00
      21    -1     0     0   501   502  0.000000000E+00  0.000000000E+00 -2.187903510E+02  2.187903510E+02  0.000000000E+00  0.00000E+00  9.000E+00
      25     1     1     2     0     0 -2.768310752E+02 -2.526871882E+02  2.301538829E+01  3.957789375E+02  1.250000000E+02  0.00000E+00  9.000E+00
      25     1     1     2     0     0  2.188557888E+02  2.775672627E+02  1.068858762E+03  1.132707153E+03  1.250000000E+02  0.00000E+00  9.000E+00
      21     1     1     2   501   512  5.797528634E+01 -2.488007445E+01  2.053762766E+03  2.054731527E+03  0.000000000E+00  0.00000E+00  9.000E+00
#rwgt            1           1   3.6066015660246968E-002           9      138993           0
</event>
<event>
      5   9999  3.19816E-02  1.52848E+02 -1.00000E+00  1.16071E-01
      21    -1     0     0   502   501  0.000000000E+00  0.000000000E+00  9.831772592E+02  9.831772592E+02  0.000000000E+00  0.00000E+00  9.000E+00
      21    -1     0     0   501   511  0.000000000E+00  0.000000000E+00 -8.319456396E+01  8.319456396E+01  0.000000000E+00  0.00000E+00  9.000E+00
      25     1     1     2     0     0  1.674612495E+02  6.422084840E+01  4.568439539E+02  5.064572891E+02  1.250000000E+02  0.00000E+00  9.000E+00
      25     1     1     2     0     0 -1.535830369E+01 -4.914961729E+01  3.629471852E+02  3.873076575E+02  1.250000000E+02  0.00000E+00  9.000E+00
      21     1     1     2   502   511 -1.521029458E+02 -1.507123111E+01  8.019155614E+01  1.726068765E+02  2.697398305E-06  0.00000E+00  9.000E+00
#rwgt            2          11   9.2763511315235199E-003           9      139161           0
</event>
<event>
      5   9999  3.19816E-02  3.94972E+01 -1.00000E+00  1.45182E-01
      21    -1     0     0   502   501  0.000000000E+00  0.000000000E+00  3.302851717E+02  3.302851717E+02  0.000000000E+00  0.00000E+00  9.000E+00
      21    -1     0     0   512   502  0.000000000E+00  0.000000000E+00 -8.856131312E+02  8.856131312E+02  0.000000000E+00  0.00000E+00  9.000E+00
      25     1     1     2     0     0  1.756365308E+02  7.697789480E+01 -3.273173273E+02  3.994188529E+02  1.250000000E+02  0.00000E+00  9.000E+00
      25     1     1     2     0     0 -2.151227853E+02 -7.790652707E+01  2.354756528E+02  3.513132829E+02  1.250000000E+02  0.00000E+00  9.000E+00
      21     1     1     2   512   501  3.948625444E+01  9.286322736E-01 -4.634862850E+02  4.651661671E+02  5.394796609E-06  0.00000E+00  9.000E+00
#rwgt            1           1   3.1740208673847463E-002           9      139181           0
</event>
<event>
      5   9999  3.19816E-02  1.97814E+01 -1.00000E+00  1.66764E-01
      21    -1     0     0   502   501  0.000000000E+00  0.000000000E+00  6.269139413E+02  6.269139413E+02  0.000000000E+00  0.00000E+00  9.000E+00
      21    -1     0     0   501   511  0.000000000E+00  0.000000000E+00 -4.618006334E+02  4.618006334E+02  0.000000000E+00  0.00000E+00  9.000E+00
      25     1     1     2     0     0  2.441061545E+02  3.810031538E+02  2.960913139E+02  5.550191745E+02  1.250000000E+02  0.00000E+00  9.000E+00
      25     1     1     2     0     0 -2.254919085E+02 -3.876973661E+02 -7.155160100E+01  4.710631381E+02  1.250000000E+02  0.00000E+00  9.000E+00
      21     1     1     2   502   511 -1.861424602E+01  6.694212305E+00 -5.942640506E+01  6.263226207E+01  9.536743164E-07  0.00000E+00  9.000E+00
#rwgt            1           1   2.9383150468849539E-002           9      139317           0
</event>
<event>
      5   9999  3.19816E-02  5.22150E+01 -1.00000E+00  1.38010E-01
      21    -1     0     0   502   501  0.000000000E+00  0.000000000E+00  8.776480848E+02  8.776480848E+02  0.000000000E+00  0.00000E+00  9.000E+00
      21    -1     0     0   501   512  0.000000000E+00  0.000000000E+00 -2.112994052E+03  2.112994052E+03  0.000000000E+00  0.00000E+00  9.000E+00
      25     1     1     2     0     0  1.273743076E+03  9.109527752E+01 -2.994950088E+02  1.317589478E+03  1.250000000E+02  0.00000E+00  9.000E+00
      25     1     1     2     0     0 -1.289605622E+03 -1.408425278E+02 -8.042155686E+02  1.531439506E+03  1.250000000E+02  0.00000E+00  9.000E+00
      21     1     1     2   502   512  1.586254670E+01  4.974725028E+01 -1.316353899E+02  1.416131533E+02  2.697398305E-06  0.00000E+00  9.000E+00
#rwgt            1           1   5.7072568695439058E-002           9      139485           0
</event>
<event>
      5   9999  3.19816E-02  1.79633E+02 -1.00000E+00  1.13373E-01
      21    -1     0     0   502   501  0.000000000E+00  0.000000000E+00  2.883503250E+02  2.883503250E+02  0.000000000E+00  0.00000E+00  9.000E+00
      21    -1     0     0   511   502  0.000000000E+00  0.000000000E+00 -1.563042112E+03  1.563042112E+03  0.000000000E+00  0.00000E+00  9.000E+00
      25     1     1     2     0     0 -1.182351075E+02  1.832097392E+02  2.142195486E+02  3.302428867E+02  1.250000000E+02  0.00000E+00  9.000E+00
      25     1     1     2     0     0  8.523012942E+00 -4.097339254E+01 -6.156763417E+02  6.296299059E+02  1.250000000E+02  0.00000E+00  9.000E+00
      21     1     1     2   511   501  1.097120946E+02 -1.422363466E+02 -8.732349936E+02  8.915196443E+02  1.078959322E-05  0.00000E+00  9.000E+00
#rwgt            1           1   3.2371056407693499E-002           9      139661           0
</event>
<event>
      5   9999  3.19816E-02  4.58946E+01 -1.00000E+00  1.41232E-01
      21    -1     0     0   502   512  0.000000000E+00  0.000000000E+00  5.529219520E+02  5.529219520E+02  0.000000000E+00  0.00000E+00  9.000E+00
      21    -1     0     0   501   502  0.000000000E+00  0.000000000E+00 -6.651043937E+02  6.651043937E+02  0.000000000E+00  0.00000E+00  9.000E+00
      25     1     1     2     0     0 -2.092144556E+01 -8.723609474E+01  4.588089676E+01  1.605549744E+02  1.250000000E+02  0.00000E+00  9.000E+00
      25     1     1     2     0     0 -2.466247888E+01  9.256756178E+01 -5.963469281E+02  6.167914153E+02  1.250000000E+02  0.00000E+00  9.000E+00
      21     1     1     2   501   512  4.558392444E+01 -5.331467048E+00  4.382835896E+02  4.406799560E+02  0.000000000E+00  0.00000E+00  9.000E+00
#rwgt            1           1   3.3440029932398890E-002           9      139742           0
</event>
<event>
      5   9999  3.19816E-02  8.18133E+01 -1.00000E+00  1.27880E-01
      21    -1     0     0   502   501  0.000000000E+00  0.000000000E+00  8.848580553E+02  8.848580553E+02  0.000000000E+00  0.00000E+00  9.000E+00
      21    -1     0     0   501   511  0.000000000E+00  0.000000000E+00 -5.001681103E+02  5.001681103E+02  0.000000000E+00  0.00000E+00  9.000E+00
      25     1     1     2     0     0  8.168351254E+01  7.387912641E+01 -2.786677637E+02  3.246706701E+02  1.250000000E+02  0.00000E+00  9.000E+00
      25     1     1     2     0     0 -9.587928540E+01  6.693192091E+00  8.458194190E+02  8.603912632E+02  1.250000000E+02  0.00000E+00  9.000E+00
      21     1     1     2   502   511  1.419577286E+01 -8.057231850E+01 -1.824617103E+02  1.999642323E+02  2.697398305E-06  0.00000E+00  9.000E+00
#rwgt            1           1   3.0545764051501171E-002           9      139805           0
</event>
<event>
      5   9999  3.19816E-02  1.14190E+02 -1.00000E+00  1.21290E-01
      21    -1     0     0   512   501  0.000000000E+00  0.000000000E+00  4.160037120E+02  4.160037120E+02  0.000000000E+00  0.00000E+00  9.000E+00
      21    -1     0     0   501   502  0.000000000E+00  0.000000000E+00 -6.605274186E+02  6.605274186E+02  0.000000000E+00  0.00000E+00  9.000E+00
      25     1     1     2     0     0 -4.529935366E+02 -9.154269528E+01 -2.658732210E+02  5.476283219E+02  1.250000000E+02  0.00000E+00  9.000E+00
      25     1     1     2     0     0  3.415807228E+02  1.165741942E+02 -6.275986945E+01  3.870797517E+02  1.250000000E+02  0.00000E+00  9.000E+00
      21     1     1     2   512   502  1.114128138E+02 -2.503149897E+01  8.410938391E+01  1.418230569E+02  1.651812370E-06  0.00000E+00  9.000E+00
#rwgt            1           1   3.2019132823684911E-002           9      139894           0
</event>
<event>
      5   9999  3.19816E-02  5.18297E+01 -1.00000E+00  1.38191E-01
      21    -1     0     0   502   501  0.000000000E+00  0.000000000E+00  1.344199096E+02  1.344199096E+02  0.000000000E+00  0.00000E+00  9.000E+00
      21    -1     0     0   511   502  0.000000000E+00  0.000000000E+00 -3.827954116E+02  3.827954116E+02  0.000000000E+00  0.00000E+00  9.000E+00
      25     1     1     2     0     0  1.070956335E+02 -6.244314658E+01 -1.360753224E+02  2.225086844E+02  1.250000000E+02  0.00000E+00  9.000E+00
      25     1     1     2     0     0 -6.122079853E+01  8.656398932E+01  7.598005354E+00  1.640854659E+02  1.250000000E+02  0.00000E+00  9.000E+00
      21     1     1     2   511   501 -4.587483493E+01 -2.412084274E+01 -1.198981850E+02  1.306211710E+02  2.336015456E-06  0.00000E+00  9.000E+00
#rwgt            1           1   2.6920704130974908E-002           9      139956           0
</event>
<event>
      5   9999  3.19816E-02  6.84437E+01 -1.00000E+00  1.31717E-01
      21    -1     0     0   502   501  0.000000000E+00  0.000000000E+00  1.452124919E+03  1.452124919E+03  0.000000000E+00  0.00000E+00  9.000E+00
      21    -1     0     0   501   512  0.000000000E+00  0.000000000E+00 -1.005681096E+03  1.005681096E+03  0.000000000E+00  0.00000E+00  9.000E+00
      25     1     1     2     0     0 -6.722071062E+02 -9.419564656E+02  3.126554474E+02  1.205206541E+03  1.250000000E+02  0.00000E+00  9.000E+00
      25     1     1     2     0     0  6.070606826E+02  9.209687106E+02  2.308302420E+02  1.133849037E+03  1.250000000E+02  0.00000E+00  9.000E+00
      21     1     1     2   502   512  6.514642360E+01  2.098775500E+01 -9.704186689E+01  1.187504370E+02  1.907348633E-06  0.00000E+00  9.000E+00
#rwgt            1           1   2.4643539941982540E-002           9      140004           0
</event>
<event>
      5   9999  3.19816E-02  3.23096E+02 -1.00000E+00  1.04556E-01
      21    -1     0     0   502   501  0.000000000E+00  0.000000000E+00  7.081925536E+02  7.081925536E+02  0.000000000E+00  0.00000E+00  9.000E+00
       1    -1     0     0   501     0  0.000000000E+00  0.000000000E+00 -5.143089307E+02  5.143089307E+02  0.000000000E+00  0.00000E+00  9.000E+00
      25     1     1     2     0     0  9.897767204E+01 -3.312408033E+02  1.035294023E+02  3.819167272E+02  1.250000000E+02  0.00000E+00  9.000E+00
      25     1     1     2     0     0 -1.821555508E+02  1.903529140E+01  3.579484226E+02  4.210641997E+02  1.250000000E+02  0.00000E+00  9.000E+00
       1     1     1     2   502     0  8.317787874E+01  3.122055119E+02 -2.675942020E+02  4.195205575E+02  3.814697266E-06  0.00000E+00  9.000E+00
#rwgt            2          12   4.6546714730060353E-004           9      140165           0
</event>
<event>
      5   9999  3.19816E-02  4.33824E+01 -1.00000E+00  1.42687E-01
      21    -1     0     0   502   501  0.000000000E+00  0.000000000E+00  2.635496952E+02  2.635496952E+02  0.000000000E+00  0.00000E+00  9.000E+00
      21    -1     0     0   511   502  0.000000000E+00  0.000000000E+00 -3.540113504E+02  3.540113504E+02  0.000000000E+00  0.00000E+00  9.000E+00
      25     1     1     2     0     0 -1.919202467E+02  1.385198884E+02 -1.577672252E+02  3.107034565E+02  1.250000000E+02  0.00000E+00  9.000E+00
      25     1     1     2     0     0  1.488396816E+02 -1.334110641E+02  9.632189944E+01  2.546658029E+02  1.250000000E+02  0.00000E+00  9.000E+00
      21     1     1     2   511   501  4.308056504E+01 -5.108824354E+00 -2.901632945E+01  5.219178618E+01  6.743495762E-07  0.00000E+00  9.000E+00
#rwgt            1           1   2.7862659497643761E-002           9      140184           0
</event>
<event>
      5   9999  3.19816E-02  1.02710E+01 -1.00000E+00  1.94424E-01
      21    -1     0     0   502   501  0.000000000E+00  0.000000000E+00  3.939062663E+01  3.939062663E+01  0.000000000E+00  0.00000E+00  9.000E+00
      21    -1     0     0   501   512  0.000000000E+00  0.000000000E+00 -2.600052211E+03  2.600052211E+03  0.000000000E+00  0.00000E+00  9.000E+00
      25     1     1     2     0     0  8.148492814E+01 -1.031691294E+02 -6.971636100E+02  7.203789016E+02  1.250000000E+02  0.00000E+00  9.000E+00
      25     1     1     2     0     0 -7.439923361E+01  9.573370339E+01 -2.452690573E+02  3.008024242E+02  1.250000000E+02  0.00000E+00  9.000E+00
      21     1     1     2   502   512 -7.085694526E+00  7.435426037E+00 -1.618228917E+03  1.618261512E+03  0.000000000E+00  0.00000E+00  9.000E+00
#rwgt            1           1   2.6008456397540299E-002           9      140247           0
</event>
<event>
      5   9999  3.19816E-02  4.10431E+01 -1.00000E+00  1.44150E-01
      21    -1     0     0   511   501  0.000000000E+00  0.000000000E+00  1.421515771E+02  1.421515771E+02  0.000000000E+00  0.00000E+00  9.000E+00
      21    -1     0     0   501   502  0.000000000E+00  0.000000000E+00 -4.063686351E+02  4.063686351E+02  0.000000000E+00  0.00000E+00  9.000E+00
      25     1     1     2     0     0  8.088175974E+00 -3.885937576E+01 -7.959889716E+01  1.534159513E+02  1.250000000E+02  0.00000E+00  9.000E+00
      25     1     1     2     0     0 -2.190636868E+01  7.750637704E+01 -2.655557392E+02  3.043550198E+02  1.250000000E+02  0.00000E+00  9.000E+00
      21     1     1     2   511   502  1.381819270E+01 -3.864700128E+01  8.093757840E+01  9.074924107E+01  2.132480600E-06  0.00000E+00  9.000E+00
#rwgt            1           1   5.9353133997967274E-002           9      140393           0
</event>
<event>
      5   9999  3.19816E-02  5.50874E+01 -1.00000E+00  1.36716E-01
      21    -1     0     0   512   501  0.000000000E+00  0.000000000E+00  1.067912638E+02  1.067912638E+02  0.000000000E+00  0.00000E+00  9.000E+00
      21    -1     0     0   501   502  0.000000000E+00  0.000000000E+00 -5.871527796E+02  5.871527796E+02  0.000000000E+00  0.00000E+00  9.000E+00
      25     1     1     2     0     0  8.620598783E+01  1.467210136E+02 -2.429693398E+02  3.218969218E+02  1.250000000E+02  0.00000E+00  9.000E+00
      25     1     1     2     0     0 -1.202175374E+02 -1.033870357E+02 -2.438420384E+02  3.165834410E+02  1.250000000E+02  0.00000E+00  9.000E+00
      21     1     1     2   512   502  3.401154952E+01 -4.333397793E+01  6.449862360E+00  5.546368063E+01  2.920019320E-07  0.00000E+00  9.000E+00
#rwgt            1           1   3.2157563315903109E-002           9      140471           0
</event>
<event>
      5   9999  3.19816E-02  3.32315E+01 -1.00000E+00  1.50017E-01
      21    -1     0     0   502   511  0.000000000E+00  0.000000000E+00  1.491179729E+03  1.491179729E+03  0.000000000E+00  0.00000E+00  9.000E+00
      21    -1     0     0   501   502  0.000000000E+00  0.000000000E+00 -3.343630139E+02  3.343630139E+02  0.000000000E+00  0.00000E+00  9.000E+00
      25     1     1     2     0     0 -4.037515630E+02 -4.082471639E+01  1.942222354E+02  4.669360329E+02  1.250000000E+02  0.00000E+00  9.000E+00
      25     1     1     2     0     0  3.820876712E+02  6.602410637E+01  1.215019488E+01  4.075816462E+02  1.250000000E+02  0.00000E+00  9.000E+00
      21     1     1     2   501   511  2.166389181E+01 -2.519938998E+01  9.504442845E+02  9.510250635E+02  1.525878906E-05  0.00000E+00  9.000E+00
#rwgt            1           1   3.0150870058128880E-002           9      140564           0
</event>
<event>
      5   9999  3.19816E-02  7.02116E+02 -1.00000E+00  9.48364E-02
      21    -1     0     0   502   501  0.000000000E+00  0.000000000E+00  3.462059122E+02  3.462059122E+02  0.000000000E+00  0.00000E+00  9.000E+00
       1    -1     0     0   501     0  0.000000000E+00  0.000000000E+00 -1.840598924E+03  1.840598924E+03  0.000000000E+00  0.00000E+00  9.000E+00
      25     1     1     2     0     0  1.858052387E+01 -4.660311401E+02 -7.503712943E+02  8.923073119E+02  1.250000000E+02  0.00000E+00  9.000E+00
      25     1     1     2     0     0 -2.763044822E+02 -1.870734162E+02 -2.257464507E+02  4.218140466E+02  1.250000000E+02  0.00000E+00  9.000E+00
       1     1     1     2   502     0  2.577239584E+02  6.531045563E+02 -5.182752668E+02  8.726834777E+02  1.525878906E-05  0.00000E+00  9.000E+00
#rwgt            1           1   2.8072006631166140E-002           9      140696           0
</event>
<event>
      5   9999  3.19816E-02  7.34355E+01 -1.00000E+00  1.30175E-01
      21    -1     0     0   511   501  0.000000000E+00  0.000000000E+00  1.214845283E+02  1.214845283E+02  0.000000000E+00  0.00000E+00  9.000E+00
      21    -1     0     0   501   502  0.000000000E+00  0.000000000E+00 -8.390375835E+02  8.390375835E+02  0.000000000E+00  0.00000E+00  9.000E+00
      25     1     1     2     0     0 -1.735324339E+02 -1.757963136E+02 -2.300561400E+02  3.599564932E+02  1.250000000E+02  0.00000E+00  9.000E+00
      25     1     1     2     0     0  2.157241889E+02  1.156911077E+02 -4.117939887E+02  4.950966039E+02  1.250000000E+02  0.00000E+00  9.000E+00
      21     1     1     2   511   502 -4.219175504E+01  6.010520593E+01 -7.570292647E+01  1.054690146E+02  9.536743164E-07  0.00000E+00  9.000E+00
#rwgt            1           1   3.2905936137036157E-002           9      140738           0
</event>
<event>
      5   9999  3.19816E-02  1.21545E+02 -1.00000E+00  1.20133E-01
       1    -1     0     0   502     0  0.000000000E+00  0.000000000E+00  1.692190834E+03  1.692190834E+03  0.000000000E+00  0.00000E+00  9.000E+00
      21    -1     0     0   501   502  0.000000000E+00  0.000000000E+00 -4.258444693E+02  4.258444693E+02  0.000000000E+00  0.00000E+00  9.000E+00
      25     1     1     2     0     0  1.649715634E+02  2.447341920E+02  3.641614459E+02  4.851278183E+02  1.250000000E+02  0.00000E+00  9.000E+00
      25     1     1     2     0     0 -6.178855663E+01 -3.089709506E+02 -2.829536738E+02  4.415525513E+02  1.250000000E+02  0.00000E+00  9.000E+00
       1     1     1     2   501     0 -1.031830068E+02  6.423675862E+01  1.185138593E+03  1.191354934E+03  1.525878906E-05  0.00000E+00  9.000E+00
#rwgt            1           1   2.9055775664151639E-002           9      140798           0
</event>
<event>
      5   9999  3.19816E-02  8.73356E+01 -1.00000E+00  1.26532E-01
      -3    -1     0     0     0   501  0.000000000E+00  0.000000000E+00  7.392966819E+02  7.392966819E+02  0.000000000E+00  0.00000E+00  9.000E+00
      21    -1     0     0   501   502  0.000000000E+00  0.000000000E+00 -5.333935688E+02  5.333935688E+02  0.000000000E+00  0.00000E+00  9.000E+00
      25     1     1     2     0     0  2.404940621E+02  2.847980867E+01  5.189577600E+02  5.861660601E+02  1.250000000E+02  0.00000E+00  9.000E+00
      25     1     1     2     0     0 -3.272243576E+02 -1.821513474E+01 -4.208062389E+02  5.478233858E+02  1.250000000E+02  0.00000E+00  9.000E+00
      -3     1     1     2     0   502  8.673029549E+01 -1.026467393E+01  1.077515920E+02  1.387008049E+02  2.336015456E-06  0.00000E+00  9.000E+00
#rwgt            1           1   2.3933836433108004E-002           9      140878           0
</event>
<event>
      5   9999  3.19816E-02  2.82721E+02 -1.00000E+00  1.06436E-01
      -2    -1     0     0     0   501  0.000000000E+00  0.000000000E+00  1.832558407E+02  1.832558407E+02  0.000000000E+00  0.00000E+00  9.000E+00
      21    -1     0     0   501   502  0.000000000E+00  0.000000000E+00 -1.805955316E+03  1.805955316E+03  0.000000000E+00  0.00000E+00  9.000E+00
      25     1     1     2     0     0 -1.663936714E+02 -2.032960200E+02 -1.317064337E+03  1.348814144E+03  1.250000000E+02  0.00000E+00  9.000E+00
      25     1     1     2     0     0 -1.161163635E+02  1.923770544E+02 -2.364781561E+02  3.493406063E+02  1.250000000E+02  0.00000E+00  9.000E+00
      -2     1     1     2     0   502  2.825100349E+02  1.091896560E+01 -6.915698171E+01  2.910564065E+02  8.368458164E-06  0.00000E+00  9.000E+00
#rwgt            1           1   3.8088647721327362E-002           9      141044           0
</event>
<event>
      5   9999  3.19816E-02  2.01814E+02 -1.00000E+00  1.11505E-01
      21    -1     0     0   511   501  0.000000000E+00  0.000000000E+00  1.716373828E+03  1.716373828E+03  0.000000000E+00  0.00000E+00  9.000E+00
      21    -1     0     0   501   502  0.000000000E+00  0.000000000E+00 -1.186334731E+02  1.186334731E+02  0.000000000E+00  0.00000E+00  9.000E+00
      25     1     1     2     0     0 -3.390922312E+00 -3.247203413E+02  9.537158951E+02  1.015211213E+03  1.250000000E+02  0.00000E+00  9.000E+00
      25     1     1     2     0     0 -1.310863260E+02  1.742381635E+02  1.667785470E+02  3.016332976E+02  1.250000000E+02  0.00000E+00  9.000E+00
      21     1     1     2   511   502  1.344772483E+02  1.504821778E+02  4.772459128E+02  5.181627905E+02  0.000000000E+00  0.00000E+00  9.000E+00
#rwgt            1           1   2.8749455563821930E-002           9      141086           0
</event>
<event>
      5   9999  3.19816E-02  2.83098E+02 -1.00000E+00  1.06417E-01
      -3    -1     0     0     0   501  0.000000000E+00  0.000000000E+00  4.794510134E+02  4.794510134E+02  0.000000000E+00  0.00000E+00  9.000E+00
      21    -1     0     0   501   502  0.000000000E+00  0.000000000E+00 -3.878164345E+02  3.878164345E+02  0.000000000E+00  0.00000E+00  9.000E+00
      25     1     1     2     0     0 -2.205166768E+01 -6.078798524E+01  1.710789141E+02  2.215275379E+02  1.250000000E+02  0.00000E+00  9.000E+00
      25     1     1     2     0     0  2.939186683E+02 -1.815949086E+01 -1.509732108E+02  3.537454750E+02  1.250000000E+02  0.00000E+00  9.000E+00
      -3     1     1     2     0   502 -2.718670007E+02  7.894747610E+01  7.152887556E+01  2.919944350E+02  5.046370146E-06  0.00000E+00  9.000E+00
#rwgt            1           1   2.9308302690111299E-002           9      141118           0
</event>
<event>
      5   9999  3.19816E-02  2.62184E+02 -1.00000E+00  1.07529E-01
      21    -1     0     0   502   501  0.000000000E+00  0.000000000E+00  3.384886291E+02  3.384886291E+02  0.000000000E+00  0.00000E+00  9.000E+00
      21    -1     0     0   501   511  0.000000000E+00  0.000000000E+00 -4.195802054E+02  4.195802054E+02  0.000000000E+00  0.00000E+00  9.000E+00
      25     1     1     2     0     0 -1.909754738E+02  1.678342731E+01  1.197602709E+02  2.583037698E+02  1.250000000E+02  0.00000E+00  9.000E+00
      25     1     1     2     0     0 -3.769007647E+01  1.114838156E+02 -3.689281475E+00  1.717201031E+02  1.250000000E+02  0.00000E+00  9.000E+00
      21     1     1     2   502   511  2.286655503E+02 -1.282672430E+02 -1.971625657E+02  3.280449616E+02  5.394796609E-06  0.00000E+00  9.000E+00
#rwgt            1           1   2.0141022105010148E-002           9      141155           0
</event>
<event>
      5   9999  3.19816E-02  9.33857E+01 -1.00000E+00  1.25180E-01
       1    -1     0     0   502     0  0.000000000E+00  0.000000000E+00  1.073494521E+03  1.073494521E+03  0.000000000E+00  0.00000E+00  9.000E+00
      21    -1     0     0   501   502  0.000000000E+00  0.000000000E+00 -8.362386862E+01  8.362386862E+01  0.000000000E+00  0.00000E+00  9.000E+00
      25     1     1     2     0     0 -1.745497131E+02  4.298440702E+01  4.152647140E+02  4.694518551E+02  1.250000000E+02  0.00000E+00  9.000E+00
      25     1     1     2     0     0  2.529001776E+02  7.829969670E+00  3.981788267E+02  4.880483443E+02  1.250000000E+02  0.00000E+00  9.000E+00
       1     1     1     2   501     0 -7.835046449E+01 -5.081437669E+01  1.764271121E+02  1.996181907E+02  3.303624740E-06  0.00000E+00  9.000E+00
#rwgt            1           1   2.6820120890817555E-002           9      141267           0
</event>
<event>
      5   9999  3.19816E-02  1.76753E+02 -1.00000E+00  1.13637E-01
      21    -1     0     0   502   501  0.000000000E+00  0.000000000E+00  5.240968291E+02  5.240968291E+02  0.000000000E+00  0.00000E+00  9.000E+00
      21    -1     0     0   501   511  0.000000000E+00  0.000000000E+00 -2.317593005E+02  2.317593005E+02  0.000000000E+00  0.00000E+00  9.000E+00
      25     1     1     2     0     0  2.139971986E+01  4.157162360E+01  1.554029914E+02  2.048444230E+02  1.250000000E+02  0.00000E+00  9.000E+00
      25     1     1     2     0     0 -1.552009766E+02 -1.570650947E+02  2.375907000E+02  3.476077212E+02  1.250000000E+02  0.00000E+00  9.000E+00
      21     1     1     2   502   511  1.338012567E+02  1.154934711E+02 -1.006561628E+02  2.034039854E+02  0.000000000E+00  0.00000E+00  9.000E+00
#rwgt            1           1   2.1683169829455375E-002           9      141336           0
</event>
<event>
      5   9999  3.19816E-02  4.43964E+01 -1.00000E+00  1.42086E-01
      21    -1     0     0   512   501  0.000000000E+00  0.000000000E+00  1.323716632E+03  1.323716632E+03  0.000000000E+00  0.00000E+00  9.000E+00
      21    -1     0     0   501   502  0.000000000E+00  0.000000000E+00 -4.910141758E+01  4.910141758E+01  0.000000000E+00  0.00000E+00  9.000E+00
      25     1     1     2     0     0 -2.155700595E+01  4.800960741E+01  6.703424237E+01  1.512885209E+02  1.250000000E+02  0.00000E+00  9.000E+00
      25     1     1     2     0     0 -2.203398244E+01 -5.642790485E+01  8.645840148E+02  8.756712417E+02  1.250000000E+02  0.00000E+00  9.000E+00
      21     1     1     2   512   502  4.359098839E+01  8.418297435E+00  3.429969571E+02  3.458582869E+02  6.607249480E-06  0.00000E+00  9.000E+00
#rwgt            1           1   3.1608629236589282E-002           9      141385           0
</event>
<event>
      5   9999  3.19816E-02  7.69618E+01 -1.00000E+00  1.29169E-01
      21    -1     0     0   502   511  0.000000000E+00  0.000000000E+00  9.157468964E+02  9.157468964E+02  0.000000000E+00  0.00000E+00  9.000E+00
      21    -1     0     0   501   502  0.000000000E+00  0.000000000E+00 -9.744379183E+02  9.744379183E+02  0.000000000E+00  0.00000E+00  9.000E+00
      25     1     1     2     0     0  4.951608724E+02 -6.257097333E+02  1.561683181E+02  8.226241569E+02  1.250000000E+02  0.00000E+00  9.000E+00
      25     1     1     2     0     0 -4.205272796E+02  6.069229721E+02 -4.128467199E+02  8.551409832E+02  1.250000000E+02  0.00000E+00  9.000E+00
      21     1     1     2   501   511 -7.463359282E+01  1.878676118E+01  1.979873799E+02  2.124196746E+02  2.697398305E-06  0.00000E+00  9.000E+00
#rwgt            1           1   2.2925626837850023E-002           9      141446           0
</event>
<event>
      5   9999  3.19816E-02  7.47057E+01 -1.00000E+00  1.29805E-01
      21    -1     0     0   502   501  0.000000000E+00  0.000000000E+00  4.332082348E+02  4.332082348E+02  0.000000000E+00  0.00000E+00  9.000E+00
      21    -1     0     0   501   512  0.000000000E+00  0.000000000E+00 -4.998284713E+02  4.998284713E+02  0.000000000E+00  0.00000E+00  9.000E+00
      25     1     1     2     0     0  2.818536083E+02 -1.118598262E+02 -1.851868894E+02  3.766606712E+02  1.250000000E+02  0.00000E+00  9.000E+00
      25     1     1     2     0     0 -2.123759115E+02  8.440446569E+01  2.775962815E+02  3.806735309E+02  1.250000000E+02  0.00000E+00  9.000E+00
      21     1     1     2   502   512 -6.947769681E+01  2.745536047E+01 -1.590296285E+02  1.757025040E+02  3.303624740E-06  0.00000E+00  9.000E+00
#rwgt            1           1   3.1313323173828372E-002           9      141579           0
</event>
<event>
      5   9999  3.19816E-02  1.90703E+02 -1.00000E+00  1.12406E-01
      21    -1     0     0   502   501  0.000000000E+00  0.000000000E+00  2.085263404E+03  2.085263404E+03  0.000000000E+00  0.00000E+00  9.000E+00
       1    -1     0     0   501     0  0.000000000E+00  0.000000000E+00 -3.469934343E+02  3.469934343E+02  0.000000000E+00  0.00000E+00  9.000E+00
      25     1     1     2     0     0 -1.314145383E+02 -2.186844543E+02  2.259146744E+02  3.629808694E+02  1.250000000E+02  0.00000E+00  9.000E+00
      25     1     1     2     0     0  1.884135733E+02  3.669918871E+01  1.749800748E+03  1.764730620E+03  1.250000000E+02  0.00000E+00  9.000E+00
       1     1     1     2   502     0 -5.699903497E+01  1.819852656E+02 -2.374454521E+02  3.045453491E+02  8.092194914E-06  0.00000E+00  9.000E+00
#rwgt            2          12   3.2213739479108588E-003           9      141645           0
</event>
<event>
      5   9999  3.19816E-02  9.71262E+01 -1.00000E+00  1.24400E-01
      21    -1     0     0   502   501  0.000000000E+00  0.000000000E+00  6.511302864E+02  6.511302864E+02  0.000000000E+00  0.00000E+00  9.000E+00
      21    -1     0     0   511   502  0.000000000E+00  0.000000000E+00 -3.999247658E+02  3.999247658E+02  0.000000000E+00  0.00000E+00  9.000E+00
      25     1     1     2     0     0 -2.810991302E+02  2.743189165E+02 -1.158329152E+01  4.123430145E+02  1.250000000E+02  0.00000E+00  9.000E+00
      25     1     1     2     0     0  2.835527010E+02 -1.772237338E+02  3.559575234E+02  5.041241360E+02  1.250000000E+02  0.00000E+00  9.000E+00
      21     1     1     2   511   501 -2.453570801E+00 -9.709518270E+01 -9.316871127E+01  1.345879017E+02  2.336015456E-06  0.00000E+00  9.000E+00
#rwgt            1           1   2.7780946855197889E-002           9      141679           0
</event>
<event>
      5   9999  3.19816E-02  3.34615E+02 -1.00000E+00  1.04074E-01
      21    -1     0     0   502   501  0.000000000E+00  0.000000000E+00  1.695802690E+02  1.695802690E+02  0.000000000E+00  0.00000E+00  9.000E+00
      21    -1     0     0   512   502  0.000000000E+00  0.000000000E+00 -1.318214636E+03  1.318214636E+03  0.000000000E+00  0.00000E+00  9.000E+00
      25     1     1     2     0     0  2.005445562E+02 -1.142211763E+02 -1.304260805E+02  2.930879707E+02  1.250000000E+02  0.00000E+00  9.000E+00
      25     1     1     2     0     0 -1.303246876E+02 -2.129427529E+02 -5.766299098E+02  6.406685516E+02  1.250000000E+02  0.00000E+00  9.000E+00
      21     1     1     2   512   501 -7.021986852E+01  3.271639291E+02 -4.415783763E+02  5.540383822E+02  7.629394531E-06  0.00000E+00  9.000E+00
#rwgt            2          11   2.8674661133884674E-003           9      141848           0
</event>
<event>
      5   9999  3.19816E-02  1.16582E+02 -1.00000E+00  1.20903E-01
      21    -1     0     0   511   501  0.000000000E+00  0.000000000E+00  4.107956816E+02  4.107956816E+02  0.000000000E+00  0.00000E+00  9.000E+00
      21    -1     0     0   501   502  0.000000000E+00  0.000000000E+00 -9.000730705E+02  9.000730705E+02  0.000000000E+00  0.00000E+00  9.000E+00
      25     1     1     2     0     0  5.504583328E+01  1.671232615E+01 -8.258076552E+02  8.371933044E+02  1.250000000E+02  0.00000E+00  9.000E+00
      25     1     1     2     0     0 -1.401009855E+02  6.301781312E+01  2.829343483E+02  3.453641214E+02  1.250000000E+02  0.00000E+00  9.000E+00
      21     1     1     2   511   502  8.505515224E+01 -7.973013927E+01  5.359591796E+01  1.283113263E+02  9.536743164E-07  0.00000E+00  9.000E+00
#rwgt            1           1   2.5140260024137800E-002           9      141883           0
</event>
<event>
      5   9999  3.19816E-02  1.65783E+02 -1.00000E+00  1.14697E-01
       2    -1     0     0   502     0  0.000000000E+00  0.000000000E+00  4.916352730E+03  4.916352730E+03  0.000000000E+00  0.00000E+00  9.000E+00
      21    -1     0     0   501   502  0.000000000E+00  0.000000000E+00 -1.896089657E+02  1.896089657E+02  0.000000000E+00  0.00000E+00  9.000E+00
      25     1     1     2     0     0  1.486944804E+02 -2.839965020E+02  1.661863682E+03  1.697109295E+03  1.250000000E+02  0.00000E+00  9.000E+00
      25     1     1     2     0     0 -4.402805454E+01  1.554315558E+02 -1.084016631E+02  2.312430727E+02  1.250000000E+02  0.00000E+00  9.000E+00
       2     1     1     2   501     0 -1.046664259E+02  1.285649462E+02  3.173281746E+03  3.177609328E+03  0.000000000E+00  0.00000E+00  9.000E+00
#rwgt            2          18   3.9922848240537005E-004           9      141970           0
</event>
<event>
      5   9999  3.19816E-02  1.86693E+02 -1.00000E+00  1.12748E-01
      21    -1     0     0   502   501  0.000000000E+00  0.000000000E+00  2.080485052E+02  2.080485052E+02  0.000000000E+00  0.00000E+00  9.000E+00
       2    -1     0     0   501     0  0.000000000E+00  0.000000000E+00 -3.981050141E+03  3.981050141E+03  0.000000000E+00  0.00000E+00  9.000E+00
      25     1     1     2     0     0 -4.963648343E+01 -6.305811678E+02 -1.620035403E+03  1.743627281E+03  1.250000000E+02  0.00000E+00  9.000E+00
      25     1     1     2     0     0  1.417553382E+01  8.138757637E+02 -1.089456736E+03  1.365699705E+03  1.250000000E+02  0.00000E+00  9.000E+00
       2     1     1     2   502     0  3.546094960E+01 -1.832945959E+02 -1.063509497E+03  1.079771660E+03  2.157918644E-05  0.00000E+00  9.000E+00
#rwgt            1           1   8.1348551205701142E-002           9      141989           0
</event>
<event>
      5   9999  3.19816E-02  1.13841E+02 -1.00000E+00  1.21348E-01
       2    -1     0     0   502     0  0.000000000E+00  0.000000000E+00  9.760593388E+02  9.760593388E+02  0.000000000E+00  0.00000E+00  9.000E+00
      21    -1     0     0   501   502  0.000000000E+00  0.000000000E+00 -1.256208542E+03  1.256208542E+03  0.000000000E+00  0.00000E+00  9.000E+00
      25     1     1     2     0     0  5.649237343E+02 -2.627300836E+02 -1.009945644E+03  1.193222999E+03  1.250000000E+02  0.00000E+00  9.000E+00
      25     1     1     2     0     0 -5.809082263E+02  1.500173529E+02  5.354577234E+02  8.138178833E+02  1.250000000E+02  0.00000E+00  9.000E+00
       2     1     1     2   501     0  1.598449200E+01  1.127127307E+02  1.943387173E+02  2.252269982E+02  2.697398305E-06  0.00000E+00  9.000E+00
#rwgt            1           1   3.3299581914056027E-002           9      142062           0
</event>
<event>
      5   9999  3.19816E-02  2.38457E+02 -1.00000E+00  1.08936E-01
      21    -1     0     0   502   511  0.000000000E+00  0.000000000E+00  3.553071862E+02  3.553071862E+02  0.000000000E+00  0.00000E+00  9.000E+00
      21    -1     0     0   501   502  0.000000000E+00  0.000000000E+00 -9.930438717E+02  9.930438717E+02  0.000000000E+00  0.00000E+00  9.000E+00
      25     1     1     2     0     0  5.097428785E+01  2.664217131E+02  1.033864725E+02  3.160580167E+02  1.250000000E+02  0.00000E+00  9.000E+00
      25     1     1     2     0     0  1.793755152E+02 -2.047721133E+02 -7.350656134E+02  7.937591888E+02  1.250000000E+02  0.00000E+00  9.000E+00
      21     1     1     2   501   511 -2.303498030E+02 -6.164959984E+01 -6.057544514E+00  2.385338524E+02  2.527405625E-06  0.00000E+00  9.000E+00
#rwgt            1           1   2.8541348929957362E-002           9      142127           0
</event>
<event>
      5   9999  3.19816E-02  5.31929E+01 -1.00000E+00  1.37559E-01
      21    -1     0     0   512   501  0.000000000E+00  0.000000000E+00  7.389470109E+02  7.389470109E+02  0.000000000E+00  0.00000E+00  9.000E+00
      21    -1     0     0   501   502  0.000000000E+00  0.000000000E+00 -5.131116404E+01  5.131116404E+01  0.000000000E+00  0.00000E+00  9.000E+00
      25     1     1     2     0     0  7.389959234E+01  4.621024989E+01  1.910881011E+02  2.444099002E+02  1.250000000E+02  0.00000E+00  9.000E+00
      25     1     1     2     0     0 -6.438581810E+01 -9.854546047E+01  3.477750413E+02  3.878520603E+02  1.250000000E+02  0.00000E+00  9.000E+00
      21     1     1     2   512   502 -9.513774243E+00  5.233521058E+01  1.487727044E+02  1.579962144E+02  0.000000000E+00  0.00000E+00  9.000E+00
#rwgt            1           1   2.7923407401684492E-002           9      142201           0
</event>
<event>
      5   9999  3.23909E-02  8.32710E+01 -1.00000E+00  1.27513E-01
      21    -1     0     0   502   501  0.000000000E+00  0.000000000E+00  3.235777251E+02  3.235777251E+02  0.000000000E+00  0.00000E+00  9.000E+00
       3    -1     0     0   501     0  0.000000000E+00  0.000000000E+00 -8.602953948E+02  8.602953948E+02  0.000000000E+00  0.00000E+00  9.000E+00
      25     1     1     2     0     0  4.208899624E+02 -1.204083384E+02 -1.526553727E+01  4.555266897E+02  1.250000000E+02  0.00000E+00  9.000E+00
      25     1     1     2     0     0 -3.779081196E+02  4.908776433E+01 -5.025334156E+02  6.429533336E+02  1.250000000E+02  0.00000E+00  9.000E+00
       3     1     1     2   502     0 -4.298184284E+01  7.132057403E+01 -1.891871689E+01  8.539309657E+01  1.877309769E-06  0.00000E+00  9.000E+00
#rwgt            1           1   3.1726728653747517E-002           9      142273           0
</event>
<event>
      5   9999  3.19816E-02  4.14017E+01 -1.00000E+00  1.43918E-01
      21    -1     0     0   502   501  0.000000000E+00  0.000000000E+00  1.923305238E+02  1.923305238E+02  0.000000000E+00  0.00000E+00  9.000E+00
      21    -1     0     0   511   502  0.000000000E+00  0.000000000E+00 -6.685800805E+02  6.685800805E+02  0.000000000E+00  0.00000E+00  9.000E+00
      25     1     1     2     0     0 -1.848567593E+02  1.289199592E+02 -3.862677315E+01  2.605943302E+02  1.250000000E+02  0.00000E+00  9.000E+00
      25     1     1     2     0     0  1.821667210E+02 -8.760569422E+01 -9.620581786E+01  2.563981889E+02  1.250000000E+02  0.00000E+00  9.000E+00
      21     1     1     2   511   501  2.690038249E+00 -4.131426499E+01 -3.414169657E+02  3.439180851E+02  6.607249480E-06  0.00000E+00  9.000E+00
#rwgt            1           1   2.4984453446808077E-002           9      142409           0
</event>
<event>
      5   9999  3.19816E-02  1.24670E+02 -1.00000E+00  1.19669E-01
      21    -1     0     0   502   501  0.000000000E+00  0.000000000E+00  5.334744106E+02  5.334744106E+02  0.000000000E+00  0.00000E+00  9.000E+00
      21    -1     0     0   501   512  0.000000000E+00  0.000000000E+00 -4.601390481E+02  4.601390481E+02  0.000000000E+00  0.00000E+00  9.000E+00
      25     1     1     2     0     0 -1.915538099E+02  1.503717139E+02  3.545390487E+02  4.479145582E+02  1.250000000E+02  0.00000E+00  9.000E+00
      25     1     1     2     0     0  9.785042828E+01 -2.326040729E+02 -5.429402141E+01  2.867964466E+02  1.250000000E+02  0.00000E+00  9.000E+00
      21     1     1     2   502   512  9.370338160E+01  8.223235901E+01 -2.269096648E+02  2.589024538E+02  4.672030912E-06  0.00000E+00  9.000E+00
#rwgt            2          11   2.6622628377113177E-003           9      142633           0
</event>
<event>
      5   9999  3.19816E-02  1.05877E+02 -1.00000E+00  1.22723E-01
      21    -1     0     0   502   511  0.000000000E+00  0.000000000E+00  2.290742957E+03  2.290742957E+03  0.000000000E+00  0.00000E+00  9.000E+00
      21    -1     0     0   501   502  0.000000000E+00  0.000000000E+00 -2.844486264E+02  2.844486264E+02  0.000000000E+00  0.00000E+00  9.000E+00
      25     1     1     2     0     0 -1.071702098E+02  1.283706059E+02  1.338315128E+02  2.479926211E+02  1.250000000E+02  0.00000E+00  9.000E+00
      25     1     1     2     0     0  1.525834973E+01 -7.581492997E+01 -2.021198691E+02  2.499163107E+02  1.250000000E+02  0.00000E+00  9.000E+00
      21     1     1     2   501   511  9.191186003E+01 -5.255567595E+01  2.074582687E+03  2.077282651E+03  3.051757812E-05  0.00000E+00  9.000E+00
#rwgt            1           1   2.8070298459229620E-002           9      142653           0
</event>
<event>
      5   9999  3.19816E-02  4.46474E+02 -1.00000E+00  1.00269E-01
      21    -1     0     0   502   512  0.000000000E+00  0.000000000E+00  5.835419612E+02  5.835419612E+02  0.000000000E+00  0.00000E+00  9.000E+00
      21    -1     0     0   501   502  0.000000000E+00  0.000000000E+00 -1.158729606E+03  1.158729606E+03  0.000000000E+00  0.00000E+00  9.000E+00
      25     1     1     2     0     0  3.204302123E+02 -1.052460320E+02 -3.978905399E+02  5.363712613E+02  1.250000000E+02  0.00000E+00  9.000E+00
      25     1     1     2     0     0 -5.414940700E+02  4.931504864E+02 -6.702303875E+01  7.460095964E+02  1.250000000E+02  0.00000E+00  9.000E+00
      21     1     1     2   501   512  2.210638577E+02 -3.879044544E+02 -1.102740659E+02  4.598907094E+02  2.336015456E-06  0.00000E+00  9.000E+00
#rwgt            1           1   2.9947568734728234E-002           9      142716           0
</event>
<event>
      5   9999  3.19816E-02  4.61160E+01 -1.00000E+00  1.41109E-01
      21    -1     0     0   502   501  0.000000000E+00  0.000000000E+00  8.038806098E+02  8.038806098E+02  0.000000000E+00  0.00000E+00  9.000E+00
      21    -1     0     0   511   502  0.000000000E+00  0.000000000E+00 -2.063427462E+02  2.063427462E+02  0.000000000E+00  0.00000E+00  9.000E+00
      25     1     1     2     0     0 -4.124421949E+01  1.926142072E+02 -8.502163354E+01  2.483042421E+02  1.250000000E+02  0.00000E+00  9.000E+00
      25     1     1     2     0     0  1.626993106E+00 -1.690098841E+02  6.842075106E+02  7.157736413E+02  1.250000000E+02  0.00000E+00  9.000E+00
      21     1     1     2   511   501  3.961722638E+01 -2.360432307E+01 -1.648013410E+00  4.614547260E+01  1.153661719E-06  0.00000E+00  9.000E+00
#rwgt            1           1   2.6977683093695987E-002           9      142748           0
</event>
<event>
      5   9999  3.19816E-02  1.05911E+02 -1.00000E+00  1.22717E-01
      21    -1     0     0   502   501  0.000000000E+00  0.000000000E+00  6.172463782E+02  6.172463782E+02  0.000000000E+00  0.00000E+00  9.000E+00
      21    -1     0     0   512   502  0.000000000E+00  0.000000000E+00 -2.828046453E+02  2.828046453E+02  0.000000000E+00  0.00000E+00  9.000E+00
      25     1     1     2     0     0 -1.230089396E+02 -2.154227853E+02  8.934582204E+00  2.779262536E+02  1.250000000E+02  0.00000E+00  9.000E+00
      25     1     1     2     0     0  1.443563104E+02  1.116859573E+02  4.235242010E+02  4.778182146E+02  1.250000000E+02  0.00000E+00  9.000E+00
      21     1     1     2   512   501 -2.134737079E+01  1.037368280E+02 -9.801705032E+01  1.443065552E+02  1.348699152E-06  0.00000E+00  9.000E+00
#rwgt            1           1   2.8035197985705810E-002           9      142847           0
</event>
<event>
      5   9999  3.19816E-02  1.48432E+01 -1.00000E+00  1.77814E-01
      21    -1     0     0   502   501  0.000000000E+00  0.000000000E+00  4.016760692E+02  4.016760692E+02  0.000000000E+00  0.00000E+00  9.000E+00
       2    -1     0     0   501     0  0.000000000E+00  0.000000000E+00 -9.213004430E+02  9.213004430E+02  0.000000000E+00  0.00000E+00  9.000E+00
      25     1     1     2     0     0  2.851763349E+02 -4.191955572E+02 -2.980587356E+01  5.230333137E+02  1.250000000E+02  0.00000E+00  9.000E+00
      25     1     1     2     0     0 -2.791238927E+02  4.056423340E+02 -2.619200139E+02  5.715618464E+02  1.250000000E+02  0.00000E+00  9.000E+00
       2     1     1     2   502     0 -6.052442183E+00  1.355322323E+01 -2.278984863E+02  2.283813521E+02  0.000000000E+00  0.00000E+00  9.000E+00
#rwgt            1           1   2.8123405900765130E-002           9      142893           0
</event>
<event>
      5   9999  3.19816E-02  2.48283E+01 -1.00000E+00  1.58975E-01
      21    -1     0     0   502   501  0.000000000E+00  0.000000000E+00  6.988648074E+02  6.988648074E+02  0.000000000E+00  0.00000E+00  9.000E+00
      21    -1     0     0   501   511  0.000000000E+00  0.000000000E+00 -9.314283574E+02  9.314283574E+02  0.000000000E+00  0.00000E+00  9.000E+00
      25     1     1     2     0     0  4.016427858E+02  1.411751431E+02 -4.781784132E+02  6.523242624E+02  1.250000000E+02  0.00000E+00  9.000E+00
      25     1     1     2     0     0 -3.769024420E+02 -1.390871446E+02  5.388662013E+02  6.836683900E+02  1.250000000E+02  0.00000E+00  9.000E+00
      21     1     1     2   502   511 -2.474034382E+01 -2.087998462E+00 -2.932513380E+02  2.943005124E+02  0.000000000E+00  0.00000E+00  9.000E+00
#rwgt            1           1   2.7149151080001103E-002           9      143157           0
</event>
<event>
      5   9999  3.19816E-02  3.02815E+02 -1.00000E+00  1.05460E-01
       2    -1     0     0   502     0  0.000000000E+00  0.000000000E+00  5.486414144E+02  5.486414144E+02  0.000000000E+00  0.00000E+00  9.000E+00
      21    -1     0     0   501   502  0.000000000E+00  0.000000000E+00 -7.376479557E+02  7.376479557E+02  0.000000000E+00  0.00000E+00  9.000E+00
      25     1     1     2     0     0  1.470680119E+01 -2.398191042E+02 -9.507914252E+01  2.870444845E+02  1.250000000E+02  0.00000E+00  9.000E+00
      25     1     1     2     0     0  1.966304230E+02  2.294699977E+01 -4.648088119E+02  5.204443482E+02  1.250000000E+02  0.00000E+00  9.000E+00
       2     1     1     2   501     0 -2.113372242E+02  2.168721045E+02  3.708814131E+02  4.788005373E+02  9.344061824E-06  0.00000E+00  9.000E+00
#rwgt            2          18   1.2177480226383689E-003           9      143540           0
</event>
<event>
      5   9999  3.19816E-02  2.46832E+01 -1.00000E+00  1.59167E-01
      21    -1     0     0   502   501  0.000000000E+00  0.000000000E+00  9.039007337E+01  9.039007337E+01  0.000000000E+00  0.00000E+00  9.000E+00
      21    -1     0     0   501   511  0.000000000E+00  0.000000000E+00 -5.781850293E+02  5.781850293E+02  0.000000000E+00  0.00000E+00  9.000E+00
      25     1     1     2     0     0 -4.241085981E+01 -1.004426781E+02 -2.781511739E+02  3.238525716E+02  1.250000000E+02  0.00000E+00  9.000E+00
      25     1     1     2     0     0  5.234997276E+01  1.230363727E+02 -5.935854250E+01  1.924237647E+02  1.250000000E+02  0.00000E+00  9.000E+00
      21     1     1     2   502   511 -9.939112955E+00 -2.259369455E+01 -1.502852395E+02  1.522987663E+02  0.000000000E+00  0.00000E+00  9.000E+00
#rwgt            1           1   2.7727244202669130E-002           9      143559           0
</event>
<event>
      5   9999  3.19816E-02  2.20127E+01 -1.00000E+00  1.63005E-01
      21    -1     0     0   512   501  0.000000000E+00  0.000000000E+00  9.677108009E+01  9.677108009E+01  0.000000000E+00  0.00000E+00  9.000E+00
      21    -1     0     0   501   502  0.000000000E+00  0.000000000E+00 -1.296760728E+03  1.296760728E+03  0.000000000E+00  0.00000E+00  9.000E+00
      25     1     1     2     0     0  2.282062797E+02  1.946700644E+02 -5.467642538E+02  6.360429933E+02  1.250000000E+02  0.00000E+00  9.000E+00
      25     1     1     2     0     0 -2.119300557E+02 -1.798496567E+02 -6.657273813E+02  7.321736090E+02  1.250000000E+02  0.00000E+00  9.000E+00
      21     1     1     2   512   502 -1.627622407E+01 -1.482040774E+01  1.250198726E+01  2.531520573E+01  5.057621821E-07  0.00000E+00  9.000E+00
#rwgt            1           1   3.2494167345366629E-002           9      143670           0
</event>
<event>
      5   9999  3.19816E-02  3.52595E+01 -1.00000E+00  1.48322E-01
      21    -1     0     0   502   501  0.000000000E+00  0.000000000E+00  6.720167911E+02  6.720167911E+02  0.000000000E+00  0.00000E+00  9.000E+00
      21    -1     0     0   501   511  0.000000000E+00  0.000000000E+00 -2.215284624E+02  2.215284624E+02  0.000000000E+00  0.00000E+00  9.000E+00
      25     1     1     2     0     0 -1.725688339E+02 -2.504204403E+02  3.596353678E+02  4.872914909E+02  1.250000000E+02  0.00000E+00  9.000E+00
      25     1     1     2     0     0  1.605979187E+02  2.835856641E+02  1.102002026E+02  3.660349779E+02  1.250000000E+02  0.00000E+00  9.000E+00
      21     1     1     2   502   511  1.197091526E+01 -3.316522380E+01 -1.934724168E+01  4.021878470E+01  7.152557373E-07  0.00000E+00  9.000E+00
#rwgt            1           1   2.4390799928097763E-002           9      143879           0
</event>
<event>
      5   9999  3.19816E-02  1.41290E+02 -1.00000E+00  1.17433E-01
      21    -1     0     0   502   512  0.000000000E+00  0.000000000E+00  4.636447642E+02  4.636447642E+02  0.000000000E+00  0.00000E+00  9.000E+00
      21    -1     0     0   501   502  0.000000000E+00  0.000000000E+00 -3.023504497E+03  3.023504497E+03  0.000000000E+00  0.00000E+00  9.000E+00
      25     1     1     2     0     0  2.501827297E+02  7.044933815E+01 -8.006762325E+02  8.510358023E+02  1.250000000E+02  0.00000E+00  9.000E+00
      25     1     1     2     0     0 -1.108761631E+02 -9.404310472E+01 -2.181951948E+03  2.190360001E+03  1.250000000E+02  0.00000E+00  9.000E+00
      21     1     1     2   501   512 -1.393065666E+02  2.359376657E+01  4.227684476E+02  4.457534583E+02  9.344061824E-06  0.00000E+00  9.000E+00
#rwgt            1           1   4.0914080753684579E-002           9      144054           0
</event>
<event>
      5   9999  3.19816E-02  1.91567E+01 -1.00000E+00  1.67928E-01
      21    -1     0     0   511   501  0.000000000E+00  0.000000000E+00  7.959067807E+02  7.959067807E+02  0.000000000E+00  0.00000E+00  9.000E+00
      21    -1     0     0   501   502  0.000000000E+00  0.000000000E+00 -1.003704470E+02  1.003704470E+02  0.000000000E+00  0.00000E+00  9.000E+00
      25     1     1     2     0     0 -1.569644508E+02  1.403426573E+02  1.863962304E+02  3.077376398E+02  1.250000000E+02  0.00000E+00  9.000E+00
      25     1     1     2     0     0  1.379583147E+02 -1.427401196E+02  3.114044714E+02  3.898781645E+02  1.250000000E+02  0.00000E+00  9.000E+00
      21     1     1     2   511   502  1.900613605E+01  2.397462292E+00  1.977356319E+02  1.986614234E+02  2.697398305E-06  0.00000E+00  9.000E+00
#rwgt            1           1   2.8180300544261433E-002           9      144131           0
</event>
<event>
      5   9999  3.19816E-02  9.71618E+01 -1.00000E+00  1.24393E-01
      21    -1     0     0   502   501  0.000000000E+00  0.000000000E+00  8.115022837E+01  8.115022837E+01  0.000000000E+00  0.00000E+00  9.000E+00
      21    -1     0     0   512   502  0.000000000E+00  0.000000000E+00 -1.651084158E+03  1.651084158E+03  0.000000000E+00  0.00000E+00  9.000E+00
      25     1     1     2     0     0  1.841657594E+02 -1.263414669E+02 -7.285607214E+02  7.722078205E+02  1.250000000E+02  0.00000E+00  9.000E+00
      25     1     1     2     0     0 -1.514126976E+02  2.178163532E+02 -3.385237794E+02  4.478762306E+02  1.250000000E+02  0.00000E+00  9.000E+00
      21     1     1     2   512   501 -3.275306188E+01 -9.147488638E+01 -5.028494287E+02  5.121503352E+02  0.000000000E+00  0.00000E+00  9.000E+00
#rwgt            1           1   3.2603901068441257E-002           9      144279           0
</event>
<event>
      5   9999  3.19816E-02  5.57189E+01 -1.00000E+00  1.36444E-01
      21    -1     0     0   502   501  0.000000000E+00  0.000000000E+00  2.164907819E+02  2.164907819E+02  0.000000000E+00  0.00000E+00  9.000E+00
       2    -1     0     0   501     0  0.000000000E+00  0.000000000E+00 -2.464130292E+03  2.464130292E+03  0.000000000E+00  0.00000E+00  9.000E+00
      25     1     1     2     0     0 -9.243374203E+01 -3.787406047E+02 -1.610530337E+01  4.097228614E+02  1.250000000E+02  0.00000E+00  9.000E+00
      25     1     1     2     0     0  6.360415431E+01  3.310598417E+02 -2.039273988E+03  2.070726806E+03  1.250000000E+02  0.00000E+00  9.000E+00
       2     1     1     2   502     0  2.882958772E+01  4.768076302E+01 -1.922602190E+02  2.001714068E+02  2.697398305E-06  0.00000E+00  9.000E+00
#rwgt            1           1   2.8301261938324444E-002           9      144346           0
</event>
<event>
      5   9999  3.19816E-02  8.14474E+01 -1.00000E+00  1.27974E-01
      21    -1     0     0   502   511  0.000000000E+00  0.000000000E+00  2.498163808E+02  2.498163808E+02  0.000000000E+00  0.00000E+00  9.000E+00
      21    -1     0     0   501   502  0.000000000E+00  0.000000000E+00 -4.580376017E+02  4.580376017E+02  0.000000000E+00  0.00000E+00  9.000E+00
      25     1     1     2     0     0  1.041307541E+01  1.599332246E+02 -6.369314977E+01  2.129997319E+02  1.250000000E+02  0.00000E+00  9.000E+00
      25     1     1     2     0     0  3.848583649E+01 -2.250683392E+02 -2.504557818E+02  3.612340177E+02  1.250000000E+02  0.00000E+00  9.000E+00
      21     1     1     2   501   511 -4.889891190E+01  6.513511464E+01  1.059277106E+02  1.336202328E+02  1.907348633E-06  0.00000E+00  9.000E+00
#rwgt            1           1   2.6102072972473262E-002           9      144469           0
</event>
<event>
      5   9999  3.19816E-02  1.65716E+02 -1.00000E+00  1.14704E-01
      21    -1     0     0   512   501  0.000000000E+00  0.000000000E+00  5.042509187E+02  5.042509187E+02  0.000000000E+00  0.00000E+00  9.000E+00
      21    -1     0     0   501   502  0.000000000E+00  0.000000000E+00 -1.077539685E+03  1.077539685E+03  0.000000000E+00  0.00000E+00  9.000E+00
      25     1     1     2     0     0  2.467405793E+02  4.214200966E+02  6.411732778E+01  5.081454939E+02  1.250000000E+02  0.00000E+00  9.000E+00
      25     1     1     2     0     0 -3.913090482E+02 -5.024257350E+02 -6.349181639E+02  9.079099433E+02  1.250000000E+02  0.00000E+00  9.000E+00
      21     1     1     2   512   502  1.445684689E+02  8.100563840E+01 -2.487930239E+00  1.657351666E+02  4.742878328E-06  0.00000E+00  9.000E+00
#rwgt            1           1   2.9515731995044380E-002           9      144513           0
</event>
<event>
      5   9999  3.19816E-02  1.16445E+02 -1.00000E+00  1.20925E-01
      21    -1     0     0   502   501  0.000000000E+00  0.000000000E+00  2.127295953E+02  2.127295953E+02  0.000000000E+00  0.00000E+00  9.000E+00
      21    -1     0     0   501   511  0.000000000E+00  0.000000000E+00 -5.731078202E+02  5.731078202E+02  0.000000000E+00  0.00000E+00  9.000E+00
      25     1     1     2     0     0 -7.313347990E+01  1.404221577E+02  1.164166140E+02  2.329049511E+02  1.250000000E+02  0.00000E+00  9.000E+00
      25     1     1     2     0     0  9.567963229E+01 -2.618081571E+01 -2.287099430E+02  2.788785850E+02  1.250000000E+02  0.00000E+00  9.000E+00
      21     1     1     2   502   511 -2.254615240E+01 -1.142413420E+02 -2.480848960E+02  2.740538794E+02  3.814697266E-06  0.00000E+00  9.000E+00
#rwgt            1           1   2.7644455603237743E-002           9      144578           0
</event>
<event>
      5   9999  3.19816E-02  2.01378E+01 -1.00000E+00  1.66123E-01
      21    -1     0     0   512   501  0.000000000E+00  0.000000000E+00  2.005031171E+02  2.005031171E+02  0.000000000E+00  0.00000E+00  9.000E+00
      21    -1     0     0   501   502  0.000000000E+00  0.000000000E+00 -5.425751519E+02  5.425751519E+02  0.000000000E+00  0.00000E+00  9.000E+00
      25     1     1     2     0     0  2.533091054E+02  1.056322895E+02 -5.542899186E+01  3.066285319E+02  1.250000000E+02  0.00000E+00  9.000E+00
      25     1     1     2     0     0 -2.377026459E+02 -1.183590636E+02 -2.936084103E+02  4.151413185E+02  1.250000000E+02  0.00000E+00  9.000E+00
      21     1     1     2   512   502 -1.560645954E+01  1.272677413E+01  6.965367249E+00  2.130841852E+01  2.230201594E-07  0.00000E+00  9.000E+00
#rwgt            1           1   2.7055360017354087E-002           9      144616           0
</event>
<event>
      5   9999  3.19816E-02  3.17088E+01 -1.00000E+00  1.51387E-01
      21    -1     0     0   511   501  0.000000000E+00  0.000000000E+00  1.370183886E+03  1.370183886E+03  0.000000000E+00  0.00000E+00  9.000E+00
      21    -1     0     0   501   502  0.000000000E+00  0.000000000E+00 -8.099462353E+01  8.099462353E+01  0.000000000E+00  0.00000E+00  9.000E+00
      25     1     1     2     0     0 -8.182193731E+01  1.922481377E+02  1.786277961E+02  3.019719613E+02  1.250000000E+02  0.00000E+00  9.000E+00
      25     1     1     2     0     0  6.332321456E+01 -2.180016796E+02  9.110670565E+02  9.472078670E+02  1.250000000E+02  0.00000E+00  9.000E+00
      21     1     1     2   511   502  1.849872275E+01  2.575354188E+01  1.994944098E+02  2.019986812E+02  3.814697266E-06  0.00000E+00  9.000E+00
#rwgt            1           1   2.2411735932712354E-002           9      144789           0
</event>
<event>
      5   9999  3.19816E-02  8.64396E+01 -1.00000E+00  1.26743E-01
      21    -1     0     0   502   512  0.000000000E+00  0.000000000E+00  1.140805720E+02  1.140805720E+02  0.000000000E+00  0.00000E+00  9.000E+00
      21    -1     0     0   501   502  0.000000000E+00  0.000000000E+00 -1.976188370E+03  1.976188370E+03  0.000000000E+00  0.00000E+00  9.000E+00
      25     1     1     2     0     0  1.285663898E+02 -2.792787377E+02 -1.397769006E+03  1.436631172E+03  1.250000000E+02  0.00000E+00  9.000E+00
      25     1     1     2     0     0 -2.142695877E+02  2.680198207E+02 -3.208456951E+02  4.861203972E+02  1.250000000E+02  0.00000E+00  9.000E+00
      21     1     1     2   501   512  8.570319790E+01  1.125891696E+01 -1.434930969E+02  1.675173728E+02  2.697398305E-06  0.00000E+00  9.000E+00
#rwgt            1           1   2.5819460940664504E-002           9      144901           0
</event>
<event>
      5   9999  3.19816E-02  1.83744E+01 -1.00000E+00  1.69465E-01
      21    -1     0     0   502   511  0.000000000E+00  0.000000000E+00  1.730758919E+02  1.730758919E+02  0.000000000E+00  0.00000E+00  9.000E+00
      21    -1     0     0   501   502  0.000000000E+00  0.000000000E+00 -4.896699775E+02  4.896699775E+02  0.000000000E+00  0.00000E+00  9.000E+00
      25     1     1     2     0     0  3.700247217E+01  2.274512290E+02 -2.742745212E+02  3.794137023E+02  1.250000000E+02  0.00000E+00  9.000E+00
      25     1     1     2     0     0 -1.884724498E+01 -2.246215938E+02 -5.141778304E+01  2.628285895E+02  1.250000000E+02  0.00000E+00  9.000E+00
      21     1     1     2   501   511 -1.815522718E+01 -2.829635192E+00  9.098218707E+00  2.050357757E+01  2.920019320E-07  0.00000E+00  9.000E+00
#rwgt            1           1   2.9702917081413059E-002           9      145002           0
</event>
<event>
      5   9999  3.19816E-02  3.83254E+01 -1.00000E+00  1.46002E-01
      21    -1     0     0   502   501  0.000000000E+00  0.000000000E+00  8.854395759E+01  8.854395759E+01  0.000000000E+00  0.00000E+00  9.000E+00
      21    -1     0     0   501   512  0.000000000E+00  0.000000000E+00 -1.690302984E+03  1.690302984E+03  0.000000000E+00  0.00000E+00  9.000E+00
      25     1     1     2     0     0 -1.066975656E+02 -7.806974572E+01 -3.112634002E+01  1.845890158E+02  1.250000000E+02  0.00000E+00  9.000E+00
      25     1     1     2     0     0  1.322752209E+02  4.952816431E+01 -7.720200153E+02  7.947261649E+02  1.250000000E+02  0.00000E+00  9.000E+00
      21     1     1     2   502   512 -2.557765529E+01  2.854158142E+01 -7.986126709E+02  7.995317607E+02  0.000000000E+00  0.00000E+00  9.000E+00
#rwgt            1           1   2.9986376066491901E-002           9      145240           0
</event>
<event>
      5   9999  3.19816E-02  8.39492E+01 -1.00000E+00  1.27345E-01
      21    -1     0     0   502   511  0.000000000E+00  0.000000000E+00  5.176907133E+02  5.176907133E+02  0.000000000E+00  0.00000E+00  9.000E+00
      21    -1     0     0   501   502  0.000000000E+00  0.000000000E+00 -4.030207723E+02  4.030207723E+02  0.000000000E+00  0.00000E+00  9.000E+00
      25     1     1     2     0     0 -2.811984829E+02  1.365921539E+01 -5.076803633E+01  3.121883317E+02  1.250000000E+02  0.00000E+00  9.000E+00
      25     1     1     2     0     0  3.632485958E+02 -3.141429949E+01 -3.911248661E+01  3.874160388E+02  1.250000000E+02  0.00000E+00  9.000E+00
      21     1     1     2   501   511 -8.205011290E+01  1.775508409E+01  2.045504640E+02  2.211071151E+02  2.697398305E-06  0.00000E+00  9.000E+00
#rwgt            1           1   3.0045498102171039E-002           9      145286           0
</event>
<event>
      5   9999  3.19816E-02  1.57535E+02 -1.00000E+00  1.15556E-01
       2    -1     0     0   502     0  0.000000000E+00  0.000000000E+00  3.946455433E+03  3.946455433E+03  0.000000000E+00  0.00000E+00  9.000E+00
      21    -1     0     0   501   502  0.000000000E+00  0.000000000E+00 -1.343207926E+02  1.343207926E+02  0.000000000E+00  0.00000E+00  9.000E+00
      25     1     1     2     0     0 -1.317158616E+02 -1.619190836E+00  4.432933976E+01  1.869272060E+02  1.250000000E+02  0.00000E+00  9.000E+00
      25     1     1     2     0     0  6.363530378E+01  1.436832210E+02  1.030251220E+02  2.256845047E+02  1.250000000E+02  0.00000E+00  9.000E+00
       2     1     1     2   501     0  6.808055778E+01 -1.420640302E+02  3.664780179E+03  3.668164515E+03  8.631674575E-05  0.00000E+00  9.000E+00
#rwgt            2          18   8.4411550530654866E-003           9      145434           0
</event>
<event>
      5   9999  3.19816E-02  2.13663E+02 -1.00000E+00  1.10613E-01
       2    -1     0     0   502     0  0.000000000E+00  0.000000000E+00  2.574733524E+03  2.574733524E+03  0.000000000E+00  0.00000E+00  9.000E+00
      21    -1     0     0   501   502  0.000000000E+00  0.000000000E+00 -3.813753900E+02  3.813753900E+02  0.000000000E+00  0.00000E+00  9.000E+00
      25     1     1     2     0     0 -2.056085248E+02 -6.599475871E+02  7.825431350E+02  1.051572366E+03  1.250000000E+02  0.00000E+00  9.000E+00
      25     1     1     2     0     0  3.877430049E+02  5.482378808E+02  2.549094315E+02  7.290495389E+02  1.250000000E+02  0.00000E+00  9.000E+00
       2     1     1     2   501     0 -1.821344802E+02  1.117097063E+02  1.155905567E+03  1.175487009E+03  2.157918644E-05  0.00000E+00  9.000E+00
#rwgt            2          18   1.7140709736238864E-003           9      145453           0
</event>
<event>
      5   9999  3.19816E-02  5.32866E+01 -1.00000E+00  1.37516E-01
      21    -1     0     0   511   501  0.000000000E+00  0.000000000E+00  2.641275614E+02  2.641275614E+02  0.000000000E+00  0.00000E+00  9.000E+00
      21    -1     0     0   501   502  0.000000000E+00  0.000000000E+00 -1.266417731E+03  1.266417731E+03  0.000000000E+00  0.00000E+00  9.000E+00
      25     1     1     2     0     0  2.986251486E+02  5.266601636E+01 -1.116442805E+03  1.163623747E+03  1.250000000E+02  0.00000E+00  9.000E+00
      25     1     1     2     0     0 -2.595731238E+02 -1.641133497E+01  1.215489477E+02  3.131240731E+02  1.250000000E+02  0.00000E+00  9.000E+00
      21     1     1     2   511   502 -3.905202485E+01 -3.625468139E+01 -7.396312571E+00  5.379747213E+01  9.938080311E-07  0.00000E+00  9.000E+00
#rwgt            1           1   2.4401354761025180E-002           9      145472           0
</event>
<event>
      5   9999  3.19816E-02  3.51063E+02 -1.00000E+00  1.03420E-01
       2    -1     0     0   502     0  0.000000000E+00  0.000000000E+00  1.708703272E+03  1.708703272E+03  0.000000000E+00  0.00000E+00  9.000E+00
      21    -1     0     0   501   502  0.000000000E+00  0.000000000E+00 -6.472776959E+02  6.472776959E+02  0.000000000E+00  0.00000E+00  9.000E+00
      25     1     1     2     0     0  3.745452264E+02 -2.114563498E+02 -2.829494298E+02  5.297955212E+02  1.250000000E+02  0.00000E+00  9.000E+00
      25     1     1     2     0     0 -6.448295363E+01  3.760965814E+02 -3.478967790E+01  4.030409551E+02  1.250000000E+02  0.00000E+00  9.000E+00
       2     1     1     2   501     0 -3.100622728E+02 -1.646402315E+02  1.379164684E+03  1.423144492E+03  2.157918644E-05  0.00000E+00  9.000E+00
#rwgt            2          18   3.1980958336882024E-003           9      145618           0
</event>
<event>
      5   9999  3.19816E-02  6.30825E+01 -1.00000E+00  1.33551E-01
      21    -1     0     0   502   501  0.000000000E+00  0.000000000E+00  9.018608393E+02  9.018608393E+02  0.000000000E+00  0.00000E+00  9.000E+00
      21    -1     0     0   511   502  0.000000000E+00  0.000000000E+00 -1.249056747E+02  1.249056747E+02  0.000000000E+00  0.00000E+00  9.000E+00
      25     1     1     2     0     0 -1.422168171E+02  4.926622955E+00  4.458710359E+02  4.844335613E+02  1.250000000E+02  0.00000E+00  9.000E+00
      25     1     1     2     0     0  8.077474204E+01  9.365933342E+00  4.129106799E+02  4.390131083E+02  1.250000000E+02  0.00000E+00  9.000E+00
      21     1     1     2   511   501  6.144207504E+01 -1.429255630E+01 -8.182655123E+01  1.033198444E+02  1.348699152E-06  0.00000E+00  9.000E+00
#rwgt            1           1   3.6768969937421646E-002           9      145637           0
</event>
<event>
      5   9999  3.19816E-02  3.94460E+02 -1.00000E+00  1.01868E-01
      21    -1     0     0   502   501  0.000000000E+00  0.000000000E+00  1.992280177E+02  1.992280177E+02  0.000000000E+00  0.00000E+00  9.000E+00
       2    -1     0     0   501     0  0.000000000E+00  0.000000000E+00 -1.284297153E+03  1.284297153E+03  0.000000000E+00  0.00000E+00  9.000E+00
      25     1     1     2     0     0  2.257138763E+02  3.335533281E+02 -4.126066881E+02  5.899778434E+02  1.250000000E+02  0.00000E+00  9.000E+00
      25     1     1     2     0     0 -1.339127721E+02  5.007545689E+01 -2.691363952E+02  3.293927461E+02  1.250000000E+02  0.00000E+00  9.000E+00
       2     1     1     2   502     0 -9.180110415E+01 -3.836287850E+02 -4.033260521E+02  5.641545813E+02  1.321449896E-05  0.00000E+00  9.000E+00
#rwgt            2          13   8.2619066968134703E-004           9      145714           0
</event>
<event>
      5   9999  3.19816E-02  2.12043E+02 -1.00000E+00  1.10731E-01
       2    -1     0     0   502     0  0.000000000E+00  0.000000000E+00  4.140864012E+03  4.140864012E+03  0.000000000E+00  0.00000E+00  9.000E+00
      21    -1     0     0   501   502  0.000000000E+00  0.000000000E+00 -5.282656028E+02  5.282656028E+02  0.000000000E+00  0.00000E+00  9.000E+00
      25     1     1     2     0     0  5.643702656E-01  4.002384091E+02 -5.560032981E+01  4.229745847E+02  1.250000000E+02  0.00000E+00  9.000E+00
      25     1     1     2     0     0 -2.006287553E+02 -3.299780301E+02 -1.420225069E+02  4.300381265E+02  1.250000000E+02  0.00000E+00  9.000E+00
       2     1     1     2   501     0  2.000643850E+02 -7.026037904E+01  3.810221246E+03  3.816116904E+03  4.315837288E-05  0.00000E+00  9.000E+00
#rwgt            1           1   2.8977669627477512E-002           9      145778           0
</event>
<event>
      5   9999  3.19816E-02  2.51588E+02 -1.00000E+00  1.08136E-01
      21    -1     0     0   502   501  0.000000000E+00  0.000000000E+00  2.123730969E+02  2.123730969E+02  0.000000000E+00  0.00000E+00  9.000E+00
       2    -1     0     0   501     0  0.000000000E+00  0.000000000E+00 -1.168718434E+03  1.168718434E+03  0.000000000E+00  0.00000E+00  9.000E+00
      25     1     1     2     0     0  4.358985276E+02  1.150228442E+02 -3.914020776E+02  6.099658739E+02  1.250000000E+02  0.00000E+00  9.000E+00
      25     1     1     2     0     0 -1.962088808E+02 -3.856906054E+01 -4.175555522E+02  4.795447179E+02  1.250000000E+02  0.00000E+00  9.000E+00
       2     1     1     2   502     0 -2.396896468E+02 -7.645378361E+01 -1.473877076E+02  2.915809393E+02  1.907348633E-06  0.00000E+00  9.000E+00
#rwgt            2          13   4.8826889584440596E-004           9      145911           0
</event>
<event>
      5   9999  3.19816E-02  3.19085E+01 -1.00000E+00  1.51202E-01
      21    -1     0     0   502   501  0.000000000E+00  0.000000000E+00  2.530175445E+02  2.530175445E+02  0.000000000E+00  0.00000E+00  9.000E+00
      21    -1     0     0   501   511  0.000000000E+00  0.000000000E+00 -8.635072109E+02  8.635072109E+02  0.000000000E+00  0.00000E+00  9.000E+00
      25     1     1     2     0     0  1.008647297E+02  6.826419733E+01  6.300297031E+01  1.855480224E+02  1.250000000E+02  0.00000E+00  9.000E+00
      25     1     1     2     0     0 -6.904923214E+01 -7.069900613E+01  7.896784690E+01  1.778400033E+02  1.250000000E+02  0.00000E+00  9.000E+00
      21     1     1     2   502   511 -3.181549759E+01  2.434808801E+00 -7.524604837E+02  7.531367297E+02  1.525878906E-05  0.00000E+00  9.000E+00
#rwgt            1           1   3.4402269049943271E-002           9      145960           0
</event>
<event>
      5   9999  3.19816E-02  9.44297E+01 -1.00000E+00  1.24958E-01
      21    -1     0     0   502   501  0.000000000E+00  0.000000000E+00  1.169324681E+03  1.169324681E+03  0.000000000E+00  0.00000E+00  9.000E+00
      21    -1     0     0   501   512  0.000000000E+00  0.000000000E+00 -6.576234961E+02  6.576234961E+02  0.000000000E+00  0.00000E+00  9.000E+00
      25     1     1     2     0     0 -2.594427728E+02  5.786881020E+02  5.321201947E+02  8.372379431E+02  1.250000000E+02  0.00000E+00  9.000E+00
      25     1     1     2     0     0  1.980030328E+02 -6.503967142E+02  2.248318315E+02  7.269081367E+02  1.250000000E+02  0.00000E+00  9.000E+00
      21     1     1     2   502   512  6.143973999E+01  7.170861213E+01 -2.452508417E+02  2.628020968E+02  2.697398305E-06  0.00000E+00  9.000E+00
#rwgt            1           1   2.9678436357053056E-002           9      146052           0
</event>
<event>
      5   9999  3.19816E-02  1.25992E+02 -1.00000E+00  1.19477E-01
      21    -1     0     0   502   501  0.000000000E+00  0.000000000E+00  2.387167458E+02  2.387167458E+02  0.000000000E+00  0.00000E+00  9.000E+00
       1    -1     0     0   501     0  0.000000000E+00  0.000000000E+00 -6.383127117E+02  6.383127117E+02  0.000000000E+00  0.00000E+00  9.000E+00
      25     1     1     2     0     0 -1.483806529E+02  7.416809462E+01 -7.626438933E+01  2.212667655E+02  1.250000000E+02  0.00000E+00  9.000E+00
      25     1     1     2     0     0  5.010557808E+01  4.673860182E+00  1.287997173E+02  1.864048849E+02  1.250000000E+02  0.00000E+00  9.000E+00
       1     1     1     2   502     0  9.827507487E+01 -7.884195481E+01 -4.521312939E+02  4.693578071E+02  5.394796609E-06  0.00000E+00  9.000E+00
#rwgt            1           1   2.5022188184235641E-002           9      146123           0
</event>
<event>
      5   9999  3.19816E-02  8.95442E+01 -1.00000E+00  1.26024E-01
      21    -1     0     0   502   501  0.000000000E+00  0.000000000E+00  7.559666911E+02  7.559666911E+02  0.000000000E+00  0.00000E+00  9.000E+00
       1    -1     0     0   501     0  0.000000000E+00  0.000000000E+00 -7.232006225E+02  7.232006225E+02  0.000000000E+00  0.00000E+00  9.000E+00
      25     1     1     2     0     0 -6.959671690E+01  9.068978093E+01 -4.529723329E+00  1.694516384E+02  1.250000000E+02  0.00000E+00  9.000E+00
      25     1     1     2     0     0  1.193225612E+02 -1.622161283E+01  6.590622855E+02  6.815343795E+02  1.250000000E+02  0.00000E+00  9.000E+00
       1     1     1     2   502     0 -4.972584427E+01 -7.446816809E+01 -6.217664936E+02  6.281812957E+02  0.000000000E+00  0.00000E+00  9.000E+00
#rwgt            1           1   2.6399810924234473E-002           9      146189           0
</event>
<event>
      5   9999  3.19816E-02  9.71100E+00 -1.00000E+00  1.97241E-01
      21    -1     0     0   511   501  0.000000000E+00  0.000000000E+00  1.902255905E+02  1.902255905E+02  0.000000000E+00  0.00000E+00  9.000E+00
      21    -1     0     0   501   502  0.000000000E+00  0.000000000E+00 -3.593220908E+03  3.593220908E+03  0.000000000E+00  0.00000E+00  9.000E+00
      25     1     1     2     0     0 -7.814887093E+02  9.101233376E+01 -1.816170044E+03  1.983206110E+03  1.250000000E+02  0.00000E+00  9.000E+00
      25     1     1     2     0     0  7.718076273E+02 -9.025058760E+01 -1.600451187E+03  1.783508111E+03  1.250000000E+02  0.00000E+00  9.000E+00
      21     1     1     2   511   502  9.681081960E+00 -7.617461562E-01  1.362591268E+01  1.673227723E+01  9.078709013E-07  0.00000E+00  9.000E+00
#rwgt            1           1   3.3924669136881538E-002           9      146266           0
</event>
<event>
      5   9999  3.19816E-02  3.72369E+01 -1.00000E+00  1.46795E-01
      21    -1     0     0   502   501  0.000000000E+00  0.000000000E+00  1.626238360E+02  1.626238360E+02  0.000000000E+00  0.00000E+00  9.000E+00
      -1    -1     0     0     0   502  0.000000000E+00  0.000000000E+00 -4.549461916E+02  4.549461916E+02  0.000000000E+00  0.00000E+00  9.000E+00
      25     1     1     2     0     0 -9.264119827E+01 -2.818189656E+01  7.008111376E+01  1.729536742E+02  1.250000000E+02  0.00000E+00  9.000E+00
      25     1     1     2     0     0  6.345259100E+01  5.130364959E+01 -1.002114293E+02  1.797932878E+02  1.250000000E+02  0.00000E+00  9.000E+00
      -1     1     1     2     0   501  2.918860727E+01 -2.312175303E+01 -2.621920400E+02  2.648230657E+02  3.814697266E-06  0.00000E+00  9.000E+00
#rwgt            1           1   2.5300049454600508E-002           9      146524           0
</event>
<event>
      5   9999  3.19816E-02  3.03060E+01 -1.00000E+00  1.52734E-01
      21    -1     0     0   502   501  0.000000000E+00  0.000000000E+00  3.585121543E+02  3.585121543E+02  0.000000000E+00  0.00000E+00  9.000E+00
      21    -1     0     0   501   511  0.000000000E+00  0.000000000E+00 -2.611259452E+02  2.611259452E+02  0.000000000E+00  0.00000E+00  9.000E+00
      25     1     1     2     0     0 -1.360518509E+02 -1.180253784E+02 -1.504100649E+02  2.658726832E+02  1.250000000E+02  0.00000E+00  9.000E+00
      25     1     1     2     0     0  1.274023036E+02  8.897986406E+01  2.538900517E+02  3.228527862E+02  1.250000000E+02  0.00000E+00  9.000E+00
      21     1     1     2   502   511  8.649547276E+00  2.904551432E+01 -6.093777730E+00  3.091263006E+01  1.192092896E-07  0.00000E+00  9.000E+00
#rwgt            1           1   2.6296941400044221E-002           9      146703           0
</event>
<event>
      5   9999  3.19816E-02  5.32248E+02 -1.00000E+00  9.80870E-02
      21    -1     0     0   502   501  0.000000000E+00  0.000000000E+00  7.284858695E+02  7.284858695E+02  0.000000000E+00  0.00000E+00  9.000E+00
      -1    -1     0     0     0   502  0.000000000E+00  0.000000000E+00 -1.026805273E+03  1.026805273E+03  0.000000000E+00  0.00000E+00  9.000E+00
      25     1     1     2     0     0  1.911377758E+02  8.995223983E+01  4.654259546E+02  5.261856839E+02  1.250000000E+02  0.00000E+00  9.000E+00
      25     1     1     2     0     0  1.627992136E+00  4.061614769E+02 -4.065178521E+02  5.880914553E+02  1.250000000E+02  0.00000E+00  9.000E+00
      -1     1     1     2     0   501 -1.927657679E+02 -4.961137168E+02 -3.572275059E+02  6.410140031E+02  6.607249480E-06  0.00000E+00  9.000E+00
#rwgt            2          10   7.9307480793158980E-005           9      146812           0
</event>
<event>
      5   9999  3.19816E-02  1.91773E+02 -1.00000E+00  1.12316E-01
      21    -1     0     0   502   501  0.000000000E+00  0.000000000E+00  5.082291995E+02  5.082291995E+02  0.000000000E+00  0.00000E+00  9.000E+00
      21    -1     0     0   511   502  0.000000000E+00  0.000000000E+00 -3.410189795E+02  3.410189795E+02  0.000000000E+00  0.00000E+00  9.000E+00
      25     1     1     2     0     0 -1.322908684E+02 -6.910791828E+01  1.149254748E+02  2.260744191E+02  1.250000000E+02  0.00000E+00  9.000E+00
      25     1     1     2     0     0  2.171987906E+02 -1.028437935E+02  2.347634803E+02  3.584564858E+02  1.250000000E+02  0.00000E+00  9.000E+00
      21     1     1     2   511   501 -8.490792215E+01  1.719517118E+02 -1.824787352E+02  2.647172741E+02  4.672030912E-06  0.00000E+00  9.000E+00
#rwgt            2          11   4.4035266818893380E-003           9      146876           0
</event>
<event>
      5   9999  3.19816E-02  5.84784E+01 -1.00000E+00  1.35302E-01
      21    -1     0     0   512   501  0.000000000E+00  0.000000000E+00  3.455305066E+02  3.455305066E+02  0.000000000E+00  0.00000E+00  9.000E+00
      21    -1     0     0   501   502  0.000000000E+00  0.000000000E+00 -6.666782428E+02  6.666782428E+02  0.000000000E+00  0.00000E+00  9.000E+00
      25     1     1     2     0     0  3.124640653E+01 -4.415358374E+02 -2.783843708E+02  5.376365794E+02  1.250000000E+02  0.00000E+00  9.000E+00
      25     1     1     2     0     0 -5.768389944E+01  3.893747339E+02 -2.635482440E+01  4.138353446E+02  1.250000000E+02  0.00000E+00  9.000E+00
      21     1     1     2   512   502  2.643749291E+01  5.216110345E+01 -1.640854105E+01  6.073682543E+01  4.129530925E-07  0.00000E+00  9.000E+00
#rwgt            1           1   2.7960988949076046E-002           9      146896           0
</event>
<event>
      5   9999  3.19816E-02  7.61473E+01 -1.00000E+00  1.29396E-01
      21    -1     0     0   502   501  0.000000000E+00  0.000000000E+00  1.732376508E+02  1.732376508E+02  0.000000000E+00  0.00000E+00  9.000E+00
       1    -1     0     0   501     0  0.000000000E+00  0.000000000E+00 -5.427571588E+02  5.427571588E+02  0.000000000E+00  0.00000E+00  9.000E+00
      25     1     1     2     0     0  1.148614313E+02  6.620080966E+01 -1.254635885E+02  2.212279540E+02  1.250000000E+02  0.00000E+00  9.000E+00
      25     1     1     2     0     0 -4.929529971E+01 -1.049240215E+02  6.045180137E+01  1.808825507E+02  1.250000000E+02  0.00000E+00  9.000E+00
       1     1     1     2   502     0 -6.556613162E+01  3.872321180E+01 -3.045077209E+02  3.138843049E+02  3.814697266E-06  0.00000E+00  9.000E+00
#rwgt            1           1   3.0175116463909239E-002           9      146998           0
</event>
<event>
      5   9999  3.19816E-02  8.94498E+01 -1.00000E+00  1.26046E-01
      21    -1     0     0   502   501  0.000000000E+00  0.000000000E+00  7.713066857E+02  7.713066857E+02  0.000000000E+00  0.00000E+00  9.000E+00
      21    -1     0     0   501   511  0.000000000E+00  0.000000000E+00 -7.054277155E+02  7.054277155E+02  0.000000000E+00  0.00000E+00  9.000E+00
      25     1     1     2     0     0  3.690462865E+02  5.810942751E+02 -2.029192766E+01  6.999303397E+02  1.250000000E+02  0.00000E+00  9.000E+00
      25     1     1     2     0     0 -2.941599286E+02 -5.321729813E+02  1.808197678E+02  6.465747707E+02  1.250000000E+02  0.00000E+00  9.000E+00
      21     1     1     2   502   511 -7.488635792E+01 -4.892129382E+01 -9.464886994E+01  1.302292908E+02  2.697398305E-06  0.00000E+00  9.000E+00
#rwgt            1           1   2.5350710657736534E-002           9      147039           0
</event>
<event>
      5   9999  3.19816E-02  3.87304E+01 -1.00000E+00  1.45714E-01
       2    -1     0     0   502     0  0.000000000E+00  0.000000000E+00  1.746503049E+03  1.746503049E+03  0.000000000E+00  0.00000E+00  9.000E+00
      21    -1     0     0   501   502  0.000000000E+00  0.000000000E+00 -1.567150457E+02  1.567150457E+02  0.000000000E+00  0.00000E+00  9.000E+00
      25     1     1     2     0     0 -3.454778943E+02  7.582252735E+01  3.993907492E+02  5.479434292E+02  1.250000000E+02  0.00000E+00  9.000E+00
      25     1     1     2     0     0  3.485075867E+02 -3.721078654E+01  3.401691788E+02  5.041649044E+02  1.250000000E+02  0.00000E+00  9.000E+00
       2     1     1     2   501     0 -3.029692375E+00 -3.861174081E+01  8.502280749E+02  8.511097608E+02  0.000000000E+00  0.00000E+00  9.000E+00
#rwgt            1           1   2.8901785319246264E-002           9      147146           0
</event>
<event>
      5   9999  3.19816E-02  2.31324E+01 -1.00000E+00  1.61319E-01
      21    -1     0     0   502   501  0.000000000E+00  0.000000000E+00  2.188381553E+02  2.188381553E+02  0.000000000E+00  0.00000E+00  9.000E+00
      21    -1     0     0   501   511  0.000000000E+00  0.000000000E+00 -2.986745263E+02  2.986745263E+02  0.000000000E+00  0.00000E+00  9.000E+00
      25     1     1     2     0     0  1.342017510E+02 -1.174135732E+02  9.034938074E+01  2.357627361E+02  1.250000000E+02  0.00000E+00  9.000E+00
      25     1     1     2     0     0 -1.133659532E+02  1.073648406E+02 -1.613837413E+02  2.569995336E+02  1.250000000E+02  0.00000E+00  9.000E+00
      21     1     1     2   502   511 -2.083579784E+01  1.004873264E+01 -8.802010430E+00  2.475041185E+01  4.616955931E-07  0.00000E+00  9.000E+00
#rwgt            1           1   2.6202095397323093E-002           9      147263           0
</event>
<event>
      5   9999  3.19816E-02  5.07741E+01 -1.00000E+00  1.38696E-01
      21    -1     0     0   502   501  0.000000000E+00  0.000000000E+00  3.563847713E+02  3.563847713E+02  0.000000000E+00  0.00000E+00  9.000E+00
      21    -1     0     0   501   512  0.000000000E+00  0.000000000E+00 -9.140144840E+02  9.140144840E+02  0.000000000E+00  0.00000E+00  9.000E+00
      25     1     1     2     0     0 -2.160002658E+01 -1.482029941E+00 -2.340259940E+02  2.661990297E+02  1.250000000E+02  0.00000E+00  9.000E+00
      25     1     1     2     0     0 -2.581458961E+01  1.964430839E+01  3.270214844E+02  3.515968475E+02  1.250000000E+02  0.00000E+00  9.000E+00
      21     1     1     2   502   512  4.741461619E+01 -1.816227845E+01 -6.506252031E+02  6.526033780E+02  1.078959322E-05  0.00000E+00  9.000E+00
#rwgt            1           1   2.8833493827211065E-002           9      147391           0
</event>
<event>
      5   9999  3.19816E-02  1.25211E+01 -1.00000E+00  1.85108E-01
      21    -1     0     0   502   501  0.000000000E+00  0.000000000E+00  5.694418854E+02  5.694418854E+02  0.000000000E+00  0.00000E+00  9.000E+00
      21    -1     0     0   511   502  0.000000000E+00  0.000000000E+00 -9.189918064E+01  9.189918064E+01  0.000000000E+00  0.00000E+00  9.000E+00
      25     1     1     2     0     0  4.812086082E+01  1.572569982E+02  1.560901511E+02  2.589102470E+02  1.250000000E+02  0.00000E+00  9.000E+00
      25     1     1     2     0     0 -3.641630977E+01 -1.617045782E+02  3.280926317E+02  3.882580240E+02  1.250000000E+02  0.00000E+00  9.000E+00
      21     1     1     2   511   501 -1.170455105E+01  4.447579971E+00 -6.640078037E+00  1.417279504E+01  2.665600750E-07  0.00000E+00  9.000E+00
#rwgt            1           1   2.8212449992714814E-002           9      147483           0
</event>
<event>
      5   9999  3.19816E-02  1.76852E+02 -1.00000E+00  1.13628E-01
      -3    -1     0     0     0   501  0.000000000E+00  0.000000000E+00  9.445914752E+02  9.445914752E+02  0.000000000E+00  0.00000E+00  9.000E+00
      21    -1     0     0   501   502  0.000000000E+00  0.000000000E+00 -2.593174848E+03  2.593174848E+03  0.000000000E+00  0.00000E+00  9.000E+00
      25     1     1     2     0     0 -8.868175946E+02  1.004972667E+03 -1.051016727E+03  1.707828056E+03  1.250000000E+02  0.00000E+00  9.000E+00
      25     1     1     2     0     0  8.081837704E+02 -1.163381678E+03 -7.398055430E+02  1.602983212E+03  1.250000000E+02  0.00000E+00  9.000E+00
      -3     1     1     2     0   502  7.863382422E+01  1.584090108E+02  1.422388977E+02  2.269550551E+02  0.000000000E+00  0.00000E+00  9.000E+00
#rwgt            1           1   5.7132456430464176E-002           9      147625           0
</event>
<event>
      5   9999  3.19816E-02  3.83998E+01 -1.00000E+00  1.45948E-01
      21    -1     0     0   502   511  0.000000000E+00  0.000000000E+00  1.289900314E+03  1.289900314E+03  0.000000000E+00  0.00000E+00  9.000E+00
      21    -1     0     0   501   502  0.000000000E+00  0.000000000E+00 -1.088581816E+02  1.088581816E+02  0.000000000E+00  0.00000E+00  9.000E+00
      25     1     1     2     0     0  3.075042754E+02 -6.185509200E+01  3.644601726E+02  4.968311074E+02  1.250000000E+02  0.00000E+00  9.000E+00
      25     1     1     2     0     0 -3.142251736E+02  2.404797837E+01  6.768011749E+02  7.569680279E+02  1.250000000E+02  0.00000E+00  9.000E+00
      21     1     1     2   501   511  6.720898202E+00  3.780711363E+01  1.397807849E+02  1.449593603E+02  2.697398305E-06  0.00000E+00  9.000E+00
#rwgt            1           1   2.6300475167751421E-002           9      147720           0
</event>
<event>
      5   9999  3.19816E-02  1.87159E+02 -1.00000E+00  1.12707E-01
       2    -1     0     0   502     0  0.000000000E+00  0.000000000E+00  1.013501865E+03  1.013501865E+03  0.000000000E+00  0.00000E+00  9.000E+00
      21    -1     0     0   501   502  0.000000000E+00  0.000000000E+00 -2.238439408E+02  2.238439408E+02  0.000000000E+00  0.00000E+00  9.000E+00
      25     1     1     2     0     0  2.060275493E+01  1.878836542E+02  4.720581302E+02  5.236302315E+02  1.250000000E+02  0.00000E+00  9.000E+00
      25     1     1     2     0     0  1.471773793E+02 -2.708182051E+02 -1.404482357E+01  3.329052993E+02  1.250000000E+02  0.00000E+00  9.000E+00
       2     1     1     2   501     0 -1.677801342E+02  8.293455087E+01  3.316446172E+02  3.808102747E+02  0.000000000E+00  0.00000E+00  9.000E+00
#rwgt            1           1   3.0606215362909653E-002           9      147852           0
</event>
<event>
      5   9999  3.19816E-02  1.00720E+02 -1.00000E+00  1.23688E-01
      21    -1     0     0   511   501  0.000000000E+00  0.000000000E+00  3.237195146E+02  3.237195146E+02  0.000000000E+00  0.00000E+00  9.000E+00
      21    -1     0     0   501   502  0.000000000E+00  0.000000000E+00 -1.236241282E+03  1.236241282E+03  0.000000000E+00  0.00000E+00  9.000E+00
      25     1     1     2     0     0  1.359376759E+02 -2.540487985E+01 -1.122070161E+03  1.137449298E+03  1.250000000E+02  0.00000E+00  9.000E+00
      25     1     1     2     0     0 -1.798701224E+02 -6.522901213E+01  2.248803439E+02  3.206310247E+02  1.250000000E+02  0.00000E+00  9.000E+00
      21     1     1     2   511   502  4.393244642E+01  9.063389198E+01 -1.533195018E+01  1.018804737E+02  9.830249847E-07  0.00000E+00  9.000E+00
#rwgt            1           1   1.6121309505163123E-002           9      147891           0
</event>
<event>
      5   9999  3.19816E-02  9.05454E+01 -1.00000E+00  1.25800E-01
      21    -1     0     0   502   501  0.000000000E+00  0.000000000E+00  1.765694867E+02  1.765694867E+02  0.000000000E+00  0.00000E+00  9.000E+00
      21    -1     0     0   512   502  0.000000000E+00  0.000000000E+00 -1.618641987E+03  1.618641987E+03  0.000000000E+00  0.00000E+00  9.000E+00
      25     1     1     2     0     0  2.973873927E+02 -2.859986818E+02 -3.665938917E+02  5.659068729E+02  1.250000000E+02  0.00000E+00  9.000E+00
      25     1     1     2     0     0 -2.374760696E+02  2.181083585E+02 -3.288782041E+02  4.772337088E+02  1.250000000E+02  0.00000E+00  9.000E+00
      21     1     1     2   512   501 -5.991132308E+01  6.789032334E+01 -7.466004040E+02  7.520708916E+02  0.000000000E+00  0.00000E+00  9.000E+00
#rwgt            1           1   2.6996489687105978E-002           9      147991           0
</event>
<event>
      5   9999  3.19816E-02  1.96617E+02 -1.00000E+00  1.11918E-01
      21    -1     0     0   502   501  0.000000000E+00  0.000000000E+00  2.567752654E+03  2.567752654E+03  0.000000000E+00  0.00000E+00  9.000E+00
      21    -1     0     0   501   511  0.000000000E+00  0.000000000E+00 -7.087012480E+01  7.087012480E+01  0.000000000E+00  0.00000E+00  9.000E+00
      25     1     1     2     0     0  1.006830024E+02 -6.016894209E+01  5.024442962E+02  5.308791194E+02  1.250000000E+02  0.00000E+00  9.000E+00
      25     1     1     2     0     0 -1.492412534E+02 -1.303570307E+02  1.847477000E+03  1.862273389E+03  1.250000000E+02  0.00000E+00  9.000E+00
      21     1     1     2   502   511  4.855825101E+01  1.905259728E+02  1.469612331E+02  2.454702713E+02  1.907348633E-06  0.00000E+00  9.000E+00
#rwgt            1           1   6.6996697354619564E-002           9      148049           0
</event>
<event>
      5   9999  3.19816E-02  1.02023E+02 -1.00000E+00  1.23438E-01
      21    -1     0     0   502   501  0.000000000E+00  0.000000000E+00  1.421977653E+03  1.421977653E+03  0.000000000E+00  0.00000E+00  9.000E+00
      21    -1     0     0   501   512  0.000000000E+00  0.000000000E+00 -3.746380012E+02  3.746380012E+02  0.000000000E+00  0.00000E+00  9.000E+00
      25     1     1     2     0     0 -2.520691952E+02 -1.929960813E+02  1.193844051E+03  1.241642052E+03  1.250000000E+02  0.00000E+00  9.000E+00
      25     1     1     2     0     0  2.844658874E+02  2.897385009E+02 -1.558353874E+02  4.525250358E+02  1.250000000E+02  0.00000E+00  9.000E+00
      21     1     1     2   502   512 -3.239669219E+01 -9.674241963E+01  9.330987964E+00  1.024485664E+02  2.448873351E-06  0.00000E+00  9.000E+00
#rwgt            1           1   2.2170599730172269E-002           9      148079           0
</event>
<event>
      5   9999  3.19816E-02  8.59582E+01 -1.00000E+00  1.26857E-01
      21    -1     0     0   502   501  0.000000000E+00  0.000000000E+00  1.481460590E+03  1.481460590E+03  0.000000000E+00  0.00000E+00  9.000E+00
      21    -1     0     0   501   511  0.000000000E+00  0.000000000E+00 -2.409172322E+02  2.409172322E+02  0.000000000E+00  0.00000E+00  9.000E+00
      25     1     1     2     0     0 -3.921610757E+02  1.255685823E+02  6.603436961E+02  7.881856223E+02  1.250000000E+02  0.00000E+00  9.000E+00
      25     1     1     2     0     0  3.242753280E+02 -7.283959679E+01  7.010747703E+02  7.858695367E+02  1.250000000E+02  0.00000E+00  9.000E+00
      21     1     1     2   502   511  6.788574768E+01 -5.272898550E+01 -1.208751085E+02  1.483226635E+02  4.473129043E-06  0.00000E+00  9.000E+00
#rwgt            1           1   2.7912407446260411E-002           9      148157           0
</event>
<event>
      5   9999  3.19816E-02  9.85550E+01 -1.00000E+00  1.24113E-01
      21    -1     0     0   502   501  0.000000000E+00  0.000000000E+00  1.016111600E+03  1.016111600E+03  0.000000000E+00  0.00000E+00  9.000E+00
      21    -1     0     0   501   512  0.000000000E+00  0.000000000E+00 -1.474164070E+03  1.474164070E+03  0.000000000E+00  0.00000E+00  9.000E+00
      25     1     1     2     0     0  7.376761037E+02  8.989555922E+02  3.465586016E-01  1.169577834E+03  1.250000000E+02  0.00000E+00  9.000E+00
      25     1     1     2     0     0 -7.527651943E+02 -8.015625866E+02 -3.223249469E+02  1.152682259E+03  1.250000000E+02  0.00000E+00  9.000E+00
      21     1     1     2   502   512  1.508909061E+01 -9.739300554E+01 -1.360740824E+02  1.680155769E+02  3.303624740E-06  0.00000E+00  9.000E+00
#rwgt            1           1   7.3233215936238286E-002           9      148280           0
</event>
<event>
      5   9999  3.19816E-02  7.87615E+01 -1.00000E+00  1.28678E-01
      21    -1     0     0   502   501  0.000000000E+00  0.000000000E+00  5.741842399E+01  5.741842399E+01  0.000000000E+00  0.00000E+00  9.000E+00
       2    -1     0     0   501     0  0.000000000E+00  0.000000000E+00 -1.939025306E+03  1.939025306E+03  0.000000000E+00  0.00000E+00  9.000E+00
      25     1     1     2     0     0  1.047374085E+02  6.948395218E+01 -1.506468711E+02  2.326315201E+02  1.250000000E+02  0.00000E+00  9.000E+00
      25     1     1     2     0     0 -2.633094287E+01 -6.201446573E+01 -3.134393127E+02  3.441050933E+02  1.250000000E+02  0.00000E+00  9.000E+00
       2     1     1     2   502     0 -7.840646563E+01 -7.469486451E+00 -1.417520698E+03  1.419707116E+03  1.525878906E-05  0.00000E+00  9.000E+00
#rwgt            1           1   2.6476570218631413E-002           9      148368           0
</event>
<event>
      5   9999  3.19816E-02  2.37193E+01 -1.00000E+00  1.60481E-01
      21    -1     0     0   502   501  0.000000000E+00  0.000000000E+00  1.969259779E+02  1.969259779E+02  0.000000000E+00  0.00000E+00  9.000E+00
      21    -1     0     0   501   511  0.000000000E+00  0.000000000E+00 -2.630050661E+02  2.630050661E+02  0.000000000E+00  0.00000E+00  9.000E+00
      25     1     1     2     0     0 -9.206201693E+01  9.941733790E+01  5.917974065E+01  1.936142137E+02  1.250000000E+02  0.00000E+00  9.000E+00
      25     1     1     2     0     0  8.890114194E+01 -1.229250454E+02 -7.436025138E+01  2.101628579E+02  1.250000000E+02  0.00000E+00  9.000E+00
      21     1     1     2   502   511  3.160874987E+00  2.350770754E+01 -5.089857747E+01  5.615397255E+01  9.536743164E-07  0.00000E+00  9.000E+00
#rwgt            1           1   3.2159727790093039E-002           9      148430           0
</event>
<event>
      5   9999  3.19816E-02  3.09101E+01 -1.00000E+00  1.52144E-01
      21    -1     0     0   502   501  0.000000000E+00  0.000000000E+00  1.376276821E+03  1.376276821E+03  0.000000000E+00  0.00000E+00  9.000E+00
      21    -1     0     0   501   512  0.000000000E+00  0.000000000E+00 -8.913556956E+01  8.913556956E+01  0.000000000E+00  0.00000E+00  9.000E+00
      25     1     1     2     0     0 -7.940621835E+01 -9.550509761E+01  5.191230216E+01  1.837020912E+02  1.250000000E+02  0.00000E+00  9.000E+00
      25     1     1     2     0     0  1.033614481E+02  1.150392676E+02  1.234890186E+03  1.250798302E+03  1.250000000E+02  0.00000E+00  9.000E+00
      21     1     1     2   502   512 -2.395522974E+01 -1.953417002E+01  3.387639230E-01  3.091199753E+01  1.983520316E-07  0.00000E+00  9.000E+00
#rwgt            1           1   2.9737752413008713E-002           9      148621           0
</event>
<event>
      5   9999  3.40426E-02  8.57155E+01 -1.00000E+00  1.26916E-01
      21    -1     0     0   502   501  0.000000000E+00  0.000000000E+00  2.004654289E+03  2.004654289E+03  0.000000000E+00  0.00000E+00  9.000E+00
      21    -1     0     0   511   502  0.000000000E+00  0.000000000E+00 -1.281808929E+03  1.281808929E+03  0.000000000E+00  0.00000E+00  9.000E+00
      25     1     1     2     0     0  9.722998887E+01 -4.759516750E+01  1.802398861E+03  1.809968404E+03  1.250000000E+02  0.00000E+00  9.000E+00
      25     1     1     2     0     0 -1.143630759E+02 -3.639053265E+01  1.588803706E+02  2.350981841E+02  1.250000000E+02  0.00000E+00  9.000E+00
      21     1     1     2   511   501  1.713308703E+01  8.398570015E+01 -1.238433871E+03  1.241396630E+03  1.525878906E-05  0.00000E+00  9.000E+00
#rwgt            1           1   9.4267721493392645E-002           9      148729           0
</event>
<event>
      5   9999  3.19816E-02  1.52186E+02 -1.00000E+00  1.16145E-01
      21    -1     0     0   512   501  0.000000000E+00  0.000000000E+00  1.691778835E+03  1.691778835E+03  0.000000000E+00  0.00000E+00  9.000E+00
      21    -1     0     0   501   502  0.000000000E+00  0.000000000E+00 -4.055534409E+01  4.055534409E+01  0.000000000E+00  0.00000E+00  9.000E+00
      25     1     1     2     0     0  5.623493999E+01  3.769636271E+01  7.335383352E+02  7.471859697E+02  1.250000000E+02  0.00000E+00  9.000E+00
      25     1     1     2     0     0  9.446010171E+01 -1.644644485E+01  2.171712610E+02  2.682937811E+02  1.250000000E+02  0.00000E+00  9.000E+00
      21     1     1     2   512   502 -1.506950417E+02 -2.124991787E+01  7.005138949E+02  7.168544284E+02  1.525878906E-05  0.00000E+00  9.000E+00
#rwgt            1           1   3.0884639619105904E-002           9      148827           0
</event>
<event>
      5   9999  3.19816E-02  9.15902E+00 -1.00000E+00  2.00273E-01
       4    -1     0     0   502     0  0.000000000E+00  0.000000000E+00  7.310735030E+02  7.310735030E+02  0.000000000E+00  0.00000E+00  9.000E+00
      21    -1     0     0   501   502  0.000000000E+00  0.000000000E+00 -8.382067217E+01  8.382067217E+01  0.000000000E+00  0.00000E+00  9.000E+00
      25     1     1     2     0     0  1.582045958E+01 -5.861816972E+01  1.686110191E+02  2.184972598E+02  1.250000000E+02  0.00000E+00  9.000E+00
      25     1     1     2     0     0 -1.668782430E+01  6.773603047E+01  2.824748450E+01  1.459094709E+02  1.250000000E+02  0.00000E+00  9.000E+00
       4     1     1     2   501     0  8.673647148E-01 -9.117860745E+00  4.503943272E+02  4.504874445E+02  5.394796609E-06  0.00000E+00  9.000E+00
#rwgt            1           1   5.6404934850787854E-002           9      148873           0
</event>
<event>
      5   9999  3.19816E-02  1.15787E+01 -1.00000E+00  1.88675E-01
      -2    -1     0     0     0   501  0.000000000E+00  0.000000000E+00  1.926331389E+02  1.926331389E+02  0.000000000E+00  0.00000E+00  9.000E+00
      21    -1     0     0   501   502  0.000000000E+00  0.000000000E+00 -1.900980015E+02  1.900980015E+02  0.000000000E+00  0.00000E+00  9.000E+00
      25     1     1     2     0     0 -3.911247618E+01  9.082164089E+01 -4.670636861E+00  1.594527237E+02  1.250000000E+02  0.00000E+00  9.000E+00
      25     1     1     2     0     0  5.003276231E+01 -8.697272296E+01 -4.764397797E+01  1.672198567E+02  1.250000000E+02  0.00000E+00  9.000E+00
      -2     1     1     2     0   502 -1.092028612E+01 -3.848917930E+00  5.484975223E+01  5.605855990E+01  9.536743164E-07  0.00000E+00  9.000E+00
#rwgt            1           1   2.1470813074030971E-002           9      149154           0
</event>
<event>
      5   9999  3.19816E-02  2.37376E+02 -1.00000E+00  1.09005E-01
      21    -1     0     0   511   501  0.000000000E+00  0.000000000E+00  4.320587489E+02  4.320587489E+02  0.000000000E+00  0.00000E+00  9.000E+00
      21    -1     0     0   501   502  0.000000000E+00  0.000000000E+00 -7.444261106E+02  7.444261106E+02  0.000000000E+00  0.00000E+00  9.000E+00
      25     1     1     2     0     0  4.438021567E+02 -2.768062690E+02 -2.441561069E+02  5.906092358E+02  1.250000000E+02  0.00000E+00  9.000E+00
      25     1     1     2     0     0 -2.179900051E+02  2.036210349E+02 -1.162529657E+02  3.436872418E+02  1.250000000E+02  0.00000E+00  9.000E+00
      21     1     1     2   511   502 -2.258121516E+02  7.318523414E+01  4.804171089E+01  2.421883818E+02  5.046370146E-06  0.00000E+00  9.000E+00
#rwgt            2          11   3.8778119846025337E-003           9      149327           0
</event>
<event>
      5   9999  3.19816E-02  4.70841E+02 -1.00000E+00  9.95991E-02
       1    -1     0     0   502     0  0.000000000E+00  0.000000000E+00  1.719508161E+03  1.719508161E+03  0.000000000E+00  0.00000E+00  9.000E+00
      21    -1     0     0   501   502  0.000000000E+00  0.000000000E+00 -7.514337843E+02  7.514337843E+02  0.000000000E+00  0.00000E+00  9.000E+00
      25     1     1     2     0     0  5.863119068E+01 -8.595519592E+02  1.187192062E+01  8.706509804E+02  1.250000000E+02  0.00000E+00  9.000E+00
      25     1     1     2     0     0  3.819461669E+02  6.934716497E+02  7.006129353E+02  1.064551215E+03  1.250000000E+02  0.00000E+00  9.000E+00
       1     1     1     2   501     0 -4.405773576E+02  1.660803095E+02  2.555895212E+02  5.357397508E+02  3.814697266E-06  0.00000E+00  9.000E+00
#rwgt            2          17   3.8140710213094883E-004           9      149602           0
</event>
<event>
      5   9999  3.19816E-02  6.32674E+01 -1.00000E+00  1.33484E-01
      21    -1     0     0   511   501  0.000000000E+00  0.000000000E+00  1.216108317E+03  1.216108317E+03  0.000000000E+00  0.00000E+00  9.000E+00
      21    -1     0     0   501   502  0.000000000E+00  0.000000000E+00 -2.984748006E+02  2.984748006E+02  0.000000000E+00  0.00000E+00  9.000E+00
      25     1     1     2     0     0 -2.339848028E+02  2.926276501E+01 -1.706056431E+02  3.167593453E+02  1.250000000E+02  0.00000E+00  9.000E+00
      25     1     1     2     0     0  2.934041088E+02 -5.099079345E+01  4.363629290E+02  5.428845530E+02  1.250000000E+02  0.00000E+00  9.000E+00
      21     1     1     2   511   502 -5.941930597E+01  2.172802844E+01  6.518762305E+02  6.549392193E+02  7.629394531E-06  0.00000E+00  9.000E+00
#rwgt            1           1   2.6266920078548386E-002           9      149636           0
</event>
<event>
      5   9999  3.19816E-02  4.65174E+01 -1.00000E+00  1.40888E-01
      21    -1     0     0   502   501  0.000000000E+00  0.000000000E+00  9.264144756E+01  9.264144756E+01  0.000000000E+00  0.00000E+00  9.000E+00
      21    -1     0     0   501   512  0.000000000E+00  0.000000000E+00 -1.287681670E+03  1.287681670E+03  0.000000000E+00  0.00000E+00  9.000E+00
      25     1     1     2     0     0  1.392203872E+02 -2.778042189E+02 -4.446259677E+02  5.566639484E+02  1.250000000E+02  0.00000E+00  9.000E+00
      25     1     1     2     0     0 -1.171536009E+02  2.368539528E+02 -6.646508203E+02  7.260926071E+02  1.250000000E+02  0.00000E+00  9.000E+00
      21     1     1     2   502   512 -2.206678632E+01  4.095026616E+01 -8.576343481E+01  9.756656245E+01  9.536743164E-07  0.00000E+00  9.000E+00
#rwgt            1           1   3.4231452424703122E-002           9      149774           0
</event>
<event>
      5   9999  3.19816E-02  5.19036E+01 -1.00000E+00  1.38156E-01
      21    -1     0     0   502   501  0.000000000E+00  0.000000000E+00  3.156322598E+02  3.156322598E+02  0.000000000E+00  0.00000E+00  9.000E+00
      21    -1     0     0   511   502  0.000000000E+00  0.000000000E+00 -2.307695730E+02  2.307695730E+02  0.000000000E+00  0.00000E+00  9.000E+00
      25     1     1     2     0     0 -7.609529888E+01  2.342826263E+01  2.254876456E+02  2.698315332E+02  1.250000000E+02  0.00000E+00  9.000E+00
      25     1     1     2     0     0  1.034304410E+02 -6.755054347E+01 -1.399544185E+02  2.246623495E+02  1.250000000E+02  0.00000E+00  9.000E+00
      21     1     1     2   511   501 -2.733514211E+01  4.412228084E+01 -6.705403386E-01  5.190795012E+01  9.688619960E-07  0.00000E+00  9.000E+00
#rwgt            1           1   2.7463489406620845E-002           9      149902           0
</event>
<event>
      5   9999  3.19816E-02  9.98338E+01 -1.00000E+00  1.23860E-01
      21    -1     0     0   502   501  0.000000000E+00  0.000000000E+00  1.457510753E+03  1.457510753E+03  0.000000000E+00  0.00000E+00  9.000E+00
      21    -1     0     0   512   502  0.000000000E+00  0.000000000E+00 -1.051361572E+02  1.051361572E+02  0.000000000E+00  0.00000E+00  9.000E+00
      25     1     1     2     0     0  1.725144099E+02  1.697709871E+02  2.641227010E+02  3.794327488E+02  1.250000000E+02  0.00000E+00  9.000E+00
      25     1     1     2     0     0 -2.420002484E+02 -9.808755254E+01  1.024837911E+03  1.064942737E+03  1.250000000E+02  0.00000E+00  9.000E+00
      21     1     1     2   512   501  6.948583852E+01 -7.168343454E+01  6.341398322E+01  1.182714243E+02  1.784161275E-06  0.00000E+00  9.000E+00
#rwgt            1           1   2.7235276292771834E-002           9      150038           0
</event>
<event>
      5   9999  3.19816E-02  1.62440E+01 -1.00000E+00  1.74185E-01
      21    -1     0     0   502   501  0.000000000E+00  0.000000000E+00  9.736506421E+02  9.736506421E+02  0.000000000E+00  0.00000E+00  9.000E+00
      21    -1     0     0   501   511  0.000000000E+00  0.000000000E+00 -2.665377773E+01  2.665377773E+01  0.000000000E+00  0.00000E+00  9.000E+00
      25     1     1     2     0     0 -6.706215765E+01 -1.826875359E+01  4.061526739E+02  4.305996689E+02  1.250000000E+02  0.00000E+00  9.000E+00
      25     1     1     2     0     0  5.371954764E+01  9.003704207E+00  5.355266557E+02  5.526125727E+02  1.250000000E+02  0.00000E+00  9.000E+00
      21     1     1     2   502   511  1.334261000E+01  9.265049380E+00  5.317534757E+00  1.709217826E+01  4.042583694E-07  0.00000E+00  9.000E+00
#rwgt            1           1   2.2952244419921938E-002           9      150074           0
</event>
<event>
      5   9999  3.19816E-02  5.17994E+02 -1.00000E+00  9.84177E-02
      21    -1     0     0   502   501  0.000000000E+00  0.000000000E+00  5.681577960E+02  5.681577960E+02  0.000000000E+00  0.00000E+00  9.000E+00
      -1    -1     0     0     0   502  0.000000000E+00  0.000000000E+00 -1.117988801E+03  1.117988801E+03  0.000000000E+00  0.00000E+00  9.000E+00
      25     1     1     2     0     0 -1.653280230E+02 -6.347838792E+01  3.263724613E+02  3.917994952E+02  1.250000000E+02  0.00000E+00  9.000E+00
      25     1     1     2     0     0 -9.127972636E+01 -3.864890245E+02 -5.179618307E+02  6.645413551E+02  1.250000000E+02  0.00000E+00  9.000E+00
      -1     1     1     2     0   501  2.566077494E+02  4.499674124E+02 -3.582416356E+02  6.298057469E+02  3.814697266E-06  0.00000E+00  9.000E+00
#rwgt            1           1   2.8086368036632333E-002           9      150203           0
</event>
<event>
      5   9999  3.19816E-02  3.28767E+01 -1.00000E+00  1.50328E-01
      21    -1     0     0   511   501  0.000000000E+00  0.000000000E+00  1.011290593E+03  1.011290593E+03  0.000000000E+00  0.00000E+00  9.000E+00
      21    -1     0     0   501   502  0.000000000E+00  0.000000000E+00 -2.291388947E+02  2.291388947E+02  0.000000000E+00  0.00000E+00  9.000E+00
      25     1     1     2     0     0 -7.389908973E+01  4.301735234E+02  1.872084955E+02  4.911032035E+02  1.250000000E+02  0.00000E+00  9.000E+00
      25     1     1     2     0     0  7.152747373E+01 -3.973825038E+02  5.510230281E+02  6.944641181E+02  1.250000000E+02  0.00000E+00  9.000E+00
      21     1     1     2   511   502  2.371616002E+00 -3.279101963E+01  4.392017460E+01  5.486216609E+01  4.768371582E-07  0.00000E+00  9.000E+00
#rwgt            1           1   2.8665513966461664E-002           9      150245           0
</event>
<event>
      5   9999  3.22205E-02  5.57482E+01 -1.00000E+00  1.36432E-01
      21    -1     0     0   512   501  0.000000000E+00  0.000000000E+00  9.241252159E+02  9.241252159E+02  0.000000000E+00  0.00000E+00  9.000E+00
      21    -1     0     0   501   502  0.000000000E+00  0.000000000E+00 -1.309642015E+03  1.309642015E+03  0.000000000E+00  0.00000E+00  9.000E+00
      25     1     1     2     0     0  1.306550458E+02  6.956260933E+02 -9.358090306E+02  1.179970315E+03  1.250000000E+02  0.00000E+00  9.000E+00
      25     1     1     2     0     0 -1.773200525E+02 -6.651262235E+02  2.416681461E+02  7.401782130E+02  1.250000000E+02  0.00000E+00  9.000E+00
      21     1     1     2   512   502  4.666500675E+01 -3.049986980E+01  3.086240853E+02  3.136187031E+02  3.814697266E-06  0.00000E+00  9.000E+00
#rwgt            1           1   3.2895994052110453E-002           9      150370           0
</event>
<event>
      5   9999  3.19816E-02  2.94887E+00 -1.00000E+00  2.99152E-01
      21    -1     0     0   502   501  0.000000000E+00  0.000000000E+00  5.339100989E+02  5.339100989E+02  0.000000000E+00  0.00000E+00  9.000E+00
      21    -1     0     0   501   511  0.000000000E+00  0.000000000E+00 -5.220045791E+02  5.220045791E+02  0.000000000E+00  0.00000E+00  9.000E+00
      25     1     1     2     0     0 -3.087849116E+02 -3.416095341E+02  2.228891613E+02  5.266400798E+02  1.250000000E+02  0.00000E+00  9.000E+00
      25     1     1     2     0     0  3.101031972E+02  3.442473298E+02 -2.035458571E+02  5.212735682E+02  1.250000000E+02  0.00000E+00  9.000E+00
      21     1     1     2   502   511 -1.318285564E+00 -2.637795720E+00 -7.437784398E+00  8.001029924E+00  1.192092896E-07  0.00000E+00  9.000E+00
#rwgt            1           1   2.3128250089793682E-002           9      150527           0
</event>
<event>
      5   9999  3.19816E-02  5.63912E+01 -1.00000E+00  1.36159E-01
      21    -1     0     0   502   501  0.000000000E+00  0.000000000E+00  2.733071867E+02  2.733071867E+02  0.000000000E+00  0.00000E+00  9.000E+00
      21    -1     0     0   512   502  0.000000000E+00  0.000000000E+00 -9.110459613E+02  9.110459613E+02  0.000000000E+00  0.00000E+00  9.000E+00
      25     1     1     2     0     0 -3.441055375E+02 -1.572006780E+02 -6.313304358E+01  4.033998702E+02  1.250000000E+02  0.00000E+00  9.000E+00
      25     1     1     2     0     0  2.947306836E+02  1.299593728E+02 -1.941211239E+02  3.963125348E+02  1.250000000E+02  0.00000E+00  9.000E+00
      21     1     1     2   512   501  4.937485390E+01  2.724130515E+01 -3.804846071E+02  3.846407430E+02  0.000000000E+00  0.00000E+00  9.000E+00
#rwgt            1           1   2.6678083173963054E-002           9      151155           0
</event>
<event>
      5   9999  3.19816E-02  2.38659E+01 -1.00000E+00  1.60276E-01
      21    -1     0     0   502   511  0.000000000E+00  0.000000000E+00  9.191866718E+02  9.191866718E+02  0.000000000E+00  0.00000E+00  9.000E+00
      21    -1     0     0   501   502  0.000000000E+00  0.000000000E+00 -5.239569641E+01  5.239569641E+01  0.000000000E+00  0.00000E+00  9.000E+00
      25     1     1     2     0     0  1.034719322E+02  1.061284403E+02  4.210266245E+02  4.635278903E+02  1.250000000E+02  0.00000E+00  9.000E+00
      25     1     1     2     0     0 -8.613066806E+01 -1.225254475E+02  2.840422362E+02  3.445808602E+02  1.250000000E+02  0.00000E+00  9.000E+00
      21     1     1     2   501   511 -1.734126413E+01  1.639700723E+01  1.617221148E+02  1.634736177E+02  1.907348633E-06  0.00000E+00  9.000E+00
#rwgt            1           1   3.0705959490147573E-002           9      151241           0
</event>
<event>
      5   9999  3.19816E-02  7.88293E+01 -1.00000E+00  1.28660E-01
      21    -1     0     0   502   512  0.000000000E+00  0.000000000E+00  1.430449543E+03  1.430449543E+03  0.000000000E+00  0.00000E+00  9.000E+00
      21    -1     0     0   501   502  0.000000000E+00  0.000000000E+00 -2.771386400E+02  2.771386400E+02  0.000000000E+00  0.00000E+00  9.000E+00
      25     1     1     2     0     0 -3.393458603E+02 -2.904306990E+02  1.598309836E+01  4.640970407E+02  1.250000000E+02  0.00000E+00  9.000E+00
      25     1     1     2     0     0  3.450168799E+02  2.118056935E+02  9.718745817E+02  1.060218610E+03  1.250000000E+02  0.00000E+00  9.000E+00
      21     1     1     2   501   512 -5.671019629E+00  7.862500548E+01  1.654532228E+02  1.832725317E+02  1.907348633E-06  0.00000E+00  9.000E+00
#rwgt            1           1   3.6462542193593808E-002           9      151345           0
</event>
<event>
      5   9999  3.19816E-02  3.52597E+01 -1.00000E+00  1.48322E-01
      21    -1     0     0   502   501  0.000000000E+00  0.000000000E+00  6.552346090E+02  6.552346090E+02  0.000000000E+00  0.00000E+00  9.000E+00
      21    -1     0     0   501   511  0.000000000E+00  0.000000000E+00 -1.129287011E+03  1.129287011E+03  0.000000000E+00  0.00000E+00  9.000E+00
      25     1     1     2     0     0 -4.965719170E+00 -1.995679866E+02  5.339827296E+02  5.836219625E+02  1.250000000E+02  0.00000E+00  9.000E+00
      25     1     1     2     0     0  3.609575891E+01  1.830100418E+02 -3.503638054E+01  2.272622432E+02  1.250000000E+02  0.00000E+00  9.000E+00
      21     1     1     2   502   511 -3.113003974E+01  1.655794475E+01 -9.729987510E+02  9.736374142E+02  0.000000000E+00  0.00000E+00  9.000E+00
#rwgt            1           1   3.2143222561452432E-002           9      151416           0
</event>
<event>
      5   9999  3.19816E-02  5.30054E+01 -1.00000E+00  1.37644E-01
      21    -1     0     0   502   501  0.000000000E+00  0.000000000E+00  4.427537413E+02  4.427537413E+02  0.000000000E+00  0.00000E+00  9.000E+00
      21    -1     0     0   512   502  0.000000000E+00  0.000000000E+00 -2.509456076E+02  2.509456076E+02  0.000000000E+00  0.00000E+00  9.000E+00
      25     1     1     2     0     0 -1.048435234E+02 -8.996474420E+01 -7.035005361E+01  1.991480596E+02  1.250000000E+02  0.00000E+00  9.000E+00
      25     1     1     2     0     0  1.397926231E+02  1.298160771E+02  3.345071826E+02  4.048632443E+02  1.250000000E+02  0.00000E+00  9.000E+00
      21     1     1     2   512   501 -3.494909974E+01 -3.985133292E+01 -7.234899532E+01  8.968804509E+01  1.348699152E-06  0.00000E+00  9.000E+00
#rwgt            1           1   2.9932023809370201E-002           9      151507           0
</event>
<event>
      5   9999  3.19816E-02  2.82760E+01 -1.00000E+00  1.54847E-01
      21    -1     0     0   502   501  0.000000000E+00  0.000000000E+00  1.555427169E+02  1.555427169E+02  0.000000000E+00  0.00000E+00  9.000E+00
      21    -1     0     0   511   502  0.000000000E+00  0.000000000E+00 -3.813504721E+02  3.813504721E+02  0.000000000E+00  0.00000E+00  9.000E+00
      25     1     1     2     0     0 -1.200038340E+02  8.369356260E+01  2.879215549E+01  1.945752318E+02  1.250000000E+02  0.00000E+00  9.000E+00
      25     1     1     2     0     0  1.405825619E+02 -6.430154265E+01 -2.355085713E+02  3.082003119E+02  1.250000000E+02  0.00000E+00  9.000E+00
      21     1     1     2   511   501 -2.057872790E+01 -1.939201995E+01 -1.909133938E+01  3.411764527E+01  5.840038640E-07  0.00000E+00  9.000E+00
#rwgt            1           1   2.6899818356918483E-002           9      151593           0
</event>
<event>
      5   9999  3.19816E-02  5.47712E+01 -1.00000E+00  1.36854E-01
      -4    -1     0     0     0   501  0.000000000E+00  0.000000000E+00  4.012853275E+02  4.012853275E+02  0.000000000E+00  0.00000E+00  9.000E+00
      21    -1     0     0   501   502  0.000000000E+00  0.000000000E+00 -9.395486782E+02  9.395486782E+02  0.000000000E+00  0.00000E+00  9.000E+00
      25     1     1     2     0     0  1.137075750E+02  1.022818227E+02 -8.059614915E+01  2.133347678E+02  1.250000000E+02  0.00000E+00  9.000E+00
      25     1     1     2     0     0 -1.458591992E+02 -1.466232273E+02 -7.717377140E+02  8.086886768E+02  1.250000000E+02  0.00000E+00  9.000E+00
      -4     1     1     2     0   502  3.215162421E+01  4.434140458E+01  3.140705124E+02  3.188105611E+02  5.394796609E-06  0.00000E+00  9.000E+00
#rwgt            1           1   3.4916671419162701E-002           9      151714           0
</event>
<event>
      5   9999  3.19816E-02  5.76640E+01 -1.00000E+00  1.35632E-01
      21    -1     0     0   502   501  0.000000000E+00  0.000000000E+00  1.534765027E+02  1.534765027E+02  0.000000000E+00  0.00000E+00  9.000E+00
      21    -1     0     0   511   502  0.000000000E+00  0.000000000E+00 -4.862971733E+02  4.862971733E+02  0.000000000E+00  0.00000E+00  9.000E+00
      25     1     1     2     0     0 -1.457204507E+02 -1.830146584E+02 -1.188682505E+02  2.906604134E+02  1.250000000E+02  0.00000E+00  9.000E+00
      25     1     1     2     0     0  1.076878454E+02  1.396711121E+02 -1.506635637E+02  2.634942144E+02  1.250000000E+02  0.00000E+00  9.000E+00
      21     1     1     2   511   501  3.803260533E+01  4.334354631E+01 -6.328885632E+01  8.561904816E+01  1.651812370E-06  0.00000E+00  9.000E+00
#rwgt            1           1   3.0940722707436873E-002           9      151818           0
</event>
<event>
      5   9999  3.19816E-02  5.20350E+01 -1.00000E+00  1.38094E-01
      21    -1     0     0   502   501  0.000000000E+00  0.000000000E+00  2.303543365E+02  2.303543365E+02  0.000000000E+00  0.00000E+00  9.000E+00
      21    -1     0     0   501   512  0.000000000E+00  0.000000000E+00 -4.512848203E+02  4.512848203E+02  0.000000000E+00  0.00000E+00  9.000E+00
      25     1     1     2     0     0  5.932408626E+01  2.188442359E+02  1.161281621E+01  2.591756244E+02  1.250000000E+02  0.00000E+00  9.000E+00
      25     1     1     2     0     0 -4.364782394E+01 -2.684617226E+02 -2.105649379E+02  3.659773519E+02  1.250000000E+02  0.00000E+00  9.000E+00
      21     1     1     2   502   512 -1.567626232E+01  4.961748672E+01 -2.197836199E+01  5.648618048E+01  5.331201500E-07  0.00000E+00  9.000E+00
#rwgt            1           1   2.6059137427260008E-002           9      151908           0
</event>
<event>
      5   9999  3.19816E-02  5.77242E+01 -1.00000E+00  1.35607E-01
      21    -1     0     0   511   501  0.000000000E+00  0.000000000E+00  7.719189927E+02  7.719189927E+02  0.000000000E+00  0.00000E+00  9.000E+00
      21    -1     0     0   501   502  0.000000000E+00  0.000000000E+00 -4.911856229E+02  4.911856229E+02  0.000000000E+00  0.00000E+00  9.000E+00
      25     1     1     2     0     0  1.509547667E-01  3.055378410E+01  6.679647814E+02  6.802466506E+02  1.250000000E+02  0.00000E+00  9.000E+00
      25     1     1     2     0     0 -4.317269165E+01 -6.904029610E+01 -4.636664104E+02  4.870749264E+02  1.250000000E+02  0.00000E+00  9.000E+00
      21     1     1     2   511   502  4.302173689E+01  3.848651200E+01  7.643499869E+01  9.578303856E+01  1.348699152E-06  0.00000E+00  9.000E+00
#rwgt            1           1   3.0750917380717346E-002           9      152039           0
</event>
<event>
      5   9999  3.19816E-02  7.69482E+01 -1.00000E+00  1.29172E-01
      21    -1     0     0   502   512  0.000000000E+00  0.000000000E+00  2.823710413E+02  2.823710413E+02  0.000000000E+00  0.00000E+00  9.000E+00
      21    -1     0     0   501   502  0.000000000E+00  0.000000000E+00 -4.604253808E+02  4.604253808E+02  0.000000000E+00  0.00000E+00  9.000E+00
      25     1     1     2     0     0 -2.421315440E+02 -9.161391164E+01 -3.270195951E+01  2.893358111E+02  1.250000000E+02  0.00000E+00  9.000E+00
      25     1     1     2     0     0  2.400456523E+02  1.685338295E+02 -1.831950095E+02  3.677104545E+02  1.250000000E+02  0.00000E+00  9.000E+00
      21     1     1     2   501   512  2.085891751E+00 -7.691991790E+01  3.784262948E+01  8.575015638E+01  8.259061849E-07  0.00000E+00  9.000E+00
#rwgt            1           1   2.8963363444658916E-002           9      152168           0
</event>
<event>
      5   9999  3.19816E-02  3.16441E+01 -1.00000E+00  1.51448E-01
      21    -1     0     0   511   501  0.000000000E+00  0.000000000E+00  2.115032956E+03  2.115032956E+03  0.000000000E+00  0.00000E+00  9.000E+00
      21    -1     0     0   501   502  0.000000000E+00  0.000000000E+00 -1.642757921E+02  1.642757921E+02  0.000000000E+00  0.00000E+00  9.000E+00
      25     1     1     2     0     0 -5.509539721E+02  1.218481275E+02  9.670389369E+02  1.126581799E+03  1.250000000E+02  0.00000E+00  9.000E+00
      25     1     1     2     0     0  5.222376456E+02 -1.351416904E+02  8.437388928E+02  1.009215415E+03  1.250000000E+02  0.00000E+00  9.000E+00
      21     1     1     2   511   502  2.871632647E+01  1.329356286E+01  1.399793342E+02  1.435115334E+02  2.697398305E-06  0.00000E+00  9.000E+00
#rwgt            1           1   2.8850119344596484E-002           9      152232           0
</event>
<event>
      5   9999  3.19816E-02  1.88117E+01 -1.00000E+00  1.68594E-01
      21    -1     0     0   502   501  0.000000000E+00  0.000000000E+00  4.899961709E+02  4.899961709E+02  0.000000000E+00  0.00000E+00  9.000E+00
      21    -1     0     0   501   512  0.000000000E+00  0.000000000E+00 -1.074937509E+03  1.074937509E+03  0.000000000E+00  0.00000E+00  9.000E+00
      25     1     1     2     0     0  6.212244498E+02 -1.541256960E+02  6.234616796E+00  6.521797434E+02  1.250000000E+02  0.00000E+00  9.000E+00
      25     1     1     2     0     0 -6.386865548E+02  1.471290431E+02 -5.404407758E+02  8.586435248E+02  1.250000000E+02  0.00000E+00  9.000E+00
      21     1     1     2   502   512  1.746210499E+01  6.996652876E+00 -5.073517885E+01  5.411041152E+01  0.000000000E+00  0.00000E+00  9.000E+00
#rwgt            1           1   3.3355136310248903E-002           9      152378           0
</event>
<event>
      5   9999  3.19816E-02  3.43093E+01 -1.00000E+00  1.49099E-01
      21    -1     0     0   502   501  0.000000000E+00  0.000000000E+00  1.788384175E+02  1.788384175E+02  0.000000000E+00  0.00000E+00  9.000E+00
      21    -1     0     0   511   502  0.000000000E+00  0.000000000E+00 -6.796073012E+02  6.796073012E+02  0.000000000E+00  0.00000E+00  9.000E+00
      25     1     1     2     0     0 -2.235512719E+02 -1.258195427E+02 -1.153396463E+02  3.077888278E+02  1.250000000E+02  0.00000E+00  9.000E+00
      25     1     1     2     0     0  2.238267755E+02  9.151137797E+01 -1.462112791E+02  3.089910935E+02  1.250000000E+02  0.00000E+00  9.000E+00
      21     1     1     2   511   501 -2.755036019E-01  3.430816478E+01 -2.392179582E+02  2.416657974E+02  2.697398305E-06  0.00000E+00  9.000E+00
#rwgt            1           1   2.9530647717797683E-002           9      152474           0
</event>
<event>
      5   9999  3.19816E-02  8.87788E+01 -1.00000E+00  1.26198E-01
      21    -1     0     0   502   501  0.000000000E+00  0.000000000E+00  7.740241225E+02  7.740241225E+02  0.000000000E+00  0.00000E+00  9.000E+00
      21    -1     0     0   501   512  0.000000000E+00  0.000000000E+00 -1.089735668E+03  1.089735668E+03  0.000000000E+00  0.00000E+00  9.000E+00
      25     1     1     2     0     0  5.799520896E+02  4.869014071E+02  2.219164092E+02  7.989300965E+02  1.250000000E+02  0.00000E+00  9.000E+00
      25     1     1     2     0     0 -5.820376109E+02 -5.756557546E+02 -4.624058181E+02  9.484679588E+02  1.250000000E+02  0.00000E+00  9.000E+00
      21     1     1     2   502   512  2.085521344E+00  8.875434750E+01 -7.522213680E+01  1.163617354E+02  1.651812370E-06  0.00000E+00  9.000E+00
#rwgt            1           1   2.1268156615559745E-002           9      152604           0
</event>
<event>
      5   9999  3.19816E-02  2.85489E+01 -1.00000E+00  1.54551E-01
      21    -1     0     0   502   501  0.000000000E+00  0.000000000E+00  1.966142015E+02  1.966142015E+02  0.000000000E+00  0.00000E+00  9.000E+00
      -4    -1     0     0     0   502  0.000000000E+00  0.000000000E+00 -2.926591108E+02  2.926591108E+02  0.000000000E+00  0.00000E+00  9.000E+00
      25     1     1     2     0     0  1.412516277E+02 -6.454679124E+01 -9.960545685E+01  2.228554635E+02  1.250000000E+02  0.00000E+00  9.000E+00
      25     1     1     2     0     0 -1.526230570E+02  9.073321540E+01  3.930460178E+01  2.206720771E+02  1.250000000E+02  0.00000E+00  9.000E+00
      -4     1     1     2     0   501  1.137142922E+01 -2.618642417E+01 -3.574405425E+01  4.574577169E+01  9.536743164E-07  0.00000E+00  9.000E+00
#rwgt            1           1   2.6843783794521660E-002           9      152711           0
</event>
<event>
      5   9999  3.19816E-02  1.01912E+02 -1.00000E+00  1.23459E-01
      21    -1     0     0   502   511  0.000000000E+00  0.000000000E+00  1.104202767E+03  1.104202767E+03  0.000000000E+00  0.00000E+00  9.000E+00
      21    -1     0     0   501   502  0.000000000E+00  0.000000000E+00 -1.010751387E+03  1.010751387E+03  0.000000000E+00  0.00000E+00  9.000E+00
      25     1     1     2     0     0 -2.805196441E+02  7.538833315E+02  2.247023684E+02  8.444806111E+02  1.250000000E+02  0.00000E+00  9.000E+00
      25     1     1     2     0     0  2.723033590E+02 -8.554631740E+02 -3.942305434E+02  9.884376980E+02  1.250000000E+02  0.00000E+00  9.000E+00
      21     1     1     2   501   511  8.216285093E+00  1.015798426E+02  2.629795546E+02  2.820358450E+02  5.394796609E-06  0.00000E+00  9.000E+00
#rwgt            1           1   3.2464969624578704E-002           9      152822           0
</event>
<event>
      5   9999  3.19816E-02  6.26979E+01 -1.00000E+00  1.33691E-01
       1    -1     0     0   502     0  0.000000000E+00  0.000000000E+00  2.324848766E+03  2.324848766E+03  0.000000000E+00  0.00000E+00  9.000E+00
      21    -1     0     0   501   502  0.000000000E+00  0.000000000E+00 -1.697942653E+03  1.697942653E+03  0.000000000E+00  0.00000E+00  9.000E+00
      25     1     1     2     0     0 -1.471877985E+03 -8.315427189E+02  1.089550453E+03  2.015101309E+03  1.250000000E+02  0.00000E+00  9.000E+00
      25     1     1     2     0     0  1.505221724E+03  8.846391007E+02 -6.051064937E+02  1.852041481E+03  1.250000000E+02  0.00000E+00  9.000E+00
       1     1     1     2   501     0 -3.334373899E+01 -5.309638176E+01  1.424621534E+02  1.556486294E+02  0.000000000E+00  0.00000E+00  9.000E+00
#rwgt            1           1   1.8279277273773056E-002           9      152947           0
</event>
<event>
      5   9999  3.19816E-02  1.18667E+02 -1.00000E+00  1.20575E-01
      21    -1     0     0   502   511  0.000000000E+00  0.000000000E+00  1.580758153E+03  1.580758153E+03  0.000000000E+00  0.00000E+00  9.000E+00
      21    -1     0     0   501   502  0.000000000E+00  0.000000000E+00 -3.954929326E+02  3.954929326E+02  0.000000000E+00  0.00000E+00  9.000E+00
      25     1     1     2     0     0 -5.691830466E+02 -3.858652842E+02  1.002348542E+03  1.221961112E+03  1.250000000E+02  0.00000E+00  9.000E+00
      25     1     1     2     0     0  5.132828970E+02  2.811898896E+02  9.352622261E+01  6.057220820E+02  1.250000000E+02  0.00000E+00  9.000E+00
      21     1     1     2   501   511  5.590014961E+01  1.046753946E+02  8.939045548E+01  1.485678919E+02  2.697398305E-06  0.00000E+00  9.000E+00
#rwgt            1           1   3.6502251134938268E-002           9      153066           0
</event>
<event>
      5   9999  3.19816E-02  1.77464E+01 -1.00000E+00  1.70770E-01
      21    -1     0     0   502   501  0.000000000E+00  0.000000000E+00  2.661910175E+02  2.661910175E+02  0.000000000E+00  0.00000E+00  9.000E+00
      21    -1     0     0   501   512  0.000000000E+00  0.000000000E+00 -1.650881691E+02  1.650881691E+02  0.000000000E+00  0.00000E+00  9.000E+00
      25     1     1     2     0     0 -1.008285823E+02 -1.224588189E+02  3.091513577E+01  2.043117983E+02  1.250000000E+02  0.00000E+00  9.000E+00
      25     1     1     2     0     0  1.093811701E+02  1.069092713E+02  6.878547436E+01  2.091656619E+02  1.250000000E+02  0.00000E+00  9.000E+00
      21     1     1     2   502   512 -8.552587816E+00  1.554954758E+01  1.402238240E+00  1.780172633E+01  2.610894362E-07  0.00000E+00  9.000E+00
#rwgt            1           1   2.7040276257642232E-002           9      153195           0
</event>
<event>
      5   9999  3.19816E-02  4.58489E+00 -1.00000E+00  2.50244E-01
      21    -1     0     0   511   501  0.000000000E+00  0.000000000E+00  1.244086887E+03  1.244086887E+03  0.000000000E+00  0.00000E+00  9.000E+00
      21    -1     0     0   501   502  0.000000000E+00  0.000000000E+00 -1.361146913E+02  1.361146913E+02  0.000000000E+00  0.00000E+00  9.000E+00
      25     1     1     2     0     0  2.236621953E+02 -1.756188364E+02  1.232566076E+02  3.341914790E+02  1.250000000E+02  0.00000E+00  9.000E+00
      25     1     1     2     0     0 -2.205051847E+02  1.722940002E+02  7.361439911E+02  7.973962218E+02  1.250000000E+02  0.00000E+00  9.000E+00
      21     1     1     2   511   502 -3.157010653E+00  3.324836144E+00  2.485715967E+02  2.486138772E+02  0.000000000E+00  0.00000E+00  9.000E+00
#rwgt            1           1   2.7480721059404210E-002           9      153346           0
</event>
<event>
      5   9999  3.19816E-02  1.05022E+02 -1.00000E+00  1.22878E-01
      21    -1     0     0   512   501  0.000000000E+00  0.000000000E+00  4.528568344E+02  4.528568344E+02  0.000000000E+00  0.00000E+00  9.000E+00
      21    -1     0     0   501   502  0.000000000E+00  0.000000000E+00 -1.525998959E+02  1.525998959E+02  0.000000000E+00  0.00000E+00  9.000E+00
      25     1     1     2     0     0 -9.016424122E+01 -9.733443669E+01  1.873506744E+02  2.613978925E+02  1.250000000E+02  0.00000E+00  9.000E+00
      25     1     1     2     0     0  1.688598884E+02  2.778883768E+01  3.860115480E+01  2.154087523E+02  1.250000000E+02  0.00000E+00  9.000E+00
      21     1     1     2   512   502 -7.869564721E+01  6.954559901E+01  7.430510925E+01  1.286500855E+02  1.651812370E-06  0.00000E+00  9.000E+00
#rwgt            1           1   2.4256264246871512E-002           9      153779           0
</event>
<event>
      5   9999  3.19816E-02  1.45887E+01 -1.00000E+00  1.78529E-01
      21    -1     0     0   502   511  0.000000000E+00  0.000000000E+00  4.231538017E+02  4.231538017E+02  0.000000000E+00  0.00000E+00  9.000E+00
      21    -1     0     0   501   502  0.000000000E+00  0.000000000E+00 -1.280728674E+02  1.280728674E+02  0.000000000E+00  0.00000E+00  9.000E+00
      25     1     1     2     0     0  1.240292694E+02  1.150916281E+02  7.542836886E+01  2.234810536E+02  1.250000000E+02  0.00000E+00  9.000E+00
      25     1     1     2     0     0 -1.149245570E+02 -1.036928003E+02  1.317188461E+02  2.386099433E+02  1.250000000E+02  0.00000E+00  9.000E+00
      21     1     1     2   501   511 -9.104712376E+00 -1.139882772E+01  8.793371932E+01  8.913567218E+01  0.000000000E+00  0.00000E+00  9.000E+00
#rwgt            1           1   2.5563914023249808E-002           9      153819           0
</event>
<event>
      5   9999  3.19816E-02  6.45688E+01 -1.00000E+00  1.33022E-01
      21    -1     0     0   502   501  0.000000000E+00  0.000000000E+00  5.023280455E+02  5.023280455E+02  0.000000000E+00  0.00000E+00  9.000E+00
       2    -1     0     0   501     0  0.000000000E+00  0.000000000E+00 -5.168185573E+02  5.168185573E+02  0.000000000E+00  0.00000E+00  9.000E+00
      25     1     1     2     0     0 -9.100352598E+01  2.655361852E+02 -3.885718398E+02  4.953828641E+02  1.250000000E+02  0.00000E+00  9.000E+00
      25     1     1     2     0     0  3.512031196E+01 -2.331911864E+02  3.736604712E+02  4.591935468E+02  1.250000000E+02  0.00000E+00  9.000E+00
       2     1     1     2   502     0  5.588321401E+01 -3.234499876E+01  4.208569107E-01  6.457019184E+01  1.381032995E-06  0.00000E+00  9.000E+00
#rwgt            1           1   2.8766757011496995E-002           9      153952           0
</event>
<event>
      5   9999  3.19816E-02  1.46114E+02 -1.00000E+00  1.16847E-01
       2    -1     0     0   502     0  0.000000000E+00  0.000000000E+00  3.292515412E+03  3.292515412E+03  0.000000000E+00  0.00000E+00  9.000E+00
      21    -1     0     0   501   502  0.000000000E+00  0.000000000E+00 -1.695150042E+03  1.695150042E+03  0.000000000E+00  0.00000E+00  9.000E+00
      25     1     1     2     0     0 -4.662749954E+02 -1.497794001E+03 -7.586629553E+02  1.746995627E+03  1.250000000E+02  0.00000E+00  9.000E+00
      25     1     1     2     0     0  4.885479215E+02  1.353387451E+03  7.488808638E+02  1.626894039E+03  1.250000000E+02  0.00000E+00  9.000E+00
       2     1     1     2   501     0 -2.227292607E+01  1.444065493E+02  1.607147461E+03  1.613775789E+03  2.157918644E-05  0.00000E+00  9.000E+00
#rwgt            1           1   3.5734479714023548E-002           9      154051           0
</event>
<event>
      5   9999  3.19816E-02  1.14026E+02 -1.00000E+00  1.21317E-01
      21    -1     0     0   502   501  0.000000000E+00  0.000000000E+00  1.725618214E+03  1.725618214E+03  0.000000000E+00  0.00000E+00  9.000E+00
      21    -1     0     0   511   502  0.000000000E+00  0.000000000E+00 -1.461343219E+03  1.461343219E+03  0.000000000E+00  0.00000E+00  9.000E+00
      25     1     1     2     0     0 -8.425434311E+02 -1.905937534E+02  4.939222348E+02  1.002890615E+03  1.250000000E+02  0.00000E+00  9.000E+00
      25     1     1     2     0     0  7.675801558E+02  1.046725807E+02  8.160814569E+02  1.132143802E+03  1.250000000E+02  0.00000E+00  9.000E+00
      21     1     1     2   511   501  7.496327524E+01  8.592117271E+01 -1.045728697E+03  1.051927016E+03  2.157918644E-05  0.00000E+00  9.000E+00
#rwgt            1           1   2.7100821244093097E-002           9      154189           0
</event>
<event>
      5   9999  3.19816E-02  5.27468E+01 -1.00000E+00  1.37763E-01
      21    -1     0     0   502   512  0.000000000E+00  0.000000000E+00  6.384441604E+02  6.384441604E+02  0.000000000E+00  0.00000E+00  9.000E+00
      21    -1     0     0   501   502  0.000000000E+00  0.000000000E+00 -4.825374584E+02  4.825374584E+02  0.000000000E+00  0.00000E+00  9.000E+00
      25     1     1     2     0     0 -2.271458835E+02  2.684645437E+02  7.605142250E+01  3.808901187E+02  1.250000000E+02  0.00000E+00  9.000E+00
      25     1     1     2     0     0  2.149503842E+02 -3.197821419E+02 -2.024838519E+02  4.528675262E+02  1.250000000E+02  0.00000E+00  9.000E+00
      21     1     1     2   501   512  1.219549935E+01  5.131759819E+01  2.823391314E+02  2.872239740E+02  0.000000000E+00  0.00000E+00  9.000E+00
#rwgt            1           1   2.5507830586407806E-002           9      154267           0
</event>
<event>
      5   9999  3.19816E-02  2.02224E+01 -1.00000E+00  1.65974E-01
      21    -1     0     0   502   501  0.000000000E+00  0.000000000E+00  1.309252202E+02  1.309252202E+02  0.000000000E+00  0.00000E+00  9.000E+00
      21    -1     0     0   511   502  0.000000000E+00  0.000000000E+00 -1.312727786E+03  1.312727786E+03  0.000000000E+00  0.00000E+00  9.000E+00
      25     1     1     2     0     0  3.074842750E+02  3.557865411E+01 -2.610118804E+02  4.237506599E+02  1.250000000E+02  0.00000E+00  9.000E+00
      25     1     1     2     0     0 -3.182011258E+02 -5.272787293E+01 -5.578219593E+02  6.563707209E+02  1.250000000E+02  0.00000E+00  9.000E+00
      21     1     1     2   511   501  1.071685074E+01  1.714921882E+01 -3.629687261E+02  3.635316255E+02  0.000000000E+00  0.00000E+00  9.000E+00
#rwgt            1           1   2.8019636366691594E-002           9      154373           0
</event>
<event>
      5   9999  3.19816E-02  3.34355E+01 -1.00000E+00  1.49840E-01
      21    -1     0     0   502   501  0.000000000E+00  0.000000000E+00  1.174306470E+03  1.174306470E+03  0.000000000E+00  0.00000E+00  9.000E+00
      21    -1     0     0   501   512  0.000000000E+00  0.000000000E+00 -3.458134038E+02  3.458134038E+02  0.000000000E+00  0.00000E+00  9.000E+00
      25     1     1     2     0     0  2.505018157E+02 -4.028474268E+02  7.398551681E+02  8.877206084E+02  1.250000000E+02  0.00000E+00  9.000E+00
      25     1     1     2     0     0 -2.170731414E+02  4.021706527E+02  2.013670261E+02  5.148161437E+02  1.250000000E+02  0.00000E+00  9.000E+00
      21     1     1     2   502   512 -3.342867431E+01  6.767741237E-01 -1.127291278E+02  1.175831219E+02  1.348699152E-06  0.00000E+00  9.000E+00
#rwgt            1           1   3.2187534036427976E-002           9      154515           0
</event>
<event>
      5   9999  3.19816E-02  8.00035E+01 -1.00000E+00  1.28349E-01
      21    -1     0     0   502   501  0.000000000E+00  0.000000000E+00  8.635562551E+02  8.635562551E+02  0.000000000E+00  0.00000E+00  9.000E+00
      21    -1     0     0   501   511  0.000000000E+00  0.000000000E+00 -4.485364280E+02  4.485364280E+02  0.000000000E+00  0.00000E+00  9.000E+00
      25     1     1     2     0     0 -4.058394525E+02 -2.414165627E+02 -6.343823872E+01  4.925820014E+02  1.250000000E+02  0.00000E+00  9.000E+00
      25     1     1     2     0     0  4.858409709E+02  2.408587406E+02  4.864224696E+02  7.391117648E+02  1.250000000E+02  0.00000E+00  9.000E+00
      21     1     1     2   502   511 -8.000151840E+01  5.578220930E-01 -7.964403796E+00  8.039891691E+01  3.953724850E-07  0.00000E+00  9.000E+00
#rwgt            1           1   2.8769545975214306E-002           9      154658           0
</event>
<event>
      5   9999  3.19816E-02  3.84113E+02 -1.00000E+00  1.02218E-01
      21    -1     0     0   502   501  0.000000000E+00  0.000000000E+00  5.099651145E+02  5.099651145E+02  0.000000000E+00  0.00000E+00  9.000E+00
      21    -1     0     0   501   512  0.000000000E+00  0.000000000E+00 -1.312126581E+03  1.312126581E+03  0.000000000E+00  0.00000E+00  9.000E+00
      25     1     1     2     0     0  5.947969627E+00  2.037667112E+01 -3.849374599E+02  4.052806868E+02  1.250000000E+02  0.00000E+00  9.000E+00
      25     1     1     2     0     0  1.888123574E+02 -3.514530329E+02  3.587929396E+02  5.509325859E+02  1.250000000E+02  0.00000E+00  9.000E+00
      21     1     1     2   502   512 -1.947603270E+02  3.310763618E+02 -7.760169459E+02  8.658784226E+02  1.078959322E-05  0.00000E+00  9.000E+00
#rwgt            1           1   2.9549160058028646E-002           9      154809           0
</event>
<event>
      5   9999  3.19816E-02  8.02065E+01 -1.00000E+00  1.28295E-01
      21    -1     0     0   502   501  0.000000000E+00  0.000000000E+00  6.125576638E+02  6.125576638E+02  0.000000000E+00  0.00000E+00  9.000E+00
      21    -1     0     0   511   502  0.000000000E+00  0.000000000E+00 -4.367250988E+02  4.367250988E+02  0.000000000E+00  0.00000E+00  9.000E+00
      25     1     1     2     0     0 -3.696289738E+01  5.218958927E+01 -1.743153219E+02  2.238321703E+02  1.250000000E+02  0.00000E+00  9.000E+00
      25     1     1     2     0     0  6.433437116E+01 -1.275811329E+02  5.650391725E+02  5.960789572E+02  1.250000000E+02  0.00000E+00  9.000E+00
      21     1     1     2   511   501 -2.737147379E+01  7.539154361E+01 -2.148912855E+02  2.293716352E+02  3.814697266E-06  0.00000E+00  9.000E+00
#rwgt            1           1   2.9414094105708413E-002           9      154857           0
</event>
<event>
      5   9999  3.19816E-02  1.58961E+01 -1.00000E+00  1.75042E-01
      21    -1     0     0   512   501  0.000000000E+00  0.000000000E+00  5.980972278E+01  5.980972278E+01  0.000000000E+00  0.00000E+00  9.000E+00
      21    -1     0     0   501   502  0.000000000E+00  0.000000000E+00 -9.627590980E+02  9.627590980E+02  0.000000000E+00  0.00000E+00  9.000E+00
      25     1     1     2     0     0  2.145822037E+01  7.916703386E+01 -8.087155444E+01  1.699796540E+02  1.250000000E+02  0.00000E+00  9.000E+00
      25     1     1     2     0     0 -6.231634667E+00 -8.373181614E+01 -8.230038472E+02  8.366661119E+02  1.250000000E+02  0.00000E+00  9.000E+00
      21     1     1     2   512   502 -1.522658570E+01  4.564782276E+00  9.260264454E-01  1.592305480E+01  8.688795410E-08  0.00000E+00  9.000E+00
#rwgt            1           1   1.8583949624834867E-002           9      154918           0
</event>
<event>
      5   9999  3.19816E-02  3.95193E+02 -1.00000E+00  1.01844E-01
      21    -1     0     0   502   501  0.000000000E+00  0.000000000E+00  5.322734781E+02  5.322734781E+02  0.000000000E+00  0.00000E+00  9.000E+00
      21    -1     0     0   511   502  0.000000000E+00  0.000000000E+00 -1.074610169E+03  1.074610169E+03  0.000000000E+00  0.00000E+00  9.000E+00
      25     1     1     2     0     0  2.103369067E+02  3.743121250E+02 -1.165524027E+02  4.621262207E+02  1.250000000E+02  0.00000E+00  9.000E+00
      25     1     1     2     0     0  1.137663924E+02 -6.004415446E+02 -9.822856187E+01  6.314639268E+02  1.250000000E+02  0.00000E+00  9.000E+00
      21     1     1     2   511   501 -3.241032991E+02  2.261294195E+02 -3.275557265E+02  5.132934997E+02  5.394796609E-06  0.00000E+00  9.000E+00
#rwgt            2          11   2.7469893823831920E-003           9      155040           0
</event>
<event>
      5   9999  3.19816E-02  2.64442E+01 -1.00000E+00  1.56945E-01
      21    -1     0     0   502   501  0.000000000E+00  0.000000000E+00  5.755898836E+02  5.755898836E+02  0.000000000E+00  0.00000E+00  9.000E+00
      21    -1     0     0   501   512  0.000000000E+00  0.000000000E+00 -5.866052123E+02  5.866052123E+02  0.000000000E+00  0.00000E+00  9.000E+00
      25     1     1     2     0     0 -3.226882383E+02  1.914236288E+02  4.067912922E+02  5.673401627E+02  1.250000000E+02  0.00000E+00  9.000E+00
      25     1     1     2     0     0  2.965685877E+02 -1.955542659E+02 -3.220548691E+02  4.955186544E+02  1.250000000E+02  0.00000E+00  9.000E+00
      21     1     1     2   502   512  2.611965062E+01  4.130637128E+00 -9.575175185E+01  9.933627884E+01  0.000000000E+00  0.00000E+00  9.000E+00
#rwgt            1           1   2.6694173179424779E-002           9      155075           0
</event>
<event>
      5   9999  3.19816E-02  5.44796E+01 -1.00000E+00  1.36982E-01
      21    -1     0     0   502   501  0.000000000E+00  0.000000000E+00  1.881182453E+02  1.881182453E+02  0.000000000E+00  0.00000E+00  9.000E+00
      21    -1     0     0   511   502  0.000000000E+00  0.000000000E+00 -3.664954162E+02  3.664954162E+02  0.000000000E+00  0.00000E+00  9.000E+00
      25     1     1     2     0     0 -7.198024962E+01  1.549165242E+02  2.532354565E+01  2.131820062E+02  1.250000000E+02  0.00000E+00  9.000E+00
      25     1     1     2     0     0  3.418781556E+01 -1.156767866E+02 -5.366331176E+01  1.818094517E+02  1.250000000E+02  0.00000E+00  9.000E+00
      21     1     1     2   511   501  3.779243407E+01 -3.923973761E+01 -1.500374047E+02  1.596222037E+02  2.697398305E-06  0.00000E+00  9.000E+00
#rwgt            1           1   2.8350847069827160E-002           9      155183           0
</event>
<event>
      5   9999  3.19816E-02  9.58160E+01 -1.00000E+00  1.24669E-01
      21    -1     0     0   502   501  0.000000000E+00  0.000000000E+00  2.841961261E+02  2.841961261E+02  0.000000000E+00  0.00000E+00  9.000E+00
       1    -1     0     0   501     0  0.000000000E+00  0.000000000E+00 -6.106677329E+02  6.106677329E+02  0.000000000E+00  0.00000E+00  9.000E+00
      25     1     1     2     0     0 -7.840642598E+01  2.383730545E+02  1.498697028E+02  3.178918189E+02  1.250000000E+02  0.00000E+00  9.000E+00
      25     1     1     2     0     0  6.464740605E+01 -1.435500601E+02 -1.962121162E+02  2.809094185E+02  1.250000000E+02  0.00000E+00  9.000E+00
       1     1     1     2   502     0  1.375901993E+01 -9.482299440E+01 -2.801291934E+02  2.960626215E+02  3.814697266E-06  0.00000E+00  9.000E+00
#rwgt            1           1   2.6894140183219169E-002           9      155272           0
</event>
<event>
      5   9999  3.19816E-02  2.23337E+02 -1.00000E+00  1.09931E-01
      21    -1     0     0   502   501  0.000000000E+00  0.000000000E+00  5.363032420E+02  5.363032420E+02  0.000000000E+00  0.00000E+00  9.000E+00
       2    -1     0     0   501     0  0.000000000E+00  0.000000000E+00 -2.510893337E+03  2.510893337E+03  0.000000000E+00  0.00000E+00  9.000E+00
      25     1     1     2     0     0 -3.052726495E+01  3.232494775E+02  2.063175115E+02  4.044923413E+02  1.250000000E+02  0.00000E+00  9.000E+00
      25     1     1     2     0     0 -6.428547707E+01 -1.210363077E+02  1.875237310E+02  2.637661086E+02  1.250000000E+02  0.00000E+00  9.000E+00
       2     1     1     2   502     0  9.481274202E+01 -2.022131698E+02 -2.368431338E+03  2.378938130E+03  3.051757812E-05  0.00000E+00  9.000E+00
#rwgt            2          13   4.4109414662761290E-002           9      155515           0
</event>
<event>
      5   9999  3.19816E-02  1.11423E+02 -1.00000E+00  1.21751E-01
      21    -1     0     0   502   501  0.000000000E+00  0.000000000E+00  1.874595546E+02  1.874595546E+02  0.000000000E+00  0.00000E+00  9.000E+00
      21    -1     0     0   501   511  0.000000000E+00  0.000000000E+00 -2.336776892E+03  2.336776892E+03  0.000000000E+00  0.00000E+00  9.000E+00
      25     1     1     2     0     0  1.245542391E+02 -1.895679903E+02  7.742607450E+01  2.703138518E+02  1.250000000E+02  0.00000E+00  9.000E+00
      25     1     1     2     0     0 -1.488398939E+02  8.082356239E+01 -1.822088262E+03  1.834207294E+03  1.250000000E+02  0.00000E+00  9.000E+00
      21     1     1     2   502   511  2.428565476E+01  1.087444279E+02 -4.046551503E+02  4.197153015E+02  0.000000000E+00  0.00000E+00  9.000E+00
#rwgt            1           1   2.7607432711513360E-002           9      155549           0
</event>
<event>
      5   9999  3.19816E-02  2.26332E+02 -1.00000E+00  1.09727E-01
      21    -1     0     0   512   501  0.000000000E+00  0.000000000E+00  4.482101766E+02  4.482101766E+02  0.000000000E+00  0.00000E+00  9.000E+00
      21    -1     0     0   501   502  0.000000000E+00  0.000000000E+00 -2.086110406E+03  2.086110406E+03  0.000000000E+00  0.00000E+00  9.000E+00
      25     1     1     2     0     0 -7.981361301E+02 -1.771486878E+02 -6.289285419E+02  1.039027935E+03  1.250000000E+02  0.00000E+00  9.000E+00
      25     1     1     2     0     0  8.523956082E+02 -4.258288801E+01 -8.907680778E+02  1.239953364E+03  1.250000000E+02  0.00000E+00  9.000E+00
      21     1     1     2   512   502 -5.425947808E+01  2.197315759E+02 -1.182036096E+02  2.553392835E+02  1.907348633E-06  0.00000E+00  9.000E+00
#rwgt            1           1   3.9095956418391371E-002           9      155623           0
</event>
<event>
      5   9999  3.19816E-02  1.03221E+02 -1.00000E+00  1.23212E-01
      21    -1     0     0   502   501  0.000000000E+00  0.000000000E+00  2.359868615E+02  2.359868615E+02  0.000000000E+00  0.00000E+00  9.000E+00
      21    -1     0     0   511   502  0.000000000E+00  0.000000000E+00 -6.032866494E+02  6.032866494E+02  0.000000000E+00  0.00000E+00  9.000E+00
      25     1     1     2     0     0  1.248268481E+02 -8.870911884E-01  1.272738053E+02  2.177295351E+02  1.250000000E+02  0.00000E+00  9.000E+00
      25     1     1     2     0     0 -2.017959285E+02  6.966413111E+01 -4.400186340E+02  5.047931123E+02  1.250000000E+02  0.00000E+00  9.000E+00
      21     1     1     2   511   501  7.696908040E+01 -6.877703992E+01 -5.455495916E+01  1.167508635E+02  2.023048729E-06  0.00000E+00  9.000E+00
#rwgt            1           1   2.4925628841763116E-002           9      155673           0
</event>
<event>
      5   9999  3.19816E-02  2.08597E+01 -1.00000E+00  1.64875E-01
      21    -1     0     0   502   501  0.000000000E+00  0.000000000E+00  3.497048333E+02  3.497048333E+02  0.000000000E+00  0.00000E+00  9.000E+00
      21    -1     0     0   512   502  0.000000000E+00  0.000000000E+00 -4.064168643E+02  4.064168643E+02  0.000000000E+00  0.00000E+00  9.000E+00
      25     1     1     2     0     0 -1.252642281E+02 -2.641833638E+02 -1.437861219E+02  3.489748206E+02  1.250000000E+02  0.00000E+00  9.000E+00
      25     1     1     2     0     0  1.384569643E+02  2.803412789E+02  1.287804298E+02  3.605148579E+02  1.250000000E+02  0.00000E+00  9.000E+00
      21     1     1     2   512   501 -1.319273624E+01 -1.615791509E+01 -4.170633888E+01  4.663201918E+01  4.768371582E-07  0.00000E+00  9.000E+00
#rwgt            1           1   2.7537199527586948E-002           9      155765           0
</event>
<event>
      5   9999  3.19816E-02  2.50180E+02 -1.00000E+00  1.08220E-01
      21    -1     0     0   502   501  0.000000000E+00  0.000000000E+00  1.109702191E+03  1.109702191E+03  0.000000000E+00  0.00000E+00  9.000E+00
       2    -1     0     0   501     0  0.000000000E+00  0.000000000E+00 -6.739817906E+02  6.739817906E+02  0.000000000E+00  0.00000E+00  9.000E+00
      25     1     1     2     0     0 -1.878906900E+02  1.658250291E+02 -1.591366661E+02  3.221029807E+02  1.250000000E+02  0.00000E+00  9.000E+00
      25     1     1     2     0     0  4.378447030E+02 -1.551855564E+02  9.278124257E+02  1.045108338E+03  1.250000000E+02  0.00000E+00  9.000E+00
       2     1     1     2   502     0 -2.499540130E+02 -1.063947263E+01 -3.329553596E+02  4.164726624E+02  8.529922400E-06  0.00000E+00  9.000E+00
#rwgt            2          13   7.2669644267847329E-004           9      156016           0
</event>
<event>
      5   9999  3.19816E-02  6.94483E+01 -1.00000E+00  1.31395E-01
      21    -1     0     0   502   501  0.000000000E+00  0.000000000E+00  1.602841307E+03  1.602841307E+03  0.000000000E+00  0.00000E+00  9.000E+00
      21    -1     0     0   501   511  0.000000000E+00  0.000000000E+00 -8.529205231E+02  8.529205231E+02  0.000000000E+00  0.00000E+00  9.000E+00
      25     1     1     2     0     0 -6.389211652E+02 -9.630785210E+02  4.595154753E+02  1.250007986E+03  1.250000000E+02  0.00000E+00  9.000E+00
      25     1     1     2     0     0  5.878825553E+02  9.159815618E+02  2.993763528E+02  1.135728542E+03  1.250000000E+02  0.00000E+00  9.000E+00
      21     1     1     2   502   511  5.103860997E+01  4.709695925E+01 -8.971044295E+00  7.002530196E+01  3.153981341E-07  0.00000E+00  9.000E+00
#rwgt            1           1   2.9648796776462479E-002           9      156050           0
</event>
<event>
      5   9999  3.19816E-02  4.77464E+01 -1.00000E+00  1.40228E-01
      21    -1     0     0   502   501  0.000000000E+00  0.000000000E+00  5.503180268E+01  5.503180268E+01  0.000000000E+00  0.00000E+00  9.000E+00
      21    -1     0     0   512   502  0.000000000E+00  0.000000000E+00 -1.800087333E+03  1.800087333E+03  0.000000000E+00  0.00000E+00  9.000E+00
      25     1     1     2     0     0  1.766876798E+01 -5.184523186E+01 -5.072892863E+02  5.253261210E+02  1.250000000E+02  0.00000E+00  9.000E+00
      25     1     1     2     0     0  8.787971221E-01  7.848612501E+00 -4.058583199E+01  1.316608627E+02  1.250000000E+02  0.00000E+00  9.000E+00
      21     1     1     2   512   501 -1.854756510E+01  4.399661936E+01 -1.197180412E+03  1.198132152E+03  2.157918644E-05  0.00000E+00  9.000E+00
#rwgt            1           1   3.6091201136737514E-002           9      156226           0
</event>
<event>
      5   9999  3.19816E-02  2.27901E+02 -1.00000E+00  1.09622E-01
      21    -1     0     0   502   511  0.000000000E+00  0.000000000E+00  4.874232554E+02  4.874232554E+02  0.000000000E+00  0.00000E+00  9.000E+00
      21    -1     0     0   501   502  0.000000000E+00  0.000000000E+00 -5.087283065E+02  5.087283065E+02  0.000000000E+00  0.00000E+00  9.000E+00
      25     1     1     2     0     0 -1.329376376E+02 -1.114823851E+02 -2.131214131E+02  3.019047439E+02  1.250000000E+02  0.00000E+00  9.000E+00
      25     1     1     2     0     0  1.721276166E+02 -1.130236220E+02 -1.497415911E+02  2.836367389E+02  1.250000000E+02  0.00000E+00  9.000E+00
      21     1     1     2   501   511 -3.918997895E+01  2.245060071E+02  3.415579531E+02  4.106100790E+02  3.814697266E-06  0.00000E+00  9.000E+00
#rwgt            1           1   2.8219471660725061E-002           9      156317           0
</event>
<event>
      5   9999  3.19816E-02  1.37594E+01 -1.00000E+00  1.80990E-01
      21    -1     0     0   502   512  0.000000000E+00  0.000000000E+00  8.262505173E+02  8.262505173E+02  0.000000000E+00  0.00000E+00  9.000E+00
      21    -1     0     0   501   502  0.000000000E+00  0.000000000E+00 -1.724789393E+02  1.724789393E+02  0.000000000E+00  0.00000E+00  9.000E+00
      25     1     1     2     0     0 -2.084192867E+02 -1.272425613E+02  2.863110580E+02  3.965202270E+02  1.250000000E+02  0.00000E+00  9.000E+00
      25     1     1     2     0     0  2.217899487E+02  1.304902793E+02  5.732652420E+01  2.917701573E+02  1.250000000E+02  0.00000E+00  9.000E+00
      21     1     1     2   501   512 -1.337066199E+01 -3.247717961E+00  3.101339958E+02  3.104390724E+02  3.814697266E-06  0.00000E+00  9.000E+00
#rwgt            1           1   2.9538144323539590E-002           9      156363           0
</event>
<event>
      5   9999  3.19816E-02  3.03018E+01 -1.00000E+00  1.52738E-01
      21    -1     0     0   502   501  0.000000000E+00  0.000000000E+00  1.350857094E+02  1.350857094E+02  0.000000000E+00  0.00000E+00  9.000E+00
      21    -1     0     0   511   502  0.000000000E+00  0.000000000E+00 -1.864406868E+03  1.864406868E+03  0.000000000E+00  0.00000E+00  9.000E+00
      25     1     1     2     0     0  2.131162602E+02  3.410061396E+02 -1.066162068E+03  1.146311599E+03  1.250000000E+02  0.00000E+00  9.000E+00
      25     1     1     2     0     0 -2.433883371E+02 -3.423483664E+02 -4.162676434E+02  6.044369591E+02  1.250000000E+02  0.00000E+00  9.000E+00
      21     1     1     2   511   501  3.027207690E+01  1.342226779E+00 -2.468914469E+02  2.487440186E+02  2.697398305E-06  0.00000E+00  9.000E+00
#rwgt            1           1   2.8352240297805087E-002           9      156562           0
</event>
<event>
      5   9999  3.19816E-02  2.23107E+02 -1.00000E+00  1.09946E-01
      21    -1     0     0   512   501  0.000000000E+00  0.000000000E+00  4.037642854E+02  4.037642854E+02  0.000000000E+00  0.00000E+00  9.000E+00
      21    -1     0     0   501   502  0.000000000E+00  0.000000000E+00 -3.861533115E+02  3.861533115E+02  0.000000000E+00  0.00000E+00  9.000E+00
      25     1     1     2     0     0 -2.290240637E+02  4.056736672E+00  6.513219050E+00  2.610285442E+02  1.250000000E+02  0.00000E+00  9.000E+00
      25     1     1     2     0     0  1.702403048E+02 -2.192799696E+02 -1.130185299E+01  3.046607923E+02  1.250000000E+02  0.00000E+00  9.000E+00
      21     1     1     2   512   502  5.878375890E+01  2.152232330E+02  2.239960790E+01  2.242282604E+02  9.830249847E-07  0.00000E+00  9.000E+00
#rwgt            2          11   3.2324819238111801E-003           9      156777           0
</event>
<event>
      5   9999  3.19816E-02  3.37079E+01 -1.00000E+00  1.49606E-01
      21    -1     0     0   511   501  0.000000000E+00  0.000000000E+00  3.528206492E+02  3.528206492E+02  0.000000000E+00  0.00000E+00  9.000E+00
      21    -1     0     0   501   502  0.000000000E+00  0.000000000E+00 -2.275032220E+02  2.275032220E+02  0.000000000E+00  0.00000E+00  9.000E+00
      25     1     1     2     0     0  7.678267286E+01 -1.709993655E+02 -7.227231486E+01  2.366107549E+02  1.250000000E+02  0.00000E+00  9.000E+00
      25     1     1     2     0     0 -1.077253507E+02  1.843699615E+02  1.768689989E+02  3.041458148E+02  1.250000000E+02  0.00000E+00  9.000E+00
      21     1     1     2   511   502  3.094267789E+01 -1.337059601E+01  2.072074314E+01  3.956730151E+01  6.743495762E-07  0.00000E+00  9.000E+00
#rwgt            1           1   3.0598024573259573E-002           9      156797           0
</event>
<event>
      5   9999  3.19816E-02  2.70638E+01 -1.00000E+00  1.56213E-01
      21    -1     0     0   502   501  0.000000000E+00  0.000000000E+00  1.241448438E+03  1.241448438E+03  0.000000000E+00  0.00000E+00  9.000E+00
      21    -1     0     0   512   502  0.000000000E+00  0.000000000E+00 -5.645413660E+02  5.645413660E+02  0.000000000E+00  0.00000E+00  9.000E+00
      25     1     1     2     0     0  7.109656306E+02  2.409736579E+02  5.384469099E+01  7.629316368E+02  1.250000000E+02  0.00000E+00  9.000E+00
      25     1     1     2     0     0 -6.895879824E+02 -2.575701795E+02  6.604918129E+02  9.968693082E+02  1.250000000E+02  0.00000E+00  9.000E+00
      21     1     1     2   512   501 -2.137764819E+01  1.659652158E+01 -3.742943162E+01  4.618885928E+01  9.536743164E-07  0.00000E+00  9.000E+00
#rwgt            1           1   3.1290949242869584E-002           9      156911           0
</event>
<event>
      5   9999  3.19816E-02  1.91879E+02 -1.00000E+00  1.12307E-01
      21    -1     0     0   502   501  0.000000000E+00  0.000000000E+00  7.748207509E+02  7.748207509E+02  0.000000000E+00  0.00000E+00  9.000E+00
      21    -1     0     0   511   502  0.000000000E+00  0.000000000E+00 -7.384456782E+02  7.384456782E+02  0.000000000E+00  0.00000E+00  9.000E+00
      25     1     1     2     0     0  4.546341400E+02  1.656795378E+02  3.637704623E+02  6.181390295E+02  1.250000000E+02  0.00000E+00  9.000E+00
      25     1     1     2     0     0 -6.215167271E+02 -7.098063788E+01 -2.846215979E+02  6.985382932E+02  1.250000000E+02  0.00000E+00  9.000E+00
      21     1     1     2   511   501  1.668825871E+02 -9.469889992E+01 -4.277379166E+01  1.965891064E+02  3.471426911E-06  0.00000E+00  9.000E+00
#rwgt            1           1   2.5999496019395656E-002           9      157131           0
</event>
<event>
      5   9999  3.19816E-02  1.52443E+02 -1.00000E+00  1.16116E-01
      21    -1     0     0   502   501  0.000000000E+00  0.000000000E+00  4.674697651E+02  4.674697651E+02  0.000000000E+00  0.00000E+00  9.000E+00
      21    -1     0     0   501   512  0.000000000E+00  0.000000000E+00 -3.108211915E+02  3.108211915E+02  0.000000000E+00  0.00000E+00  9.000E+00
      25     1     1     2     0     0 -6.154896705E+01 -1.411307367E+02  3.414071185E+02  3.948290526E+02  1.250000000E+02  0.00000E+00  9.000E+00
      25     1     1     2     0     0 -8.583165493E+01  1.021731828E+02 -1.133123024E+02  2.151072062E+02  1.250000000E+02  0.00000E+00  9.000E+00
      21     1     1     2   502   512  1.473806220E+02  3.895755393E+01 -7.144624246E+01  1.683546979E+02  2.132480600E-06  0.00000E+00  9.000E+00
#rwgt            1           1   2.2660342666178435E-002           9      157203           0
</event>
<event>
      5   9999  3.19816E-02  1.16865E+02 -1.00000E+00  1.20858E-01
      21    -1     0     0   502   511  0.000000000E+00  0.000000000E+00  6.652098296E+01  6.652098296E+01  0.000000000E+00  0.00000E+00  9.000E+00
      21    -1     0     0   501   502  0.000000000E+00  0.000000000E+00 -9.913516460E+02  9.913516460E+02  0.000000000E+00  0.00000E+00  9.000E+00
      25     1     1     2     0     0  8.780255102E+01  4.712545402E+01 -1.305735318E+02  2.064086810E+02  1.250000000E+02  0.00000E+00  9.000E+00
      25     1     1     2     0     0  2.302469205E+00 -1.215467828E+02 -5.994172369E+02  6.242635226E+02  1.250000000E+02  0.00000E+00  9.000E+00
      21     1     1     2   501   511 -9.010502023E+01  7.442132881E+01 -1.948398944E+02  2.272004254E+02  3.814697266E-06  0.00000E+00  9.000E+00
#rwgt            1           1   3.5006080111754087E-002           9      157243           0
</event>
<event>
      5   9999  3.19816E-02  6.16827E+00 -1.00000E+00  2.23622E-01
      21    -1     0     0   502   501  0.000000000E+00  0.000000000E+00  3.270290749E+01  3.270290749E+01  0.000000000E+00  0.00000E+00  9.000E+00
      21    -1     0     0   501   512  0.000000000E+00  0.000000000E+00 -9.209742610E+02  9.209742610E+02  0.000000000E+00  0.00000E+00  9.000E+00
      25     1     1     2     0     0 -2.640186440E+01  2.877261053E+01 -4.098378240E+02  4.302522092E+02  1.250000000E+02  0.00000E+00  9.000E+00
      25     1     1     2     0     0  2.072404172E+01 -2.636223610E+01 -1.639255782E+02  2.088565263E+02  1.250000000E+02  0.00000E+00  9.000E+00
      21     1     1     2   502   512  5.677822686E+00 -2.410374438E+00 -3.145079513E+02  3.145684329E+02  5.394796609E-06  0.00000E+00  9.000E+00
#rwgt            1           1   2.1833646095969484E-002           9      157300           0
</event>
<event>
      5   9999  3.19816E-02  2.66743E+02 -1.00000E+00  1.07277E-01
      21    -1     0     0   511   501  0.000000000E+00  0.000000000E+00  2.970158745E+02  2.970158745E+02  0.000000000E+00  0.00000E+00  9.000E+00
      21    -1     0     0   501   502  0.000000000E+00  0.000000000E+00 -9.090841230E+02  9.090841230E+02  0.000000000E+00  0.00000E+00  9.000E+00
      25     1     1     2     0     0  3.625139320E+02 -1.273640011E+02 -4.938528198E+02  6.380858463E+02  1.250000000E+02  0.00000E+00  9.000E+00
      25     1     1     2     0     0 -2.270657551E+02 -1.024304432E+02 -6.383174840E+00  2.787769678E+02  1.250000000E+02  0.00000E+00  9.000E+00
      21     1     1     2   511   502 -1.354481769E+02  2.297944443E+02 -1.118322539E+02  2.892371834E+02  6.180515955E-06  0.00000E+00  9.000E+00
#rwgt            1           1   2.5647371063598146E-002           9      157549           0
</event>
<event>
      5   9999  3.19816E-02  3.09162E+01 -1.00000E+00  1.52138E-01
      21    -1     0     0   502   501  0.000000000E+00  0.000000000E+00  6.462234097E+02  6.462234097E+02  0.000000000E+00  0.00000E+00  9.000E+00
      21    -1     0     0   501   512  0.000000000E+00  0.000000000E+00 -2.135530395E+02  2.135530395E+02  0.000000000E+00  0.00000E+00  9.000E+00
      25     1     1     2     0     0 -2.622995004E+01 -3.406001142E+02  1.821249625E+02  4.068057891E+02  1.250000000E+02  0.00000E+00  9.000E+00
      25     1     1     2     0     0  4.501942261E+01  3.160488567E+02  2.454324233E+02  4.216345605E+02  1.250000000E+02  0.00000E+00  9.000E+00
      21     1     1     2   502   512 -1.878947256E+01  2.455125755E+01  5.112984483E+00  3.133609958E+01  2.149076030E-07  0.00000E+00  9.000E+00
#rwgt            1           1   2.8838797654028962E-002           9      157600           0
</event>
<event>
      5   9999  3.19816E-02  1.75576E+01 -1.00000E+00  1.71175E-01
      21    -1     0     0   511   501  0.000000000E+00  0.000000000E+00  2.435822059E+02  2.435822059E+02  0.000000000E+00  0.00000E+00  9.000E+00
      21    -1     0     0   501   502  0.000000000E+00  0.000000000E+00 -4.384093441E+02  4.384093441E+02  0.000000000E+00  0.00000E+00  9.000E+00
      25     1     1     2     0     0 -1.285672533E+02 -2.151386768E+02 -1.096243996E+02  3.007601999E+02  1.250000000E+02  0.00000E+00  9.000E+00
      25     1     1     2     0     0  1.112693809E+02  2.181476375E+02 -1.506209845E+02  3.134979232E+02  1.250000000E+02  0.00000E+00  9.000E+00
      21     1     1     2   511   502  1.729787234E+01 -3.008960703E+00  6.541824584E+01  6.773342691E+01  9.536743164E-07  0.00000E+00  9.000E+00
#rwgt            1           1   2.9053186224606641E-002           9      157735           0
</event>
<event>
      5   9999  3.19816E-02  9.61706E+01 -1.00000E+00  1.24595E-01
       2    -1     0     0   502     0  0.000000000E+00  0.000000000E+00  2.492448248E+03  2.492448248E+03  0.000000000E+00  0.00000E+00  9.000E+00
      21    -1     0     0   501   502  0.000000000E+00  0.000000000E+00 -1.903634234E+02  1.903634234E+02  0.000000000E+00  0.00000E+00  9.000E+00
      25     1     1     2     0     0 -5.197425213E+02  1.564922531E+02  3.932278490E+02  6.818176112E+02  1.250000000E+02  0.00000E+00  9.000E+00
      25     1     1     2     0     0  4.386639666E+02 -1.047713321E+02  1.242216156E+03  1.327452103E+03  1.250000000E+02  0.00000E+00  9.000E+00
       2     1     1     2   501     0  8.107855473E+01 -5.172092098E+01  6.666408196E+02  6.735419571E+02  0.000000000E+00  0.00000E+00  9.000E+00
#rwgt            1           1   2.7226692389898985E-002           9      157895           0
</event>
<event>
      5   9999  3.55224E-02  1.36287E+01 -1.00000E+00  1.81398E-01
      21    -1     0     0   502   501  0.000000000E+00  0.000000000E+00  2.495290507E+01  2.495290507E+01  0.000000000E+00  0.00000E+00  9.000E+00
      21    -1     0     0   501   511  0.000000000E+00  0.000000000E+00 -2.360526244E+03  2.360526244E+03  0.000000000E+00  0.00000E+00  9.000E+00
      25     1     1     2     0     0 -9.223512473E+00  1.310281120E+01 -1.945135726E+03  1.949213880E+03  1.250000000E+02  0.00000E+00  9.000E+00
      25     1     1     2     0     0 -4.229990258E+00 -1.528102234E+01 -1.519828245E+02  1.974213297E+02  1.250000000E+02  0.00000E+00  9.000E+00
      21     1     1     2   502   511  1.345350273E+01  2.178211141E+00 -2.384547883E+02  2.388439394E+02  0.000000000E+00  0.00000E+00  9.000E+00
#rwgt            1           1   8.4071545109755522E-002           9      158040           0
</event>
<event>
      5   9999  3.19816E-02  2.12596E+02 -1.00000E+00  1.10691E-01
      21    -1     0     0   502   501  0.000000000E+00  0.000000000E+00  1.021274226E+03  1.021274226E+03  0.000000000E+00  0.00000E+00  9.000E+00
       2    -1     0     0   501     0  0.000000000E+00  0.000000000E+00 -3.250982087E+02  3.250982087E+02  0.000000000E+00  0.00000E+00  9.000E+00
      25     1     1     2     0     0  1.550384776E+02  2.853286086E+02  3.570286871E+02  4.985417012E+02  1.250000000E+02  0.00000E+00  9.000E+00
      25     1     1     2     0     0 -2.541794199E+02 -4.733923715E+02  3.112551444E+02  6.334131984E+02  1.250000000E+02  0.00000E+00  9.000E+00
       2     1     1     2   502     0  9.914094231E+01  1.880637629E+02  2.789218587E+01  2.144175352E+02  2.567846683E-06  0.00000E+00  9.000E+00
#rwgt            1           1   2.7081152858505299E-002           9      158163           0
</event>
<event>
      5   9999  3.19816E-02  3.11686E+02 -1.00000E+00  1.05056E-01
      21    -1     0     0   502   501  0.000000000E+00  0.000000000E+00  7.879642126E+02  7.879642126E+02  0.000000000E+00  0.00000E+00  9.000E+00
      21    -1     0     0   511   502  0.000000000E+00  0.000000000E+00 -9.872367715E+02  9.872367715E+02  0.000000000E+00  0.00000E+00  9.000E+00
      25     1     1     2     0     0 -3.141915453E+02 -3.405618314E+02  7.396298292E+01  4.855864609E+02  1.250000000E+02  0.00000E+00  9.000E+00
      25     1     1     2     0     0  1.060817209E+01  4.111698585E+02  3.749229884E+02  5.704081285E+02  1.250000000E+02  0.00000E+00  9.000E+00
      21     1     1     2   511   501  3.035833732E+02 -7.060802710E+01 -6.481585302E+02  7.192063948E+02  1.525878906E-05  0.00000E+00  9.000E+00
#rwgt            2          11   2.9832151974760060E-003           9      158366           0
</event>
<event>
      5   9999  3.19816E-02  4.59474E+01 -1.00000E+00  1.41203E-01
      21    -1     0     0   502   501  0.000000000E+00  0.000000000E+00  1.151384096E+03  1.151384096E+03  0.000000000E+00  0.00000E+00  9.000E+00
      21    -1     0     0   501   512  0.000000000E+00  0.000000000E+00 -2.380321702E+02  2.380321702E+02  0.000000000E+00  0.00000E+00  9.000E+00
      25     1     1     2     0     0 -6.246601002E+01 -3.443837132E+02  6.892069915E+02  7.830283657E+02  1.250000000E+02  0.00000E+00  9.000E+00
      25     1     1     2     0     0  7.298904726E+01  2.996575167E+02  3.436375925E+02  4.783657840E+02  1.250000000E+02  0.00000E+00  9.000E+00
      21     1     1     2   502   512 -1.052303723E+01  4.472619651E+01 -1.194926582E+02  1.280221165E+02  4.264961200E-06  0.00000E+00  9.000E+00
#rwgt            1           1   3.3177371494188805E-002           9      158386           0
</event>
<event>
      5   9999  3.19816E-02  5.36660E+01 -1.00000E+00  1.37345E-01
      21    -1     0     0   511   501  0.000000000E+00  0.000000000E+00  1.029575765E+03  1.029575765E+03  0.000000000E+00  0.00000E+00  9.000E+00
      21    -1     0     0   501   502  0.000000000E+00  0.000000000E+00 -4.499874689E+02  4.499874689E+02  0.000000000E+00  0.00000E+00  9.000E+00
      25     1     1     2     0     0 -5.712225932E+01  3.053097054E+02  8.744476988E+02  9.363550324E+02  1.250000000E+02  0.00000E+00  9.000E+00
      25     1     1     2     0     0  3.634473082E+00 -3.096796900E+02 -3.373895430E+02  4.747330024E+02  1.250000000E+02  0.00000E+00  9.000E+00
      21     1     1     2   511   502  5.348778624E+01  4.369984669E+00  4.253014005E+01  6.847519883E+01  8.259061849E-07  0.00000E+00  9.000E+00
#rwgt            1           1   3.1375003687388367E-002           9      158485           0
</event>
<event>
      5   9999  3.19816E-02  2.75106E+00 -1.00000E+00  3.08772E-01
      21    -1     0     0   502   501  0.000000000E+00  0.000000000E+00  4.869670240E+02  4.869670240E+02  0.000000000E+00  0.00000E+00  9.000E+00
      21    -1     0     0   501   512  0.000000000E+00  0.000000000E+00 -5.772955514E+02  5.772955514E+02  0.000000000E+00  0.00000E+00  9.000E+00
      25     1     1     2     0     0  4.671536820E+02  6.049072259E+01  1.459395179E+02  5.087386687E+02  1.250000000E+02  0.00000E+00  9.000E+00
      25     1     1     2     0     0 -4.693639073E+02 -6.212877650E+01 -2.162284711E+02  5.352963797E+02  1.250000000E+02  0.00000E+00  9.000E+00
      21     1     1     2   502   512  2.210225310E+00  1.638053917E+00 -2.003957417E+01  2.022752702E+01  2.384185791E-07  0.00000E+00  9.000E+00
#rwgt            1           1   2.9436000107825600E-002           9      158601           0
</event>
<event>
      5   9999  3.19816E-02  3.58047E+01 -1.00000E+00  1.47889E-01
      21    -1     0     0   502   501  0.000000000E+00  0.000000000E+00  2.762348500E+02  2.762348500E+02  0.000000000E+00  0.00000E+00  9.000E+00
      21    -1     0     0   511   502  0.000000000E+00  0.000000000E+00 -1.085580808E+03  1.085580808E+03  0.000000000E+00  0.00000E+00  9.000E+00
      25     1     1     2     0     0  1.645270136E+02  1.981320305E+02 -5.330711327E+02  6.050746005E+02  1.250000000E+02  0.00000E+00  9.000E+00
      25     1     1     2     0     0 -1.518882585E+02 -2.316318754E+02  1.430611788E+02  3.358792486E+02  1.250000000E+02  0.00000E+00  9.000E+00
      21     1     1     2   511   501 -1.263875511E+01  3.349984482E+01 -4.193360039E+02  4.208618086E+02  7.629394531E-06  0.00000E+00  9.000E+00
#rwgt            1           1   2.6551890259874138E-002           9      159206           0
</event>
<event>
      5   9999  3.19816E-02  5.88607E+01 -1.00000E+00  1.35150E-01
      21    -1     0     0   512   501  0.000000000E+00  0.000000000E+00  1.548177326E+02  1.548177326E+02  0.000000000E+00  0.00000E+00  9.000E+00
      21    -1     0     0   501   502  0.000000000E+00  0.000000000E+00 -1.067890024E+03  1.067890024E+03  0.000000000E+00  0.00000E+00  9.000E+00
      25     1     1     2     0     0  1.693476614E+02  1.324516883E+02 -9.062791183E+02  9.397813152E+02  1.250000000E+02  0.00000E+00  9.000E+00
      25     1     1     2     0     0 -1.242920399E+02 -9.457590266E+01 -5.430234566E+01  2.072844839E+02  1.250000000E+02  0.00000E+00  9.000E+00
      21     1     1     2   512   502 -4.505562157E+01 -3.787578565E+01  4.750917283E+01  7.564195712E+01  1.907348633E-06  0.00000E+00  9.000E+00
#rwgt            1           1   2.7832224699486222E-002           9      159362           0
</event>
<event>
      5   9999  3.19816E-02  7.73340E+01 -1.00000E+00  1.29066E-01
      21    -1     0     0   511   501  0.000000000E+00  0.000000000E+00  1.106283185E+02  1.106283185E+02  0.000000000E+00  0.00000E+00  9.000E+00
      21    -1     0     0   501   502  0.000000000E+00  0.000000000E+00 -8.734618524E+02  8.734618524E+02  0.000000000E+00  0.00000E+00  9.000E+00
      25     1     1     2     0     0  6.712147252E+01  1.384423852E+02 -3.767243126E+02  4.256968332E+02  1.250000000E+02  0.00000E+00  9.000E+00
      25     1     1     2     0     0 -2.687142958E+01 -7.240838548E+01 -4.401633705E+02  4.640407748E+02  1.250000000E+02  0.00000E+00  9.000E+00
      21     1     1     2   511   502 -4.025004295E+01 -6.603399971E+01  5.405414914E+01  9.435256284E+01  1.907348633E-06  0.00000E+00  9.000E+00
#rwgt            1           1   2.4790176790783998E-002           9      159446           0
</event>
<event>
      5   9999  3.19816E-02  3.02840E+01 -1.00000E+00  1.52756E-01
      21    -1     0     0   502   512  0.000000000E+00  0.000000000E+00  1.701556990E+02  1.701556990E+02  0.000000000E+00  0.00000E+00  9.000E+00
      21    -1     0     0   501   502  0.000000000E+00  0.000000000E+00 -7.699046467E+02  7.699046467E+02  0.000000000E+00  0.00000E+00  9.000E+00
      25     1     1     2     0     0 -5.852913614E+01  1.367457182E+02 -6.667741264E+02  6.945054261E+02  1.250000000E+02  0.00000E+00  9.000E+00
      25     1     1     2     0     0  8.515803429E+01 -1.223227198E+02  2.857700466E+01  1.966122676E+02  1.250000000E+02  0.00000E+00  9.000E+00
      21     1     1     2   501   512 -2.662889815E+01 -1.442299841E+01  3.844817402E+01  4.894265200E+01  1.066240300E-06  0.00000E+00  9.000E+00
#rwgt            1           1   2.7224180623108461E-002           9      159496           0
</event>
<event>
      5   9999  3.19816E-02  2.06426E+01 -1.00000E+00  1.65244E-01
      21    -1     0     0   502   511  0.000000000E+00  0.000000000E+00  1.958705610E+02  1.958705610E+02  0.000000000E+00  0.00000E+00  9.000E+00
      21    -1     0     0   501   502  0.000000000E+00  0.000000000E+00 -2.762840504E+02  2.762840504E+02  0.000000000E+00  0.00000E+00  9.000E+00
      25     1     1     2     0     0  1.263547986E+02  2.004876934E+01 -1.575839319E+02  2.383803345E+02  1.250000000E+02  0.00000E+00  9.000E+00
      25     1     1     2     0     0 -1.283725958E+02 -4.059250743E+01  3.528117706E+01  1.870749488E+02  1.250000000E+02  0.00000E+00  9.000E+00
      21     1     1     2   501   511  2.017797256E+00  2.054373809E+01  4.188926543E+01  4.669932804E+01  0.000000000E+00  0.00000E+00  9.000E+00
#rwgt            1           1   2.7777967817891585E-002           9      159599           0
</event>
<event>
      5   9999  3.19816E-02  9.73019E+01 -1.00000E+00  1.24365E-01
      21    -1     0     0   502   501  0.000000000E+00  0.000000000E+00  3.749322556E+02  3.749322556E+02  0.000000000E+00  0.00000E+00  9.000E+00
      21    -1     0     0   501   512  0.000000000E+00  0.000000000E+00 -4.716269203E+02  4.716269203E+02  0.000000000E+00  0.00000E+00  9.000E+00
      25     1     1     2     0     0  2.029241692E+02  1.632723436E+02  1.012312185E+02  3.061189903E+02  1.250000000E+02  0.00000E+00  9.000E+00
      25     1     1     2     0     0 -2.938228423E+02 -1.285579225E+02 -2.892268464E+01  3.454280298E+02  1.250000000E+02  0.00000E+00  9.000E+00
      21     1     1     2   502   512  9.089867312E+01 -3.471442109E+01 -1.690031986E+02  1.950121558E+02  1.907348633E-06  0.00000E+00  9.000E+00
#rwgt            1           1   2.7069278111545789E-002           9      159705           0
</event>
<event>
      5   9999  3.19816E-02  1.09672E+02 -1.00000E+00  1.22051E-01
      21    -1     0     0   511   501  0.000000000E+00  0.000000000E+00  5.029442696E+02  5.029442696E+02  0.000000000E+00  0.00000E+00  9.000E+00
      21    -1     0     0   501   502  0.000000000E+00  0.000000000E+00 -1.438049758E+03  1.438049758E+03  0.000000000E+00  0.00000E+00  9.000E+00
      25     1     1     2     0     0 -4.240487053E+02 -3.955944628E+02  7.885788873E+01  5.984612353E+02  1.250000000E+02  0.00000E+00  9.000E+00
      25     1     1     2     0     0  5.308235708E+02  4.206349590E+02 -1.022181849E+03  1.232553514E+03  1.250000000E+02  0.00000E+00  9.000E+00
      21     1     1     2   511   502 -1.067748654E+02 -2.504049622E+01  8.218472293E+00  1.099792782E+02  9.310543151E-07  0.00000E+00  9.000E+00
#rwgt            1           1   3.0668138293493172E-002           9      159781           0
</event>
<event>
      5   9999  3.19816E-02  1.94231E+01 -1.00000E+00  1.67425E-01
       1    -1     0     0   502     0  0.000000000E+00  0.000000000E+00  1.802810052E+03  1.802810052E+03  0.000000000E+00  0.00000E+00  9.000E+00
      21    -1     0     0   501   502  0.000000000E+00  0.000000000E+00 -3.582545607E+02  3.582545607E+02  0.000000000E+00  0.00000E+00  9.000E+00
      25     1     1     2     0     0 -1.341357507E+02 -9.982476169E+01 -2.800789354E+02  3.493230492E+02  1.250000000E+02  0.00000E+00  9.000E+00
      25     1     1     2     0     0  1.276780633E+02  1.181429070E+02  2.202680817E+02  3.072498367E+02  1.250000000E+02  0.00000E+00  9.000E+00
       1     1     1     2   501     0  6.457687420E+00 -1.831814526E+01  1.504366345E+03  1.504491727E+03  2.157918644E-05  0.00000E+00  9.000E+00
#rwgt            1           1   3.2015334537874855E-002           9      159901           0
</event>
<event>
      5   9999  3.19816E-02  1.62825E+01 -1.00000E+00  1.74091E-01
      21    -1     0     0   511   501  0.000000000E+00  0.000000000E+00  4.410992837E+02  4.410992837E+02  0.000000000E+00  0.00000E+00  9.000E+00
      21    -1     0     0   501   502  0.000000000E+00  0.000000000E+00 -1.659040682E+02  1.659040682E+02  0.000000000E+00  0.00000E+00  9.000E+00
      25     1     1     2     0     0  7.199334123E+00  2.263910964E+02  2.139110781E+02  3.356898989E+02  1.250000000E+02  0.00000E+00  9.000E+00
      25     1     1     2     0     0 -8.844217308E-01 -2.113830067E+02  4.783203459E+01  2.501928481E+02  1.250000000E+02  0.00000E+00  9.000E+00
      21     1     1     2   511   502 -6.314912392E+00 -1.500808970E+01  1.345210293E+01  2.112060483E+01  5.057621821E-07  0.00000E+00  9.000E+00
#rwgt            1           1   2.8294301369427937E-002           9      160032           0
</event>
<event>
      5   9999  3.19816E-02  1.34171E+01 -1.00000E+00  1.82071E-01
      21    -1     0     0   502   512  0.000000000E+00  0.000000000E+00  6.918853854E+01  6.918853854E+01  0.000000000E+00  0.00000E+00  9.000E+00
      21    -1     0     0   501   502  0.000000000E+00  0.000000000E+00 -3.684750218E+03  3.684750218E+03  0.000000000E+00  0.00000E+00  9.000E+00
      25     1     1     2     0     0  2.203184377E+02  2.976100210E+02 -2.923179130E+03  2.949188560E+03  1.250000000E+02  0.00000E+00  9.000E+00
      25     1     1     2     0     0 -2.130926052E+02 -3.089151157E+02 -6.789131616E+02  7.857385621E+02  1.250000000E+02  0.00000E+00  9.000E+00
      21     1     1     2   501   512 -7.225832474E+00  1.130509466E+01 -1.346938813E+01  1.901163425E+01  2.384185791E-07  0.00000E+00  9.000E+00
#rwgt            1           1   1.8722551269833583E-002           9      160172           0
</event>
<event>
      5   9999  3.19816E-02  6.86369E+01 -1.00000E+00  1.31655E-01
      21    -1     0     0   511   501  0.000000000E+00  0.000000000E+00  1.549529038E+03  1.549529038E+03  0.000000000E+00  0.00000E+00  9.000E+00
      21    -1     0     0   501   502  0.000000000E+00  0.000000000E+00 -1.156224760E+02  1.156224760E+02  0.000000000E+00  0.00000E+00  9.000E+00
      25     1     1     2     0     0 -1.169014024E+02  3.460025366E+02  3.916398060E+02  5.499003826E+02  1.250000000E+02  0.00000E+00  9.000E+00
      25     1     1     2     0     0  1.219428573E+02 -2.775509954E+02  8.459975195E+02  9.073265225E+02  1.250000000E+02  0.00000E+00  9.000E+00
      21     1     1     2   511   502 -5.041454871E+00 -6.845154118E+01  1.962692364E+02  2.079246087E+02  4.672030912E-06  0.00000E+00  9.000E+00
#rwgt            1           1   2.9146399863525064E-002           9      160353           0
</event>
<event>
      5   9999  3.19816E-02  2.12425E+01 -1.00000E+00  1.64238E-01
      21    -1     0     0   502   501  0.000000000E+00  0.000000000E+00  4.205784252E+02  4.205784252E+02  0.000000000E+00  0.00000E+00  9.000E+00
      21    -1     0     0   501   512  0.000000000E+00  0.000000000E+00 -2.594642507E+02  2.594642507E+02  0.000000000E+00  0.00000E+00  9.000E+00
      25     1     1     2     0     0 -1.607539773E+02  1.570310072E+02 -1.050151143E+02  2.777656435E+02  1.250000000E+02  0.00000E+00  9.000E+00
      25     1     1     2     0     0  1.675303855E+02 -1.368983629E+02  2.812441921E+02  3.762059109E+02  1.250000000E+02  0.00000E+00  9.000E+00
      21     1     1     2   502   512 -6.776408174E+00 -2.013264433E+01 -1.511490321E+01  2.607112147E+01  2.384185791E-07  0.00000E+00  9.000E+00
#rwgt            1           1   2.8801645483366806E-002           9      160461           0
</event>
<event>
      5   9999  3.19816E-02  3.38713E+01 -1.00000E+00  1.49467E-01
      21    -1     0     0   502   501  0.000000000E+00  0.000000000E+00  1.301786205E+03  1.301786205E+03  0.000000000E+00  0.00000E+00  9.000E+00
      21    -1     0     0   511   502  0.000000000E+00  0.000000000E+00 -8.057892741E+01  8.057892741E+01  0.000000000E+00  0.00000E+00  9.000E+00
      25     1     1     2     0     0  1.797305891E+02 -6.721277332E+01  2.225521568E+02  3.193354099E+02  1.250000000E+02  0.00000E+00  9.000E+00
      25     1     1     2     0     0 -1.924050317E+02  9.862332095E+01  9.983956060E+02  1.029157443E+03  1.250000000E+02  0.00000E+00  9.000E+00
      21     1     1     2   511   501  1.267444262E+01 -3.141054764E+01  2.595148886E-01  3.387227991E+01  7.220531368E-07  0.00000E+00  9.000E+00
#rwgt            1           1   3.0073401706546758E-002           9      160605           0
</event>
<event>
      5   9999  3.19816E-02  3.61286E+01 -1.00000E+00  1.47636E-01
      21    -1     0     0   502   501  0.000000000E+00  0.000000000E+00  3.509255291E+02  3.509255291E+02  0.000000000E+00  0.00000E+00  9.000E+00
      21    -1     0     0   501   512  0.000000000E+00  0.000000000E+00 -5.788165378E+02  5.788165378E+02  0.000000000E+00  0.00000E+00  9.000E+00
      25     1     1     2     0     0  2.071480794E+02  3.601796995E+02 -3.292493073E+01  4.351422685E+02  1.250000000E+02  0.00000E+00  9.000E+00
      25     1     1     2     0     0 -1.904706251E+02 -3.281306493E+02 -1.296890712E+02  4.199917109E+02  1.250000000E+02  0.00000E+00  9.000E+00
      21     1     1     2   502   512 -1.667745428E+01 -3.204905028E+01 -6.527700683E+01  7.460808753E+01  1.348699152E-06  0.00000E+00  9.000E+00
#rwgt            1           1   2.9709720899196133E-002           9      160814           0
</event>
<event>
      5   9999  3.19816E-02  3.78806E+01 -1.00000E+00  1.46322E-01
      21    -1     0     0   511   501  0.000000000E+00  0.000000000E+00  7.404446113E+02  7.404446113E+02  0.000000000E+00  0.00000E+00  9.000E+00
      21    -1     0     0   501   502  0.000000000E+00  0.000000000E+00 -1.683035998E+02  1.683035998E+02  0.000000000E+00  0.00000E+00  9.000E+00
      25     1     1     2     0     0 -2.847165764E+02 -2.210409668E+01  2.598702317E+02  4.058443758E+02  1.250000000E+02  0.00000E+00  9.000E+00
      25     1     1     2     0     0  3.223252969E+02  2.663428600E+01  2.412401340E+02  4.224035801E+02  1.250000000E+02  0.00000E+00  9.000E+00
      21     1     1     2   511   502 -3.760872044E+01 -4.530189319E+00  7.103064571E+01  8.050025527E+01  9.536743164E-07  0.00000E+00  9.000E+00
#rwgt            1           1   2.7350162639172500E-002           9      160940           0
</event>
<event>
      5   9999  3.19816E-02  1.83025E+01 -1.00000E+00  1.69611E-01
      21    -1     0     0   502   501  0.000000000E+00  0.000000000E+00  1.633958605E+02  1.633958605E+02  0.000000000E+00  0.00000E+00  9.000E+00
      21    -1     0     0   512   502  0.000000000E+00  0.000000000E+00 -2.446607114E+02  2.446607114E+02  0.000000000E+00  0.00000E+00  9.000E+00
      25     1     1     2     0     0  1.018499305E+02  7.681408471E+01 -9.299016582E+01  2.013603310E+02  1.250000000E+02  0.00000E+00  9.000E+00
      25     1     1     2     0     0 -8.421330626E+01 -8.170597490E+01  3.709821631E+01  1.754110172E+02  1.250000000E+02  0.00000E+00  9.000E+00
      21     1     1     2   512   501 -1.763662426E+01  4.891890190E+00 -2.537290138E+01  3.128522382E+01  4.768371582E-07  0.00000E+00  9.000E+00
#rwgt            1           1   3.2354524506102954E-002           9      161041           0
</event>
<event>
      5   9999  3.19816E-02  7.30309E+01 -1.00000E+00  1.30295E-01
      21    -1     0     0   511   501  0.000000000E+00  0.000000000E+00  6.061627209E+02  6.061627209E+02  0.000000000E+00  0.00000E+00  9.000E+00
      21    -1     0     0   501   502  0.000000000E+00  0.000000000E+00 -3.438607305E+02  3.438607305E+02  0.000000000E+00  0.00000E+00  9.000E+00
      25     1     1     2     0     0 -2.254159052E+02 -2.756571447E+02  6.911533646E-01  3.773919308E+02  1.250000000E+02  0.00000E+00  9.000E+00
      25     1     1     2     0     0  2.302635382E+02  3.485269374E+02  2.311168668E+02  4.934899485E+02  1.250000000E+02  0.00000E+00  9.000E+00
      21     1     1     2   511   502 -4.847632962E+00 -7.286979264E+01  3.049397016E+01  7.914157214E+01  0.000000000E+00  0.00000E+00  9.000E+00
#rwgt            1           1   2.9536200989133184E-002           9      161187           0
</event>
<event>
      5   9999  3.19816E-02  4.30925E+02 -1.00000E+00  1.00722E-01
      -1    -1     0     0     0   501  0.000000000E+00  0.000000000E+00  1.108941559E+03  1.108941559E+03  0.000000000E+00  0.00000E+00  9.000E+00
      21    -1     0     0   501   502  0.000000000E+00  0.000000000E+00 -5.016307872E+02  5.016307872E+02  0.000000000E+00  0.00000E+00  9.000E+00
      25     1     1     2     0     0 -3.277277138E+02  2.557304352E+02  4.114505682E+02  5.980970489E+02  1.250000000E+02  0.00000E+00  9.000E+00
      25     1     1     2     0     0  5.252114807E+02  1.272792122E+02  1.726312638E+02  5.809248235E+02  1.250000000E+02  0.00000E+00  9.000E+00
      -1     1     1     2     0   502 -1.974837669E+02 -3.830096473E+02  2.322894030E+01  4.315504742E+02  4.561215990E-06  0.00000E+00  9.000E+00
#rwgt            2           5   3.9859630366450084E-005           9      161251           0
</event>
<event>
      5   9999  3.19816E-02  2.91424E+02 -1.00000E+00  1.06003E-01
      21    -1     0     0   502   501  0.000000000E+00  0.000000000E+00  2.393882549E+03  2.393882549E+03  0.000000000E+00  0.00000E+00  9.000E+00
      21    -1     0     0   511   502  0.000000000E+00  0.000000000E+00 -1.541359430E+03  1.541359430E+03  0.000000000E+00  0.00000E+00  9.000E+00
      25     1     1     2     0     0 -7.038321838E+01  1.507844775E+03  1.080845107E+03  1.860752753E+03  1.250000000E+02  0.00000E+00  9.000E+00
      25     1     1     2     0     0 -1.744450314E+02 -1.349771235E+03  3.639919255E+02  1.414365080E+03  1.250000000E+02  0.00000E+00  9.000E+00
      21     1     1     2   511   501  2.448282498E+02 -1.580735399E+02 -5.923139131E+02  6.601241456E+02  1.321449896E-05  0.00000E+00  9.000E+00
#rwgt            1           1   3.8864794668336117E-002           9      161315           0
</event>
<event>
      5   9999  3.19816E-02  3.59761E+01 -1.00000E+00  1.47755E-01
      21    -1     0     0   512   501  0.000000000E+00  0.000000000E+00  8.555029565E+02  8.555029565E+02  0.000000000E+00  0.00000E+00  9.000E+00
      21    -1     0     0   501   502  0.000000000E+00  0.000000000E+00 -2.682064992E+02  2.682064992E+02  0.000000000E+00  0.00000E+00  9.000E+00
      25     1     1     2     0     0  3.145854934E+02 -3.444708172E+01 -9.259821151E+01  3.526330428E+02  1.250000000E+02  0.00000E+00  9.000E+00
      25     1     1     2     0     0 -2.976905617E+02  2.684865495E+00  6.431713703E+02  7.196674861E+02  1.250000000E+02  0.00000E+00  9.000E+00
      21     1     1     2   512   502 -1.689493170E+01  3.176221623E+01  3.672329857E+01  5.140892680E+01  9.536743164E-07  0.00000E+00  9.000E+00
#rwgt            1           1   2.8594966597587111E-002           9      161437           0
</event>
<event>
      5   9999  3.19816E-02  6.36445E+01 -1.00000E+00  1.33349E-01
      21    -1     0     0   502   511  0.000000000E+00  0.000000000E+00  4.450503292E+02  4.450503292E+02  0.000000000E+00  0.00000E+00  9.000E+00
      21    -1     0     0   501   502  0.000000000E+00  0.000000000E+00 -1.182872031E+03  1.182872031E+03  0.000000000E+00  0.00000E+00  9.000E+00
      25     1     1     2     0     0  2.369543986E+02 -9.273901386E+01 -2.158596946E+02  3.563261420E+02  1.250000000E+02  0.00000E+00  9.000E+00
      25     1     1     2     0     0 -2.940809248E+02  6.468225939E+01 -8.641156413E+02  9.235736173E+02  1.250000000E+02  0.00000E+00  9.000E+00
      21     1     1     2   501   511  5.712652620E+01  2.805675446E+01  3.421536341E+02  3.480226010E+02  0.000000000E+00  0.00000E+00  9.000E+00
#rwgt            1           1   2.9236900606889684E-002           9      161650           0
</event>
<event>
      5   9999  3.19816E-02  1.56185E+01 -1.00000E+00  1.75746E-01
       1    -1     0     0   502     0  0.000000000E+00  0.000000000E+00  1.594164662E+02  1.594164662E+02  0.000000000E+00  0.00000E+00  9.000E+00
      21    -1     0     0   501   502  0.000000000E+00  0.000000000E+00 -1.125291550E+03  1.125291550E+03  0.000000000E+00  0.00000E+00  9.000E+00
      25     1     1     2     0     0  2.902109760E+01  1.935423968E+02 -4.209644675E+02  4.807670604E+02  1.250000000E+02  0.00000E+00  9.000E+00
      25     1     1     2     0     0 -2.674485830E+01 -1.780906663E+02 -6.560514381E+02  6.917080759E+02  1.250000000E+02  0.00000E+00  9.000E+00
       1     1     1     2   501     0 -2.276239299E+00 -1.545173049E+01  1.111408214E+02  1.122328803E+02  1.907348633E-06  0.00000E+00  9.000E+00
#rwgt            1           1   2.7863181408074224E-002           9      161757           0
</event>
<event>
      5   9999  3.19816E-02  9.48708E+01 -1.00000E+00  1.24865E-01
      21    -1     0     0   502   501  0.000000000E+00  0.000000000E+00  1.081373374E+02  1.081373374E+02  0.000000000E+00  0.00000E+00  9.000E+00
       1    -1     0     0   501     0  0.000000000E+00  0.000000000E+00 -1.918767770E+03  1.918767770E+03  0.000000000E+00  0.00000E+00  9.000E+00
      25     1     1     2     0     0  1.832874770E+02 -2.686247115E+02 -8.630553132E+02  9.307217675E+02  1.250000000E+02  0.00000E+00  9.000E+00
      25     1     1     2     0     0 -8.893668533E+01  2.785438945E+02 -2.855269974E+02  4.273723218E+02  1.250000000E+02  0.00000E+00  9.000E+00
       1     1     1     2   502     0 -9.435079167E+01 -9.919183010E+00 -6.620481216E+02  6.688110177E+02  1.078959322E-05  0.00000E+00  9.000E+00
#rwgt            1           1   2.7742637994629633E-002           9      161928           0
</event>
<event>
      5   9999  3.19816E-02  2.85070E+02 -1.00000E+00  1.06317E-01
       2    -1     0     0   502     0  0.000000000E+00  0.000000000E+00  1.851404879E+03  1.851404879E+03  0.000000000E+00  0.00000E+00  9.000E+00
      21    -1     0     0   501   502  0.000000000E+00  0.000000000E+00 -4.918973409E+02  4.918973409E+02  0.000000000E+00  0.00000E+00  9.000E+00
      25     1     1     2     0     0 -1.369578136E+00  1.848823974E+02 -1.735571947E+02  2.827197843E+02  1.250000000E+02  0.00000E+00  9.000E+00
      25     1     1     2     0     0  8.582423775E+01 -4.571547280E+02 -1.952401915E+01  4.820398660E+02  1.250000000E+02  0.00000E+00  9.000E+00
       2     1     1     2   501     0 -8.445465962E+01  2.722723306E+02  1.552588752E+03  1.578542569E+03  2.157918644E-05  0.00000E+00  9.000E+00
#rwgt            2          18   4.0354888995961496E-003           9      162016           0
</event>
<event>
      5   9999  3.19816E-02  4.28026E+01 -1.00000E+00  1.43039E-01
      21    -1     0     0   502   501  0.000000000E+00  0.000000000E+00  4.661747219E+02  4.661747219E+02  0.000000000E+00  0.00000E+00  9.000E+00
      21    -1     0     0   511   502  0.000000000E+00  0.000000000E+00 -4.601884959E+02  4.601884959E+02  0.000000000E+00  0.00000E+00  9.000E+00
      25     1     1     2     0     0  1.556891842E+02  2.644197045E+02  2.780320902E+02  4.325317854E+02  1.250000000E+02  0.00000E+00  9.000E+00
      25     1     1     2     0     0 -1.909447290E+02 -2.886913368E+02 -2.551991618E+02  4.478327698E+02  1.250000000E+02  0.00000E+00  9.000E+00
      21     1     1     2   511   501  3.525554475E+01  2.427163231E+01 -1.684670243E+01  4.599866252E+01  5.331201500E-07  0.00000E+00  9.000E+00
#rwgt            1           1   2.8100626677277220E-002           9      162050           0
</event>
<event>
      5   9999  3.19816E-02  1.74849E+02 -1.00000E+00  1.13815E-01
      21    -1     0     0   512   501  0.000000000E+00  0.000000000E+00  2.015964358E+03  2.015964358E+03  0.000000000E+00  0.00000E+00  9.000E+00
      21    -1     0     0   501   502  0.000000000E+00  0.000000000E+00 -8.759859596E+02  8.759859596E+02  0.000000000E+00  0.00000E+00  9.000E+00
      25     1     1     2     0     0  4.090058955E+02 -9.877951909E+02 -8.914837013E+01  1.080091475E+03  1.250000000E+02  0.00000E+00  9.000E+00
      25     1     1     2     0     0 -4.061620379E+02  8.129696333E+02  4.659205813E+02  1.028880077E+03  1.250000000E+02  0.00000E+00  9.000E+00
      21     1     1     2   512   502 -2.843857572E+00  1.748255575E+02  7.632061872E+02  7.829787655E+02  1.078959322E-05  0.00000E+00  9.000E+00
#rwgt            1           1   2.9016539483504647E-002           9      162169           0
</event>
<event>
      5   9999  3.19816E-02  5.75502E+02 -1.00000E+00  9.71473E-02
       2    -1     0     0   502     0  0.000000000E+00  0.000000000E+00  1.568605669E+03  1.568605669E+03  0.000000000E+00  0.00000E+00  9.000E+00
      21    -1     0     0   501   502  0.000000000E+00  0.000000000E+00 -1.119905972E+03  1.119905972E+03  0.000000000E+00  0.00000E+00  9.000E+00
      25     1     1     2     0     0  4.971839635E+02  1.633742946E+02  1.774871527E+01  5.383521808E+02  1.250000000E+02  0.00000E+00  9.000E+00
      25     1     1     2     0     0 -4.170816239E+02  4.065257753E+02 -6.769361774E+02  9.017138544E+02  1.250000000E+02  0.00000E+00  9.000E+00
       2     1     1     2   501     0 -8.010233964E+01 -5.699000699E+02  1.107887159E+03  1.248445606E+03  1.525878906E-05  0.00000E+00  9.000E+00
#rwgt            2          18   1.8703611157848395E-003           9      162532           0
</event>
<event>
      5   9999  3.19816E-02  5.94378E+02 -1.00000E+00  9.67645E-02
      21    -1     0     0   511   501  0.000000000E+00  0.000000000E+00  7.263788488E+02  7.263788488E+02  0.000000000E+00  0.00000E+00  9.000E+00
      21    -1     0     0   501   502  0.000000000E+00  0.000000000E+00 -1.007498511E+03  1.007498511E+03  0.000000000E+00  0.00000E+00  9.000E+00
      25     1     1     2     0     0 -5.218461697E+02 -2.167871805E+02 -6.081372422E+02  8.395093875E+02  1.250000000E+02  0.00000E+00  9.000E+00
      25     1     1     2     0     0 -6.580069314E+01  1.275859284E+02 -4.176569206E+01  1.948775856E+02  1.250000000E+02  0.00000E+00  9.000E+00
      21     1     1     2   511   502  5.876468628E+02  8.920125207E+01  3.687832723E+02  6.994903864E+02  1.078959322E-05  0.00000E+00  9.000E+00
#rwgt            2          11   3.6750100876493598E-003           9      162566           0
</event>
<event>
      5   9999  3.19816E-02  1.00953E+02 -1.00000E+00  1.23643E-01
      21    -1     0     0   502   512  0.000000000E+00  0.000000000E+00  3.166182454E+02  3.166182454E+02  0.000000000E+00  0.00000E+00  9.000E+00
      21    -1     0     0   501   502  0.000000000E+00  0.000000000E+00 -1.765682627E+03  1.765682627E+03  0.000000000E+00  0.00000E+00  9.000E+00
      25     1     1     2     0     0 -6.408031249E+02 -9.491681520E+01 -1.164234163E+03  1.338171900E+03  1.250000000E+02  0.00000E+00  9.000E+00
      25     1     1     2     0     0  5.688301826E+02  2.412540467E+01 -2.146020298E+02  6.211512239E+02  1.250000000E+02  0.00000E+00  9.000E+00
      21     1     1     2   501   512  7.197294233E+01  7.079141053E+01 -7.022818897E+01  1.229777490E+02  2.336015456E-06  0.00000E+00  9.000E+00
#rwgt            1           1   3.0710160677495574E-002           9      162601           0
</event>
<event>
      5   9999  3.19816E-02  5.62247E+01 -1.00000E+00  1.36229E-01
      21    -1     0     0   502   511  0.000000000E+00  0.000000000E+00  5.336546104E+01  5.336546104E+01  0.000000000E+00  0.00000E+00  9.000E+00
      21    -1     0     0   501   502  0.000000000E+00  0.000000000E+00 -1.128890114E+03  1.128890114E+03  0.000000000E+00  0.00000E+00  9.000E+00
      25     1     1     2     0     0  7.817123953E+01  9.046125196E+01 -7.355452840E+02  7.556095855E+02  1.250000000E+02  0.00000E+00  9.000E+00
      25     1     1     2     0     0 -5.421425091E+01 -1.413265491E+02 -2.246205554E+02  2.983148880E+02  1.250000000E+02  0.00000E+00  9.000E+00
      21     1     1     2   501   511 -2.395698862E+01  5.086529719E+01 -1.153588132E+02  1.283311012E+02  1.348699152E-06  0.00000E+00  9.000E+00
#rwgt            1           1   2.1305254301001803E-002           9      162713           0
</event>
<event>
      5   9999  3.19816E-02  1.03938E+02 -1.00000E+00  1.23078E-01
      21    -1     0     0   502   501  0.000000000E+00  0.000000000E+00  1.141947866E+03  1.141947866E+03  0.000000000E+00  0.00000E+00  9.000E+00
      21    -1     0     0   512   502  0.000000000E+00  0.000000000E+00 -1.170827718E+02  1.170827718E+02  0.000000000E+00  0.00000E+00  9.000E+00
      25     1     1     2     0     0  1.710690677E+02 -1.632791927E+01  1.397484920E+02  2.543341658E+02  1.250000000E+02  0.00000E+00  9.000E+00
      25     1     1     2     0     0 -1.145893510E+02  1.035812045E+02  8.783415222E+02  9.005379586E+02  1.250000000E+02  0.00000E+00  9.000E+00
      21     1     1     2   512   501 -5.647971670E+01 -8.725328518E+01  6.775079909E+00  1.041585132E+02  1.603796965E-06  0.00000E+00  9.000E+00
#rwgt            2          11   3.4805988471492870E-003           9      162787           0
</event>
<event>
      5   9999  3.19816E-02  6.96510E+02 -1.00000E+00  9.49274E-02
      21    -1     0     0   502   511  0.000000000E+00  0.000000000E+00  1.584264926E+03  1.584264926E+03  0.000000000E+00  0.00000E+00  9.000E+00
      21    -1     0     0   501   502  0.000000000E+00  0.000000000E+00 -5.957485013E+02  5.957485013E+02  0.000000000E+00  0.00000E+00  9.000E+00
      25     1     1     2     0     0  4.791103144E+02  3.627659750E+02  4.414384819E+02  7.560679727E+02  1.250000000E+02  0.00000E+00  9.000E+00
      25     1     1     2     0     0  1.215604857E+02 -1.017418266E+01 -2.878171010E+02  3.366662283E+02  1.250000000E+02  0.00000E+00  9.000E+00
      21     1     1     2   501   511 -6.006708001E+02 -3.525917923E+02  8.348950442E+02  1.087279227E+03  1.525878906E-05  0.00000E+00  9.000E+00
#rwgt            2          11   1.3082628318096246E-003           9      162972           0
</event>
<event>
      5   9999  3.19816E-02  2.40267E+02 -1.00000E+00  1.08823E-01
      21    -1     0     0   502   501  0.000000000E+00  0.000000000E+00  3.449674126E+02  3.449674126E+02  0.000000000E+00  0.00000E+00  9.000E+00
      21    -1     0     0   501   512  0.000000000E+00  0.000000000E+00 -1.213520301E+03  1.213520301E+03  0.000000000E+00  0.00000E+00  9.000E+00
      25     1     1     2     0     0 -2.568748899E+02 -1.841647950E+02 -6.401583517E+02  7.247958996E+02  1.250000000E+02  0.00000E+00  9.000E+00
      25     1     1     2     0     0  4.868018695E+02  1.144366244E+02 -2.033343259E+01  5.158587497E+02  1.250000000E+02  0.00000E+00  9.000E+00
      21     1     1     2   502   512 -2.299269796E+02  6.972817056E+01 -2.080611040E+02  3.178330643E+02  2.697398305E-06  0.00000E+00  9.000E+00
#rwgt            1           1   2.9196624928721104E-002           9      163007           0
</event>
<event>
      5   9999  3.19816E-02  1.97906E+02 -1.00000E+00  1.11815E-01
      21    -1     0     0   502   511  0.000000000E+00  0.000000000E+00  3.571927725E+02  3.571927725E+02  0.000000000E+00  0.00000E+00  9.000E+00
      21    -1     0     0   501   502  0.000000000E+00  0.000000000E+00 -2.655125803E+02  2.655125803E+02  0.000000000E+00  0.00000E+00  9.000E+00
      25     1     1     2     0     0  2.791853353E+00 -4.622306255E+01 -3.870916671E+01  1.388083771E+02  1.250000000E+02  0.00000E+00  9.000E+00
      25     1     1     2     0     0 -1.304047998E+02  1.974897739E+02  6.442680867E+01  2.752879152E+02  1.250000000E+02  0.00000E+00  9.000E+00
      21     1     1     2   501   511  1.276129465E+02 -1.512667113E+02  6.596255023E+01  2.086090604E+02  5.135693366E-06  0.00000E+00  9.000E+00
#rwgt            2          11   3.8370824728743637E-003           9      163260           0
</event>
<event>
      5   9999  3.19816E-02  1.30590E+02 -1.00000E+00  1.18830E-01
      21    -1     0     0   512   501  0.000000000E+00  0.000000000E+00  1.127569317E+02  1.127569317E+02  0.000000000E+00  0.00000E+00  9.000E+00
      21    -1     0     0   501   502  0.000000000E+00  0.000000000E+00 -2.309875295E+03  2.309875295E+03  0.000000000E+00  0.00000E+00  9.000E+00
      25     1     1     2     0     0 -1.097534752E+02 -1.971700918E+02 -1.157116820E+02  2.827296655E+02  1.250000000E+02  0.00000E+00  9.000E+00
      25     1     1     2     0     0  2.115807478E+02  1.154091784E+02 -1.882377125E+03  1.901855498E+03  1.250000000E+02  0.00000E+00  9.000E+00
      21     1     1     2   512   502 -1.018272726E+02  8.176091335E+01 -1.990295564E+02  2.380470641E+02  3.814697266E-06  0.00000E+00  9.000E+00
#rwgt            1           1   3.1895292167767209E-002           9      163310           0
</event>
<event>
      5   9999  3.19816E-02  1.18204E+01 -1.00000E+00  1.87719E-01
      21    -1     0     0   511   501  0.000000000E+00  0.000000000E+00  9.357315539E+01  9.357315539E+01  0.000000000E+00  0.00000E+00  9.000E+00
      21    -1     0     0   501   502  0.000000000E+00  0.000000000E+00 -6.837167520E+02  6.837167520E+02  0.000000000E+00  0.00000E+00  9.000E+00
      25     1     1     2     0     0 -1.747182085E+02  1.268054091E+02 -3.019066406E+02  3.916359072E+02  1.250000000E+02  0.00000E+00  9.000E+00
      25     1     1     2     0     0  1.730581390E+02 -1.151021732E+02 -2.830476393E+02  3.727446791E+02  1.250000000E+02  0.00000E+00  9.000E+00
      21     1     1     2   511   502  1.660069567E+00 -1.170323593E+01 -5.189316730E+00  1.290932106E+01  2.230201594E-07  0.00000E+00  9.000E+00
#rwgt            1           1   3.5562627296756952E-002           9      163390           0
</event>
<event>
      5   9999  3.19816E-02  4.10651E+01 -1.00000E+00  1.44136E-01
      21    -1     0     0   512   501  0.000000000E+00  0.000000000E+00  1.451455140E+03  1.451455140E+03  0.000000000E+00  0.00000E+00  9.000E+00
      21    -1     0     0   501   502  0.000000000E+00  0.000000000E+00 -9.074341315E+02  9.074341315E+02  0.000000000E+00  0.00000E+00  9.000E+00
      25     1     1     2     0     0  5.717207846E+02  7.323532427E+02 -4.063325882E+02  1.021732401E+03  1.250000000E+02  0.00000E+00  9.000E+00
      25     1     1     2     0     0 -5.426354247E+02 -7.033638480E+02  8.863826943E+02  1.261139638E+03  1.250000000E+02  0.00000E+00  9.000E+00
      21     1     1     2   512   502 -2.908535992E+01 -2.898939466E+01  6.397090202E+01  7.601723140E+01  1.168007728E-06  0.00000E+00  9.000E+00
#rwgt            1           1   2.9067043770216239E-002           9      163572           0
</event>
<event>
      5   9999  3.19816E-02  6.98277E+01 -1.00000E+00  1.31275E-01
      21    -1     0     0   502   501  0.000000000E+00  0.000000000E+00  1.906734818E+02  1.906734818E+02  0.000000000E+00  0.00000E+00  9.000E+00
      21    -1     0     0   511   502  0.000000000E+00  0.000000000E+00 -5.802764450E+02  5.802764450E+02  0.000000000E+00  0.00000E+00  9.000E+00
      25     1     1     2     0     0 -2.200797556E+02  1.917557971E+02 -1.941573067E+02  3.721927515E+02  1.250000000E+02  0.00000E+00  9.000E+00
      25     1     1     2     0     0  1.674133610E+02 -1.459065339E+02 -8.604216708E+01  2.689687800E+02  1.250000000E+02  0.00000E+00  9.000E+00
      21     1     1     2   511   501  5.266639460E+01 -4.584926318E+01 -1.094034894E+02  1.297883953E+02  1.348699152E-06  0.00000E+00  9.000E+00
#rwgt            1           1   3.1351976959087015E-002           9      163727           0
</event>
<event>
      5   9999  3.19816E-02  2.44352E+01 -1.00000E+00  1.59498E-01
      21    -1     0     0   502   501  0.000000000E+00  0.000000000E+00  3.305780026E+02  3.305780026E+02  0.000000000E+00  0.00000E+00  9.000E+00
       1    -1     0     0   501     0  0.000000000E+00  0.000000000E+00 -4.512791123E+02  4.512791123E+02  0.000000000E+00  0.00000E+00  9.000E+00
      25     1     1     2     0     0 -8.983460374E+01 -7.570016055E+01  3.255464684E+01  1.746011895E+02  1.250000000E+02  0.00000E+00  9.000E+00
      25     1     1     2     0     0  1.141205886E+02  7.300418205E+01  1.890718457E+02  2.640573464E+02  1.250000000E+02  0.00000E+00  9.000E+00
       1     1     1     2   502     0 -2.428598486E+01  2.695978499E+00 -3.423276022E+02  3.431985790E+02  0.000000000E+00  0.00000E+00  9.000E+00
#rwgt            1           1   2.4862425393267641E-002           9      163807           0
</event>
<event>
      5   9999  3.19816E-02  1.93825E+01 -1.00000E+00  1.67501E-01
      21    -1     0     0   502   501  0.000000000E+00  0.000000000E+00  4.383845519E+02  4.383845519E+02  0.000000000E+00  0.00000E+00  9.000E+00
      21    -1     0     0   511   502  0.000000000E+00  0.000000000E+00 -7.808938078E+01  7.808938078E+01  0.000000000E+00  0.00000E+00  9.000E+00
      25     1     1     2     0     0 -8.935523268E+01  2.291869903E+01  2.682055300E+02  3.099497229E+02  1.250000000E+02  0.00000E+00  9.000E+00
      25     1     1     2     0     0  1.070906006E+02 -1.509957832E+01  8.516298697E+01  1.859411959E+02  1.250000000E+02  0.00000E+00  9.000E+00
      21     1     1     2   511   501 -1.773536789E+01 -7.819120711E+00  6.926654134E+00  2.058301388E+01  3.576278687E-07  0.00000E+00  9.000E+00
#rwgt            1           1   2.6262699676790832E-002           9      163940           0
</event>
<event>
      5   9999  3.19816E-02  3.04856E+02 -1.00000E+00  1.05366E-01
      21    -1     0     0   502   512  0.000000000E+00  0.000000000E+00  3.591399566E+02  3.591399566E+02  0.000000000E+00  0.00000E+00  9.000E+00
      21    -1     0     0   501   502  0.000000000E+00  0.000000000E+00 -2.033165577E+03  2.033165577E+03  0.000000000E+00  0.00000E+00  9.000E+00
      25     1     1     2     0     0  2.288649140E+02  2.087325654E+02 -2.653514926E+02  4.265968206E+02  1.250000000E+02  0.00000E+00  9.000E+00
      25     1     1     2     0     0 -3.838146607E+01 -4.467524464E+02 -1.558136972E+03  1.626184709E+03  1.250000000E+02  0.00000E+00  9.000E+00
      21     1     1     2   501   512 -1.904834480E+02  2.380198810E+02  1.494628438E+02  3.395240042E+02  3.814697266E-06  0.00000E+00  9.000E+00
#rwgt            2          11   5.6802180714609629E-003           9      164081           0
</event>
<event>
      5   9999  3.19816E-02  4.93993E+01 -1.00000E+00  1.39376E-01
      21    -1     0     0   502   501  0.000000000E+00  0.000000000E+00  2.778913212E+02  2.778913212E+02  0.000000000E+00  0.00000E+00  9.000E+00
      21    -1     0     0   511   502  0.000000000E+00  0.000000000E+00 -7.003800598E+02  7.003800598E+02  0.000000000E+00  0.00000E+00  9.000E+00
      25     1     1     2     0     0 -5.429516052E+01  3.540546373E+02 -1.982849221E+02  4.280707430E+02  1.250000000E+02  0.00000E+00  9.000E+00
      25     1     1     2     0     0  1.035312870E+02 -3.580661596E+02 -8.462753608E+01  4.021404256E+02  1.250000000E+02  0.00000E+00  9.000E+00
      21     1     1     2   511   501 -4.923612649E+01  4.011522280E+00 -1.395762803E+02  1.480602124E+02  1.907348633E-06  0.00000E+00  9.000E+00
#rwgt            1           1   3.3079336277087194E-002           9      164101           0
</event>
<event>
      5   9999  3.19816E-02  5.27167E+02 -1.00000E+00  9.82036E-02
      21    -1     0     0   512   501  0.000000000E+00  0.000000000E+00  9.250693855E+02  9.250693855E+02  0.000000000E+00  0.00000E+00  9.000E+00
      21    -1     0     0   501   502  0.000000000E+00  0.000000000E+00 -7.396673801E+02  7.396673801E+02  0.000000000E+00  0.00000E+00  9.000E+00
      25     1     1     2     0     0 -2.602312504E+02  5.152403170E+02 -1.128681887E+02  6.012961966E+02  1.250000000E+02  0.00000E+00  9.000E+00
      25     1     1     2     0     0 -4.950767864E+01 -8.866489110E+01 -2.534910081E+02  3.003250978E+02  1.250000000E+02  0.00000E+00  9.000E+00
      21     1     1     2   512   502  3.097389291E+02 -4.265754259E+02  5.517612022E+02  7.631154713E+02  1.078959322E-05  0.00000E+00  9.000E+00
#rwgt            2          11   2.8825409721414093E-003           9      164255           0
</event>
<event>
      5   9999  3.19816E-02  1.13999E+02 -1.00000E+00  1.21322E-01
      21    -1     0     0   511   501  0.000000000E+00  0.000000000E+00  3.183298303E+02  3.183298303E+02  0.000000000E+00  0.00000E+00  9.000E+00
      21    -1     0     0   501   502  0.000000000E+00  0.000000000E+00 -2.460524617E+02  2.460524617E+02  0.000000000E+00  0.00000E+00  9.000E+00
      25     1     1     2     0     0 -2.845380451E+01 -9.884304010E+01  7.630750999E+01  1.789620117E+02  1.250000000E+02  0.00000E+00  9.000E+00
      25     1     1     2     0     0  6.036833503E+01  2.082835276E+02 -6.151066557E+01  2.577497347E+02  1.250000000E+02  0.00000E+00  9.000E+00
      21     1     1     2   511   502 -3.191453052E+01 -1.094404875E+02  5.748052414E+01  1.276705456E+02  1.348699152E-06  0.00000E+00  9.000E+00
#rwgt            2          11   2.8583071733081144E-003           9      164440           0
</event>
<event>
      5   9999  3.19816E-02  1.60489E+01 -1.00000E+00  1.74662E-01
      21    -1     0     0   502   512  0.000000000E+00  0.000000000E+00  7.128667914E+02  7.128667914E+02  0.000000000E+00  0.00000E+00  9.000E+00
      21    -1     0     0   501   502  0.000000000E+00  0.000000000E+00 -1.405192493E+02  1.405192493E+02  0.000000000E+00  0.00000E+00  9.000E+00
      25     1     1     2     0     0  8.726518256E+01 -4.325568880E+01 -7.836266914E+01  1.767822803E+02  1.250000000E+02  0.00000E+00  9.000E+00
      25     1     1     2     0     0 -8.857673770E+01  5.925091630E+01  5.310957499E+02  5.559174445E+02  1.250000000E+02  0.00000E+00  9.000E+00
      21     1     1     2   501   512  1.311555141E+00 -1.599522750E+01  1.196144614E+02  1.206863159E+02  1.348699152E-06  0.00000E+00  9.000E+00
#rwgt            1           1   2.5433194111869433E-002           9      164460           0
</event>
<event>
      5   9999  3.19816E-02  2.67242E+01 -1.00000E+00  1.56612E-01
      21    -1     0     0   502   511  0.000000000E+00  0.000000000E+00  2.258517208E+02  2.258517208E+02  0.000000000E+00  0.00000E+00  9.000E+00
      21    -1     0     0   501   502  0.000000000E+00  0.000000000E+00 -2.553273437E+02  2.553273437E+02  0.000000000E+00  0.00000E+00  9.000E+00
      25     1     1     2     0     0 -1.124461836E+02 -6.630947735E+01 -1.634239672E+02  2.436667479E+02  1.250000000E+02  0.00000E+00  9.000E+00
      25     1     1     2     0     0  8.755773203E+01  5.657562559E+01  1.339383113E+02  2.107881142E+02  1.250000000E+02  0.00000E+00  9.000E+00
      21     1     1     2   501   511  2.488845161E+01  9.733851765E+00  1.003309478E-02  2.672420240E+01  5.363323366E-07  0.00000E+00  9.000E+00
#rwgt            1           1   2.8660798719708645E-002           9      164645           0
</event>
<event>
      5   9999  3.19816E-02  5.93285E+01 -1.00000E+00  1.34965E-01
      21    -1     0     0   512   501  0.000000000E+00  0.000000000E+00  8.528894309E+02  8.528894309E+02  0.000000000E+00  0.00000E+00  9.000E+00
      21    -1     0     0   501   502  0.000000000E+00  0.000000000E+00 -7.427484278E+02  7.427484278E+02  0.000000000E+00  0.00000E+00  9.000E+00
      25     1     1     2     0     0 -4.977057393E+02 -3.690405837E+02 -4.258386936E+02  7.621453591E+02  1.250000000E+02  0.00000E+00  9.000E+00
      25     1     1     2     0     0  4.607860216E+02  3.225991823E+02  5.068043970E+02  7.673784509E+02  1.250000000E+02  0.00000E+00  9.000E+00
      21     1     1     2   512   502  3.691971774E+01  4.644140137E+01  2.917529979E+01  6.611404871E+01  1.430511475E-06  0.00000E+00  9.000E+00
#rwgt            1           1   2.9704961433319965E-002           9      164777           0
</event>
<event>
      5   9999  3.19816E-02  3.41865E+02 -1.00000E+00  1.03781E-01
      21    -1     0     0   502   501  0.000000000E+00  0.000000000E+00  1.230976481E+03  1.230976481E+03  0.000000000E+00  0.00000E+00  9.000E+00
      21    -1     0     0   501   511  0.000000000E+00  0.000000000E+00 -1.409157243E+02  1.409157243E+02  0.000000000E+00  0.00000E+00  9.000E+00
      25     1     1     2     0     0 -1.859578712E+01  8.700940631E+01  2.151171086E+02  2.642287087E+02  1.250000000E+02  0.00000E+00  9.000E+00
      25     1     1     2     0     0  1.028850503E+02  2.443020203E+02  6.043605361E+02  6.716736323E+02  1.250000000E+02  0.00000E+00  9.000E+00
      21     1     1     2   502   511 -8.428926321E+01 -3.313114266E+02  2.705831121E+02  4.359898644E+02  6.607249480E-06  0.00000E+00  9.000E+00
#rwgt            2          11   4.9351639902372908E-003           9      164898           0
</event>
<event>
      5   9999  3.19816E-02  3.56271E+01 -1.00000E+00  1.48029E-01
      21    -1     0     0   512   501  0.000000000E+00  0.000000000E+00  2.441567363E+02  2.441567363E+02  0.000000000E+00  0.00000E+00  9.000E+00
      21    -1     0     0   501   502  0.000000000E+00  0.000000000E+00 -1.186881352E+03  1.186881352E+03  0.000000000E+00  0.00000E+00  9.000E+00
      25     1     1     2     0     0  5.723416020E+01 -3.106628425E+02 -9.970234493E+02  1.053312826E+03  1.250000000E+02  0.00000E+00  9.000E+00
      25     1     1     2     0     0 -9.136631515E+01  3.004507115E+02  5.250576421E+01  3.420530497E+02  1.250000000E+02  0.00000E+00  9.000E+00
      21     1     1     2   512   502  3.413215495E+01  1.021213102E+01  1.793069876E+00  3.567221217E+01  4.272243734E-07  0.00000E+00  9.000E+00
#rwgt            1           1   3.2284878636861566E-002           9      164948           0
</event>
<event>
      5   9999  3.19816E-02  4.16207E+01 -1.00000E+00  1.43778E-01
      21    -1     0     0   511   501  0.000000000E+00  0.000000000E+00  1.593259120E+02  1.593259120E+02  0.000000000E+00  0.00000E+00  9.000E+00
      21    -1     0     0   501   502  0.000000000E+00  0.000000000E+00 -4.233213212E+02  4.233213212E+02  0.000000000E+00  0.00000E+00  9.000E+00
      25     1     1     2     0     0 -1.408892675E+02 -6.489932128E+01 -7.295017947E+01  2.121519179E+02  1.250000000E+02  0.00000E+00  9.000E+00
      25     1     1     2     0     0  1.441246743E+02  1.063940888E+02 -2.273359178E+02  3.152748696E+02  1.250000000E+02  0.00000E+00  9.000E+00
      21     1     1     2   511   502 -3.235406880E+00 -4.149476753E+01  3.629068802E+01  5.522044573E+01  6.743495762E-07  0.00000E+00  9.000E+00
#rwgt            1           1   2.8321958118414859E-002           9      165121           0
</event>
<event>
      5   9999  3.19816E-02  2.10788E+01 -1.00000E+00  1.64508E-01
      21    -1     0     0   502   501  0.000000000E+00  0.000000000E+00  8.318798870E+01  8.318798870E+01  0.000000000E+00  0.00000E+00  9.000E+00
      21    -1     0     0   512   502  0.000000000E+00  0.000000000E+00 -2.204228437E+03  2.204228437E+03  0.000000000E+00  0.00000E+00  9.000E+00
      25     1     1     2     0     0 -9.410442494E+01  1.637770781E+02 -1.442365424E+02  2.685288704E+02  1.250000000E+02  0.00000E+00  9.000E+00
      25     1     1     2     0     0  7.722605788E+01 -1.511503348E+02 -5.088792167E+02  5.508115330E+02  1.250000000E+02  0.00000E+00  9.000E+00
      21     1     1     2   512   501  1.687836706E+01 -1.262674323E+01 -1.467924689E+03  1.468076022E+03  0.000000000E+00  0.00000E+00  9.000E+00
#rwgt            1           1   2.4390357542172638E-002           9      165206           0
</event>
<event>
      5   9999  3.19816E-02  4.91721E+02 -1.00000E+00  9.90584E-02
       2    -1     0     0   502     0  0.000000000E+00  0.000000000E+00  1.716057344E+03  1.716057344E+03  0.000000000E+00  0.00000E+00  9.000E+00
      21    -1     0     0   501   502  0.000000000E+00  0.000000000E+00 -1.341731338E+03  1.341731338E+03  0.000000000E+00  0.00000E+00  9.000E+00
      25     1     1     2     0     0  5.747929493E+01 -1.011455949E+03  1.155542156E+03  1.541833221E+03  1.250000000E+02  0.00000E+00  9.000E+00
      25     1     1     2     0     0  3.328393840E+02  7.123894475E+02 -3.845522144E+02  8.841867371E+02  1.250000000E+02  0.00000E+00  9.000E+00
       2     1     1     2   501     0 -3.903186790E+02  2.990665015E+02 -3.966639355E+02  6.317687244E+02  1.078959322E-05  0.00000E+00  9.000E+00
#rwgt            1           1   2.6790265871716987E-002           9      165466           0
</event>
<event>
      5   9999  3.19816E-02  3.83845E+02 -1.00000E+00  1.02227E-01
      21    -1     0     0   511   501  0.000000000E+00  0.000000000E+00  1.031875743E+03  1.031875743E+03  0.000000000E+00  0.00000E+00  9.000E+00
      21    -1     0     0   501   502  0.000000000E+00  0.000000000E+00 -1.157283691E+03  1.157283691E+03  0.000000000E+00  0.00000E+00  9.000E+00
      25     1     1     2     0     0 -6.601179476E+02  4.563848638E+01  5.119656609E+02  8.459151341E+02  1.250000000E+02  0.00000E+00  9.000E+00
      25     1     1     2     0     0  3.215098853E+02  1.351421833E+02 -8.335489692E+02  9.121737226E+02  1.250000000E+02  0.00000E+00  9.000E+00
      21     1     1     2   511   502  3.386080623E+02 -1.807806696E+02  1.961753601E+02  4.310705769E+02  3.814697266E-06  0.00000E+00  9.000E+00
#rwgt            2          11   4.0592805232592911E-003           9      165558           0
</event>
<event>
      5   9999  3.19816E-02  2.49769E+02 -1.00000E+00  1.08244E-01
      21    -1     0     0   502   501  0.000000000E+00  0.000000000E+00  6.717963680E+02  6.717963680E+02  0.000000000E+00  0.00000E+00  9.000E+00
       3    -1     0     0   501     0  0.000000000E+00  0.000000000E+00 -1.255241110E+03  1.255241110E+03  0.000000000E+00  0.00000E+00  9.000E+00
      25     1     1     2     0     0  6.244938712E+02  7.907281962E+01  3.080169573E+02  7.118599244E+02  1.250000000E+02  0.00000E+00  9.000E+00
      25     1     1     2     0     0 -3.748061651E+02 -8.543118222E+01 -1.473242636E+02  4.302413124E+02  1.250000000E+02  0.00000E+00  9.000E+00
       3     1     1     2   502     0 -2.496877062E+02  6.358362594E+00 -7.441374360E+02  7.849362414E+02  1.078959322E-05  0.00000E+00  9.000E+00
#rwgt            1           1   2.6394423585842892E-002           9      165578           0
</event>
<event>
      5   9999  3.19816E-02  7.12805E+00 -1.00000E+00  2.14447E-01
      21    -1     0     0   511   501  0.000000000E+00  0.000000000E+00  4.906346174E+01  4.906346174E+01  0.000000000E+00  0.00000E+00  9.000E+00
      21    -1     0     0   501   502  0.000000000E+00  0.000000000E+00 -8.366180325E+02  8.366180325E+02  0.000000000E+00  0.00000E+00  9.000E+00
      25     1     1     2     0     0 -4.785590977E+01  1.203509665E+02 -3.948138369E+02  4.339095632E+02  1.250000000E+02  0.00000E+00  9.000E+00
      25     1     1     2     0     0  4.654434158E+01 -1.133446162E+02 -4.029469971E+02  4.393229567E+02  1.250000000E+02  0.00000E+00  9.000E+00
      21     1     1     2   511   502  1.311568188E+00 -7.006350347E+00  1.020626320E+01  1.244897445E+01  2.920019320E-07  0.00000E+00  9.000E+00
#rwgt            1           1   3.2676249239034581E-002           9      165662           0
</event>
<event>
      5   9999  3.19816E-02  7.57479E+02 -1.00000E+00  9.39836E-02
      21    -1     0     0   502   501  0.000000000E+00  0.000000000E+00  1.032621011E+03  1.032621011E+03  0.000000000E+00  0.00000E+00  9.000E+00
      21    -1     0     0   512   502  0.000000000E+00  0.000000000E+00 -1.092701636E+03  1.092701636E+03  0.000000000E+00  0.00000E+00  9.000E+00
      25     1     1     2     0     0 -6.876785756E+02  2.010481196E+02  3.853578573E+02  8.230722009E+02  1.250000000E+02  0.00000E+00  9.000E+00
      25     1     1     2     0     0 -3.467626402E+01 -4.290341189E+02 -5.958900638E+01  4.521598923E+02  1.250000000E+02  0.00000E+00  9.000E+00
      21     1     1     2   512   501  7.223548396E+02  2.279859993E+02 -3.858494759E+02  8.500905529E+02  1.789251617E-05  0.00000E+00  9.000E+00
#rwgt            2          11   1.4227628835551754E-003           9      166111           0
</event>
<event>
      5   9999  3.19816E-02  4.51157E+02 -1.00000E+00  1.00137E-01
      21    -1     0     0   502   501  0.000000000E+00  0.000000000E+00  6.773644183E+02  6.773644183E+02  0.000000000E+00  0.00000E+00  9.000E+00
      21    -1     0     0   501   511  0.000000000E+00  0.000000000E+00 -1.575871917E+03  1.575871917E+03  0.000000000E+00  0.00000E+00  9.000E+00
      25     1     1     2     0     0 -6.406360153E+02  2.691927329E+02  9.647506629E+01  7.126090583E+02  1.250000000E+02  0.00000E+00  9.000E+00
      25     1     1     2     0     0  2.607060232E+02 -2.588987228E+01  1.377852117E+02  3.213217711E+02  1.250000000E+02  0.00000E+00  9.000E+00
      21     1     1     2   502   511  3.799299921E+02 -2.433028606E+02 -1.132767777E+03  1.219305506E+03  1.525878906E-05  0.00000E+00  9.000E+00
#rwgt            1           1   2.4533976332066110E-002           9      166131           0
</event>
<event>
      5   9999  3.19816E-02  6.50318E+01 -1.00000E+00  1.32861E-01
      21    -1     0     0   502   512  0.000000000E+00  0.000000000E+00  1.643090898E+02  1.643090898E+02  0.000000000E+00  0.00000E+00  9.000E+00
      21    -1     0     0   501   502  0.000000000E+00  0.000000000E+00 -3.470283309E+02  3.470283309E+02  0.000000000E+00  0.00000E+00  9.000E+00
      25     1     1     2     0     0 -1.484572127E+02 -4.070931894E+01 -1.345459653E+02  2.396339071E+02  1.250000000E+02  0.00000E+00  9.000E+00
      25     1     1     2     0     0  1.488007115E+02 -2.432158059E+01 -6.157759564E+01  2.053046305E+02  1.250000000E+02  0.00000E+00  9.000E+00
      21     1     1     2   501   512 -3.434987849E-01  6.503089952E+01  1.340431985E+01  6.639888309E+01  1.685873940E-07  0.00000E+00  9.000E+00
#rwgt            1           1   2.8378470037374842E-002           9      166182           0
</event>
<event>
      5   9999  3.19816E-02  1.05424E+02 -1.00000E+00  1.22805E-01
       1    -1     0     0   502     0  0.000000000E+00  0.000000000E+00  7.863797170E+02  7.863797170E+02  0.000000000E+00  0.00000E+00  9.000E+00
      21    -1     0     0   501   502  0.000000000E+00  0.000000000E+00 -1.034747797E+03  1.034747797E+03  0.000000000E+00  0.00000E+00  9.000E+00
      25     1     1     2     0     0  3.256711614E+02  3.904174646E+02 -6.195068732E+02  8.111111317E+02  1.250000000E+02  0.00000E+00  9.000E+00
      25     1     1     2     0     0 -2.228036574E+02 -3.673400330E+02 -1.549158250E+02  4.735019350E+02  1.250000000E+02  0.00000E+00  9.000E+00
       1     1     1     2   501     0 -1.028675039E+02 -2.307743157E+01  5.260546180E+02  5.365144475E+02  7.629394531E-06  0.00000E+00  9.000E+00
#rwgt            1           1   2.7417936434511993E-002           9      166268           0
</event>
<event>
      5   9999  3.19816E-02  4.02912E+01 -1.00000E+00  1.44645E-01
      21    -1     0     0   502   501  0.000000000E+00  0.000000000E+00  9.454931569E+02  9.454931569E+02  0.000000000E+00  0.00000E+00  9.000E+00
      21    -1     0     0   511   502  0.000000000E+00  0.000000000E+00 -1.973293252E+02  1.973293252E+02  0.000000000E+00  0.00000E+00  9.000E+00
      25     1     1     2     0     0 -1.433685918E+02  1.846683641E+02  2.554805360E+01  2.663356169E+02  1.250000000E+02  0.00000E+00  9.000E+00
      25     1     1     2     0     0  1.055256660E+02 -1.708375199E+02  7.750623925E+02  8.103504407E+02  1.250000000E+02  0.00000E+00  9.000E+00
      21     1     1     2   511   501  3.784292576E+01 -1.383084411E+01 -5.244661440E+01  6.613642447E+01  0.000000000E+00  0.00000E+00  9.000E+00
#rwgt            1           1   2.6562882411120686E-002           9      166366           0
</event>
<event>
      5   9999  3.19816E-02  2.57176E+02 -1.00000E+00  1.07812E-01
      21    -1     0     0   502   501  0.000000000E+00  0.000000000E+00  7.832183266E+02  7.832183266E+02  0.000000000E+00  0.00000E+00  9.000E+00
      21    -1     0     0   501   512  0.000000000E+00  0.000000000E+00 -3.282304173E+02  3.282304173E+02  0.000000000E+00  0.00000E+00  9.000E+00
      25     1     1     2     0     0 -6.619482852E+01  1.267294274E+02  3.886801665E+02  4.325960875E+02  1.250000000E+02  0.00000E+00  9.000E+00
      25     1     1     2     0     0  1.536604624E+02 -3.685747965E+02  4.142344880E+01  4.204757073E+02  1.250000000E+02  0.00000E+00  9.000E+00
      21     1     1     2   502   512 -8.746563392E+01  2.418453691E+02  2.488429400E+01  2.583769490E+02  2.676241913E-06  0.00000E+00  9.000E+00
#rwgt            2          11   3.6239774942010343E-003           9      166499           0
</event>
<event>
      5   9999  3.19816E-02  9.64244E+01 -1.00000E+00  1.24543E-01
      21    -1     0     0   502   501  0.000000000E+00  0.000000000E+00  1.804631071E+03  1.804631071E+03  0.000000000E+00  0.00000E+00  9.000E+00
      21    -1     0     0   511   502  0.000000000E+00  0.000000000E+00 -2.136578681E+02  2.136578681E+02  0.000000000E+00  0.00000E+00  9.000E+00
      25     1     1     2     0     0 -5.016748734E+02 -4.500172237E+01  1.185996635E+03  1.294571686E+03  1.250000000E+02  0.00000E+00  9.000E+00
      25     1     1     2     0     0  4.571595785E+02  1.305356643E+02  3.869747976E+02  6.256268328E+02  1.250000000E+02  0.00000E+00  9.000E+00
      21     1     1     2   511   501  4.451529485E+01 -8.553394192E+01  1.800177015E+01  9.809041964E+01  7.907449699E-07  0.00000E+00  9.000E+00
#rwgt            1           1   2.8603811163073371E-002           9      166519           0
</event>
<event>
      5   9999  3.19816E-02  2.61847E+02 -1.00000E+00  1.07548E-01
      21    -1     0     0   502   501  0.000000000E+00  0.000000000E+00  5.682382466E+02  5.682382466E+02  0.000000000E+00  0.00000E+00  9.000E+00
      21    -1     0     0   512   502  0.000000000E+00  0.000000000E+00 -1.080327485E+03  1.080327485E+03  0.000000000E+00  0.00000E+00  9.000E+00
      25     1     1     2     0     0  3.854007655E+02 -1.129847617E+02  1.534415372E+02  4.477372129E+02  1.250000000E+02  0.00000E+00  9.000E+00
      25     1     1     2     0     0 -1.768490519E+02  2.713191674E+02  1.242925810E+02  3.687320483E+02  1.250000000E+02  0.00000E+00  9.000E+00
      21     1     1     2   512   501 -2.085517137E+02 -1.583344058E+02 -7.898233567E+02  8.320964704E+02  1.525878906E-05  0.00000E+00  9.000E+00
#rwgt            2          11   3.2048582924766428E-003           9      166605           0
</event>
<event>
      5   9999  3.19816E-02  3.20952E+01 -1.00000E+00  1.51031E-01
      21    -1     0     0   511   501  0.000000000E+00  0.000000000E+00  5.378124016E+02  5.378124016E+02  0.000000000E+00  0.00000E+00  9.000E+00
      21    -1     0     0   501   502  0.000000000E+00  0.000000000E+00 -3.398107773E+02  3.398107773E+02  0.000000000E+00  0.00000E+00  9.000E+00
      25     1     1     2     0     0 -7.753270625E+01  1.179948091E+02 -1.990531170E+02  2.741919746E+02  1.250000000E+02  0.00000E+00  9.000E+00
      25     1     1     2     0     0  7.908314509E+01 -8.593708812E+01 -3.127254513E+01  1.739031312E+02  1.250000000E+02  0.00000E+00  9.000E+00
      21     1     1     2   511   502 -1.550438840E+00 -3.205772103E+01  4.283272864E+02  4.295280732E+02  5.394796609E-06  0.00000E+00  9.000E+00
#rwgt            1           1   3.4537011031827838E-002           9      166640           0
</event>
<event>
      5   9999  3.19816E-02  2.17982E+01 -1.00000E+00  1.63342E-01
      21    -1     0     0   502   512  0.000000000E+00  0.000000000E+00  1.780542071E+02  1.780542071E+02  0.000000000E+00  0.00000E+00  9.000E+00
      21    -1     0     0   501   502  0.000000000E+00  0.000000000E+00 -6.247864995E+02  6.247864995E+02  0.000000000E+00  0.00000E+00  9.000E+00
      25     1     1     2     0     0  2.350772471E+02 -1.654055510E+02 -9.359407529E+01  3.271164309E+02  1.250000000E+02  0.00000E+00  9.000E+00
      25     1     1     2     0     0 -2.146100332E+02  1.579053256E+02 -3.421514894E+02  4.513138596E+02  1.250000000E+02  0.00000E+00  9.000E+00
      21     1     1     2   501   512 -2.046721392E+01  7.500225435E+00 -1.098672773E+01  2.441041609E+01  5.331201500E-07  0.00000E+00  9.000E+00
#rwgt            1           1   2.4350514684689527E-002           9      166724           0
</event>
<event>
      5   9999  3.19816E-02  2.24097E+02 -1.00000E+00  1.09879E-01
       2    -1     0     0   502     0  0.000000000E+00  0.000000000E+00  3.321162316E+03  3.321162316E+03  0.000000000E+00  0.00000E+00  9.000E+00
      21    -1     0     0   501   502  0.000000000E+00  0.000000000E+00 -4.681244555E+02  4.681244555E+02  0.000000000E+00  0.00000E+00  9.000E+00
      25     1     1     2     0     0 -8.510705012E+02  5.385788091E+02  6.123176139E+02  1.185304177E+03  1.250000000E+02  0.00000E+00  9.000E+00
      25     1     1     2     0     0  8.923667390E+02 -3.183198961E+02  1.173056762E+03  1.513054235E+03  1.250000000E+02  0.00000E+00  9.000E+00
       2     1     1     2   501     0 -4.129623780E+01 -2.202589130E+02  1.067663484E+03  1.090928359E+03  0.000000000E+00  0.00000E+00  9.000E+00
#rwgt            1           1   3.2393675399835196E-002           9      166886           0
</event>
<event>
      5   9999  3.19816E-02  7.17231E+01 -1.00000E+00  1.30688E-01
      21    -1     0     0   502   501  0.000000000E+00  0.000000000E+00  1.041685113E+03  1.041685113E+03  0.000000000E+00  0.00000E+00  9.000E+00
      21    -1     0     0   501   511  0.000000000E+00  0.000000000E+00 -1.986819453E+02  1.986819453E+02  0.000000000E+00  0.00000E+00  9.000E+00
      25     1     1     2     0     0  3.660687494E+02  1.376720105E+02  6.253432820E+02  7.480903235E+02  1.250000000E+02  0.00000E+00  9.000E+00
      25     1     1     2     0     0 -3.027170471E+02 -1.712989347E+02  1.765073268E+02  4.095860984E+02  1.250000000E+02  0.00000E+00  9.000E+00
      21     1     1     2   502   511 -6.335170235E+01  3.362692420E+01  4.115255863E+01  8.269063613E+01  1.261592536E-06  0.00000E+00  9.000E+00
#rwgt            1           1   2.8860407144639114E-002           9      166970           0
</event>
<event>
      5   9999  3.19816E-02  3.51622E+02 -1.00000E+00  1.03399E-01
      21    -1     0     0   502   501  0.000000000E+00  0.000000000E+00  2.392631677E+03  2.392631677E+03  0.000000000E+00  0.00000E+00  9.000E+00
      21    -1     0     0   501   512  0.000000000E+00  0.000000000E+00 -8.489127954E+02  8.489127954E+02  0.000000000E+00  0.00000E+00  9.000E+00
      25     1     1     2     0     0  1.163344184E+03  2.538371144E+02  6.851564176E+01  1.199217397E+03  1.250000000E+02  0.00000E+00  9.000E+00
      25     1     1     2     0     0 -8.892086431E+02 -4.740364232E+02  1.299764257E+03  1.649367959E+03  1.250000000E+02  0.00000E+00  9.000E+00
      21     1     1     2   502   512 -2.741355410E+02  2.201993089E+02  1.754389830E+02  3.929591165E+02  6.607249480E-06  0.00000E+00  9.000E+00
#rwgt            2          11   5.7178101901030915E-003           9      167143           0
</event>
<event>
      5   9999  3.19816E-02  2.55586E+01 -1.00000E+00  1.58035E-01
      21    -1     0     0   502   501  0.000000000E+00  0.000000000E+00  1.979223531E+02  1.979223531E+02  0.000000000E+00  0.00000E+00  9.000E+00
      21    -1     0     0   501   511  0.000000000E+00  0.000000000E+00 -3.151486469E+02  3.151486469E+02  0.000000000E+00  0.00000E+00  9.000E+00
      25     1     1     2     0     0  5.971541866E+00 -1.415206451E+02  8.483969014E+01  2.070906211E+02  1.250000000E+02  0.00000E+00  9.000E+00
      25     1     1     2     0     0 -2.405906100E+01  1.595784718E+02 -1.820543882E+02  2.735195192E+02  1.250000000E+02  0.00000E+00  9.000E+00
      21     1     1     2   502   511  1.808751914E+01 -1.805782669E+01 -2.001159570E+01  3.246085975E+01  2.384185791E-07  0.00000E+00  9.000E+00
#rwgt            1           1   2.6939970072437522E-002           9      167178           0
</event>
<event>
      5   9999  3.19816E-02  1.47622E+02 -1.00000E+00  1.16669E-01
      21    -1     0     0   512   501  0.000000000E+00  0.000000000E+00  6.190095149E+02  6.190095149E+02  0.000000000E+00  0.00000E+00  9.000E+00
      21    -1     0     0   501   502  0.000000000E+00  0.000000000E+00 -1.026185896E+03  1.026185896E+03  0.000000000E+00  0.00000E+00  9.000E+00
      25     1     1     2     0     0 -3.604281662E+02  4.926235225E+02 -3.949677878E+02  7.377065482E+02  1.250000000E+02  0.00000E+00  9.000E+00
      25     1     1     2     0     0  4.873007665E+02 -5.680933893E+02 -2.562019361E+01  7.592585398E+02  1.250000000E+02  0.00000E+00  9.000E+00
      21     1     1     2   512   502 -1.268726003E+02  7.546986677E+01  1.341160058E+01  1.482303226E+02  1.784161275E-06  0.00000E+00  9.000E+00
#rwgt            2          11   7.1939868401167594E-003           9      167308           0
</event>
<event>
      5   9999  3.19816E-02  4.31395E+01 -1.00000E+00  1.42834E-01
      21    -1     0     0   502   501  0.000000000E+00  0.000000000E+00  4.808838081E+01  4.808838081E+01  0.000000000E+00  0.00000E+00  9.000E+00
      21    -1     0     0   511   502  0.000000000E+00  0.000000000E+00 -1.696810157E+03  1.696810157E+03  0.000000000E+00  0.00000E+00  9.000E+00
      25     1     1     2     0     0 -2.955087370E+01 -3.935383285E+01 -5.554522114E+02  5.714666547E+02  1.250000000E+02  0.00000E+00  9.000E+00
      25     1     1     2     0     0  6.277941844E+01  6.686524090E+01 -1.121153227E+02  1.913297191E+02  1.250000000E+02  0.00000E+00  9.000E+00
      21     1     1     2   511   501 -3.322854474E+01 -2.751140805E+01 -9.811542425E+02  9.821021645E+02  1.525878906E-05  0.00000E+00  9.000E+00
#rwgt            1           1   2.6358307073533371E-002           9      167328           0
</event>
<event>
      5   9999  3.19816E-02  1.86390E+02 -1.00000E+00  1.12774E-01
      21    -1     0     0   512   501  0.000000000E+00  0.000000000E+00  3.918787896E+02  3.918787896E+02  0.000000000E+00  0.00000E+00  9.000E+00
      21    -1     0     0   501   502  0.000000000E+00  0.000000000E+00 -2.335444807E+03  2.335444807E+03  0.000000000E+00  0.00000E+00  9.000E+00
      25     1     1     2     0     0 -6.332175868E+01  1.027650587E+01  2.987178329E+02  3.301099747E+02  1.250000000E+02  0.00000E+00  9.000E+00
      25     1     1     2     0     0 -5.429489279E+01 -1.548714349E+02 -2.195328062E+03  2.204999637E+03  1.250000000E+02  0.00000E+00  9.000E+00
      21     1     1     2   512   502  1.176166515E+02  1.445949290E+02 -4.695578841E+01  1.922139856E+02  2.523185073E-06  0.00000E+00  9.000E+00
#rwgt            1           1   1.8378034110435627E-002           9      167406           0
</event>
<event>
      5   9999  3.19816E-02  8.02496E+01 -1.00000E+00  1.28284E-01
      21    -1     0     0   502   501  0.000000000E+00  0.000000000E+00  1.154602937E+02  1.154602937E+02  0.000000000E+00  0.00000E+00  9.000E+00
      21    -1     0     0   501   511  0.000000000E+00  0.000000000E+00 -7.528211064E+02  7.528211064E+02  0.000000000E+00  0.00000E+00  9.000E+00
      25     1     1     2     0     0  3.913123654E+01 -5.342944355E+01  4.170275638E+01  1.474790799E+02  1.250000000E+02  0.00000E+00  9.000E+00
      25     1     1     2     0     0  2.796711783E+01  9.744998925E+01 -4.750030248E+02  5.015291952E+02  1.250000000E+02  0.00000E+00  9.000E+00
      21     1     1     2   502   511 -6.709835437E+01 -4.402054570E+01 -2.040605444E+02  2.192731251E+02  2.697398305E-06  0.00000E+00  9.000E+00
#rwgt            1           1   2.8318246081863861E-002           9      167490           0
</event>
<event>
      5   9999  3.19816E-02  1.86544E+01 -1.00000E+00  1.68904E-01
      21    -1     0     0   502   501  0.000000000E+00  0.000000000E+00  3.386862965E+02  3.386862965E+02  0.000000000E+00  0.00000E+00  9.000E+00
      21    -1     0     0   512   502  0.000000000E+00  0.000000000E+00 -9.537623607E+01  9.537623607E+01  0.000000000E+00  0.00000E+00  9.000E+00
      25     1     1     2     0     0  9.857509455E+01  4.284947016E+01  1.628510139E+02  2.317295387E+02  1.250000000E+02  0.00000E+00  9.000E+00
      25     1     1     2     0     0 -1.072540220E+02 -2.633699181E+01  7.508275267E+01  1.829193323E+02  1.250000000E+02  0.00000E+00  9.000E+00
      21     1     1     2   512   501  8.678927444E+00 -1.651247835E+01  5.376293850E+00  1.941366164E+01  2.457562462E-07  0.00000E+00  9.000E+00
#rwgt            2          11   1.1135755473100719E-003           9      167748           0
</event>
<event>
      5   9999  3.19816E-02  2.60960E+01 -1.00000E+00  1.57368E-01
      21    -1     0     0   511   501  0.000000000E+00  0.000000000E+00  1.890895170E+02  1.890895170E+02  0.000000000E+00  0.00000E+00  9.000E+00
      21    -1     0     0   501   502  0.000000000E+00  0.000000000E+00 -4.429061874E+02  4.429061874E+02  0.000000000E+00  0.00000E+00  9.000E+00
      25     1     1     2     0     0 -1.287659497E+02  1.749589908E+02  2.478267015E+00  2.506440905E+02  1.250000000E+02  0.00000E+00  9.000E+00
      25     1     1     2     0     0  1.053169059E+02 -1.864108838E+02 -2.543401469E+02  3.551824582E+02  1.250000000E+02  0.00000E+00  9.000E+00
      21     1     1     2   511   502  2.344904378E+01  1.145189297E+01 -1.954790526E+00  2.616915575E+01  1.849185474E-07  0.00000E+00  9.000E+00
#rwgt            1           1   2.3067021093580546E-002           9      167783           0
</event>
<event>
      5   9999  3.19816E-02  3.31498E+01 -1.00000E+00  1.50088E-01
      21    -1     0     0   502   512  0.000000000E+00  0.000000000E+00  1.176589882E+03  1.176589882E+03  0.000000000E+00  0.00000E+00  9.000E+00
      21    -1     0     0   501   502  0.000000000E+00  0.000000000E+00 -4.412990062E+02  4.412990062E+02  0.000000000E+00  0.00000E+00  9.000E+00
      25     1     1     2     0     0  9.999916711E+01  2.671023004E+02 -1.400030137E+02  3.414224892E+02  1.250000000E+02  0.00000E+00  9.000E+00
      25     1     1     2     0     0 -1.327299719E+02 -2.618481373E+02 -7.322685047E+01  3.273665592E+02  1.250000000E+02  0.00000E+00  9.000E+00
      21     1     1     2   501   512  3.273080480E+01 -5.254163107E+00  9.485207403E+02  9.490998402E+02  1.078959322E-05  0.00000E+00  9.000E+00
#rwgt            1           1   2.5989651687376568E-002           9      167928           0
</event>
<event>
      5   9999  3.19816E-02  1.79210E+02 -1.00000E+00  1.13411E-01
      21    -1     0     0   502   511  0.000000000E+00  0.000000000E+00  7.922803601E+02  7.922803601E+02  0.000000000E+00  0.00000E+00  9.000E+00
      21    -1     0     0   501   502  0.000000000E+00  0.000000000E+00 -4.480503789E+02  4.480503789E+02  0.000000000E+00  0.00000E+00  9.000E+00
      25     1     1     2     0     0 -3.565506586E+01  3.189100044E+02  8.654778341E+01  3.550920915E+02  1.250000000E+02  0.00000E+00  9.000E+00
      25     1     1     2     0     0  2.120040512E+02 -2.870180808E+02 -1.752145933E+02  4.167136309E+02  1.250000000E+02  0.00000E+00  9.000E+00
      21     1     1     2   501   511 -1.763489853E+02 -3.189192356E+01  4.328967912E+02  4.685250167E+02  9.344061824E-06  0.00000E+00  9.000E+00
#rwgt            2          11   2.7455934837439201E-003           9      168091           0
</event>
<event>
      5   9999  3.19816E-02  6.38592E+01 -1.00000E+00  1.33272E-01
      21    -1     0     0   502   501  0.000000000E+00  0.000000000E+00  2.439059427E+02  2.439059427E+02  0.000000000E+00  0.00000E+00  9.000E+00
      -2    -1     0     0     0   502  0.000000000E+00  0.000000000E+00 -9.093040691E+02  9.093040691E+02  0.000000000E+00  0.00000E+00  9.000E+00
      25     1     1     2     0     0 -3.881332574E+02 -7.661317493E+01 -2.715402302E+02  4.958589524E+02  1.250000000E+02  0.00000E+00  9.000E+00
      25     1     1     2     0     0  3.279362345E+02  5.529834058E+01 -1.182531845E+02  3.744447837E+02  1.250000000E+02  0.00000E+00  9.000E+00
      -2     1     1     2     0   501  6.019702295E+01  2.131483435E+01 -2.756047118E+02  2.829062758E+02  5.394796609E-06  0.00000E+00  9.000E+00
#rwgt            2           9   2.4512872847635923E-005           9      168216           0
</event>
<event>
      5   9999  3.19816E-02  6.77107E+00 -1.00000E+00  2.17615E-01
      21    -1     0     0   502   501  0.000000000E+00  0.000000000E+00  4.536101707E+01  4.536101707E+01  0.000000000E+00  0.00000E+00  9.000E+00
       2    -1     0     0   501     0  0.000000000E+00  0.000000000E+00 -2.185068144E+03  2.185068144E+03  0.000000000E+00  0.00000E+00  9.000E+00
      25     1     1     2     0     0 -1.447881281E+01 -2.115066020E+02 -4.686970694E+02  5.293832464E+02  1.250000000E+02  0.00000E+00  9.000E+00
      25     1     1     2     0     0  2.049336314E+01  2.083965217E+02 -9.761386141E+02  1.006141482E+03  1.250000000E+02  0.00000E+00  9.000E+00
       2     1     1     2   502     0 -6.014550330E+00  3.110080266E+00 -6.948714430E+02  6.949044320E+02  1.078959322E-05  0.00000E+00  9.000E+00
#rwgt            1           1   3.8529076596551894E-002           9      168235           0
</event>
<event>
      5   9999  3.19816E-02  4.74780E+01 -1.00000E+00  1.40370E-01
      21    -1     0     0   511   501  0.000000000E+00  0.000000000E+00  5.998147716E+02  5.998147716E+02  0.000000000E+00  0.00000E+00  9.000E+00
      21    -1     0     0   501   502  0.000000000E+00  0.000000000E+00 -1.677575981E+02  1.677575981E+02  0.000000000E+00  0.00000E+00  9.000E+00
      25     1     1     2     0     0  1.382905858E+02  1.065349380E+02 -4.948642015E+01  2.203358457E+02  1.250000000E+02  0.00000E+00  9.000E+00
      25     1     1     2     0     0 -9.206033095E+01 -1.173479868E+02  2.854292821E+02  3.454569866E+02  1.250000000E+02  0.00000E+00  9.000E+00
      21     1     1     2   511   502 -4.623025483E+01  1.081304884E+01  1.961143116E+02  2.017795373E+02  0.000000000E+00  0.00000E+00  9.000E+00
#rwgt            1           1   2.6716748314853909E-002           9      168526           0
</event>
<event>
      5   9999  3.19816E-02  1.41330E+02 -1.00000E+00  1.17428E-01
      21    -1     0     0   512   501  0.000000000E+00  0.000000000E+00  1.477943323E+02  1.477943323E+02  0.000000000E+00  0.00000E+00  9.000E+00
      21    -1     0     0   501   502  0.000000000E+00  0.000000000E+00 -1.094695869E+03  1.094695869E+03  0.000000000E+00  0.00000E+00  9.000E+00
      25     1     1     2     0     0  2.652148949E+02  9.431995515E+01 -5.804560577E+02  6.571068629E+02  1.250000000E+02  0.00000E+00  9.000E+00
      25     1     1     2     0     0 -1.248482015E+02 -1.107964429E+02 -3.898568553E+02  4.421270098E+02  1.250000000E+02  0.00000E+00  9.000E+00
      21     1     1     2   512   502 -1.403666935E+02  1.647648776E+01  2.341137577E+01  1.432563290E+02  3.888489349E-06  0.00000E+00  9.000E+00
#rwgt            1           1   2.8933693021189907E-002           9      168691           0
</event>
<event>
      5   9999  3.19816E-02  1.59483E+02 -1.00000E+00  1.15348E-01
      21    -1     0     0   502   501  0.000000000E+00  0.000000000E+00  9.650534346E+02  9.650534346E+02  0.000000000E+00  0.00000E+00  9.000E+00
      21    -1     0     0   511   502  0.000000000E+00  0.000000000E+00 -1.560570010E+02  1.560570010E+02  0.000000000E+00  0.00000E+00  9.000E+00
      25     1     1     2     0     0 -1.368613018E+02  1.739017330E+02  3.883736539E+02  4.641464464E+02  1.250000000E+02  0.00000E+00  9.000E+00
      25     1     1     2     0     0  5.411762676E+01 -3.102405088E+02  3.326572280E+02  4.748302035E+02  1.250000000E+02  0.00000E+00  9.000E+00
      21     1     1     2   511   501  8.274367507E+01  1.363387759E+02  8.796555174E+01  1.821337856E+02  5.135693366E-06  0.00000E+00  9.000E+00
#rwgt            1           1   2.6794291361697864E-002           9      168761           0
</event>
<event>
      5   9999  3.19816E-02  3.04392E+02 -1.00000E+00  1.05387E-01
       2    -1     0     0   502     0  0.000000000E+00  0.000000000E+00  2.458206352E+03  2.458206352E+03  0.000000000E+00  0.00000E+00  9.000E+00
      21    -1     0     0   501   502  0.000000000E+00  0.000000000E+00 -6.579952331E+02  6.579952331E+02  0.000000000E+00  0.00000E+00  9.000E+00
      25     1     1     2     0     0 -5.577882429E+02  2.057584181E+02 -4.524074360E+02  7.574706190E+02  1.250000000E+02  0.00000E+00  9.000E+00
      25     1     1     2     0     0  2.762113142E+02 -9.013378701E+01  5.994972326E+02  6.778190921E+02  1.250000000E+02  0.00000E+00  9.000E+00
       2     1     1     2   501     0  2.815769287E+02 -1.156246311E+02  1.653121322E+03  1.680911874E+03  2.157918644E-05  0.00000E+00  9.000E+00
#rwgt            1           1   2.9922727960218810E-002           9      168801           0
</event>
<event>
      5   9999  3.19816E-02  2.71893E+01 -1.00000E+00  1.56068E-01
      21    -1     0     0   511   501  0.000000000E+00  0.000000000E+00  1.150254337E+02  1.150254337E+02  0.000000000E+00  0.00000E+00  9.000E+00
      21    -1     0     0   501   502  0.000000000E+00  0.000000000E+00 -7.971597332E+02  7.971597332E+02  0.000000000E+00  0.00000E+00  9.000E+00
      25     1     1     2     0     0 -7.723319144E+00  5.298346998E+01  5.167699883E+01  1.454730558E+02  1.250000000E+02  0.00000E+00  9.000E+00
      25     1     1     2     0     0  3.326117226E+01 -4.365192592E+01 -7.255700708E+02  7.383012419E+02  1.250000000E+02  0.00000E+00  9.000E+00
      21     1     1     2   511   502 -2.553785311E+01 -9.331544059E+00 -8.241227515E+00  2.841086917E+01  1.685873940E-07  0.00000E+00  9.000E+00
#rwgt            1           1   2.5001996664526346E-002           9      168840           0
</event>
<event>
      5   9999  3.19816E-02  4.03121E+01 -1.00000E+00  1.44631E-01
       2    -1     0     0   502     0  0.000000000E+00  0.000000000E+00  4.444786517E+02  4.444786517E+02  0.000000000E+00  0.00000E+00  9.000E+00
      21    -1     0     0   501   502  0.000000000E+00  0.000000000E+00 -1.697537417E+02  1.697537417E+02  0.000000000E+00  0.00000E+00  9.000E+00
      25     1     1     2     0     0 -7.288422877E+01 -8.050238019E+01 -8.944302393E+01  1.881961704E+02  1.250000000E+02  0.00000E+00  9.000E+00
      25     1     1     2     0     0  3.353281852E+01  8.925072315E+01  1.868258045E+02  2.441700693E+02  1.250000000E+02  0.00000E+00  9.000E+00
       2     1     1     2   501     0  3.935141025E+01 -8.748342960E+00  1.773421294E+02  1.818661537E+02  3.303624740E-06  0.00000E+00  9.000E+00
#rwgt            1           1   2.8126688498320517E-002           9      168971           0
</event>
<event>
      5   9999  3.19816E-02  8.42714E+01 -1.00000E+00  1.27266E-01
      21    -1     0     0   511   501  0.000000000E+00  0.000000000E+00  1.712447516E+02  1.712447516E+02  0.000000000E+00  0.00000E+00  9.000E+00
      21    -1     0     0   501   502  0.000000000E+00  0.000000000E+00 -1.588292941E+03  1.588292941E+03  0.000000000E+00  0.00000E+00  9.000E+00
      25     1     1     2     0     0  1.673904176E+02  9.487607918E+01 -7.447830340E+01  2.412323361E+02  1.250000000E+02  0.00000E+00  9.000E+00
      25     1     1     2     0     0 -1.479602319E+02 -1.768768835E+02 -1.394741084E+03  1.419191795E+03  1.250000000E+02  0.00000E+00  9.000E+00
      21     1     1     2   511   502 -1.943018567E+01  8.200080436E+01  5.217119786E+01  9.911356072E+01  1.651812370E-06  0.00000E+00  9.000E+00
#rwgt            1           1   3.2359087938684937E-002           9      169036           0
</event>
<event>
      5   9999  3.19816E-02  4.51674E+01 -1.00000E+00  1.41642E-01
      21    -1     0     0   512   501  0.000000000E+00  0.000000000E+00  2.389765593E+02  2.389765593E+02  0.000000000E+00  0.00000E+00  9.000E+00
      21    -1     0     0   501   502  0.000000000E+00  0.000000000E+00 -4.813416345E+02  4.813416345E+02  0.000000000E+00  0.00000E+00  9.000E+00
      25     1     1     2     0     0  5.807619149E+01  6.763001820E+01  9.831031370E+01  1.823090265E+02  1.250000000E+02  0.00000E+00  9.000E+00
      25     1     1     2     0     0 -9.390399303E+01 -4.012617215E+01 -4.182102231E+02  4.482776599E+02  1.250000000E+02  0.00000E+00  9.000E+00
      21     1     1     2   512   502  3.582780154E+01 -2.750384605E+01  7.753483419E+01  8.973150742E+01  0.000000000E+00  0.00000E+00  9.000E+00
#rwgt            1           1   2.7611919857327794E-002           9      169117           0
</event>
<event>
      5   9999  3.19816E-02  4.91741E+02 -1.00000E+00  9.90579E-02
       1    -1     0     0   502     0  0.000000000E+00  0.000000000E+00  6.796470120E+02  6.796470120E+02  0.000000000E+00  0.00000E+00  9.000E+00
      21    -1     0     0   501   502  0.000000000E+00  0.000000000E+00 -1.150788815E+03  1.150788815E+03  0.000000000E+00  0.00000E+00  9.000E+00
      25     1     1     2     0     0 -2.827538475E+02 -2.451277712E+01  4.073865456E+02  5.119955195E+02  1.250000000E+02  0.00000E+00  9.000E+00
      25     1     1     2     0     0 -1.439373812E+02 -2.199124521E+02 -7.582734990E+02  8.122088128E+02  1.250000000E+02  0.00000E+00  9.000E+00
       1     1     1     2   501     0  4.266912287E+02  2.444252292E+02 -1.202548495E+02  5.062314946E+02  1.070496765E-05  0.00000E+00  9.000E+00
#rwgt            2          17   1.4031258736412971E-004           9      169479           0
</event>
<event>
      5   9999  3.19816E-02  1.30000E+02 -1.00000E+00  1.18911E-01
       2    -1     0     0   502     0  0.000000000E+00  0.000000000E+00  1.200753643E+03  1.200753643E+03  0.000000000E+00  0.00000E+00  9.000E+00
      21    -1     0     0   501   502  0.000000000E+00  0.000000000E+00 -6.308450223E+02  6.308450223E+02  0.000000000E+00  0.00000E+00  9.000E+00
      25     1     1     2     0     0  1.548972419E+02 -1.396586414E+02  1.517022329E+02  2.865942412E+02  1.250000000E+02  0.00000E+00  9.000E+00
      25     1     1     2     0     0 -5.188619939E+01  6.035719552E+01 -5.492310682E+02  5.688716331E+02  1.250000000E+02  0.00000E+00  9.000E+00
       2     1     1     2   501     0 -1.030110425E+02  7.930144586E+01  9.674374559E+02  9.761327908E+02  1.525878906E-05  0.00000E+00  9.000E+00
#rwgt            1           1   2.6910649085629863E-002           9      169498           0
</event>
<event>
      5   9999  3.19816E-02  2.98018E+02 -1.00000E+00  1.05686E-01
      21    -1     0     0   502   511  0.000000000E+00  0.000000000E+00  1.448134663E+02  1.448134663E+02  0.000000000E+00  0.00000E+00  9.000E+00
      21    -1     0     0   501   502  0.000000000E+00  0.000000000E+00 -2.917459783E+03  2.917459783E+03  0.000000000E+00  0.00000E+00  9.000E+00
      25     1     1     2     0     0 -1.986575317E+01 -3.120592172E+02 -1.859704325E+03  1.889947295E+03  1.250000000E+02  0.00000E+00  9.000E+00
      25     1     1     2     0     0  2.374802348E+02  1.084455522E+02 -8.048413533E+02  8.553080753E+02  1.250000000E+02  0.00000E+00  9.000E+00
      21     1     1     2   501   511 -2.176144817E+02  2.036136650E+02 -1.081006384E+02  3.170178784E+02  9.047348958E-06  0.00000E+00  9.000E+00
#rwgt            1           1   8.3040478111888499E-002           9      169586           0
</event>
<event>
      5   9999  3.19816E-02  1.41683E+01 -1.00000E+00  1.79750E-01
      21    -1     0     0   502   512  0.000000000E+00  0.000000000E+00  7.852493561E+01  7.852493561E+01  0.000000000E+00  0.00000E+00  9.000E+00
      21    -1     0     0   501   502  0.000000000E+00  0.000000000E+00 -1.065199075E+03  1.065199075E+03  0.000000000E+00  0.00000E+00  9.000E+00
      25     1     1     2     0     0  9.077498411E+01 -1.664960573E+02 -6.206664617E+02  6.609182185E+02  1.250000000E+02  0.00000E+00  9.000E+00
      25     1     1     2     0     0 -1.012196766E+02  1.569226548E+02 -3.927794012E+02  4.525160777E+02  1.250000000E+02  0.00000E+00  9.000E+00
      21     1     1     2   501   512  1.044469250E+01  9.573402541E+00  2.677172339E+01  3.028971461E+01  8.920806376E-07  0.00000E+00  9.000E+00
#rwgt            1           1   3.4380090172423022E-002           9      169614           0
</event>
<event>
      5   9999  3.19816E-02  5.82935E+01 -1.00000E+00  1.35376E-01
      21    -1     0     0   502   501  0.000000000E+00  0.000000000E+00  4.266043776E+02  4.266043776E+02  0.000000000E+00  0.00000E+00  9.000E+00
      21    -1     0     0   501   511  0.000000000E+00  0.000000000E+00 -1.468398861E+03  1.468398861E+03  0.000000000E+00  0.00000E+00  9.000E+00
      25     1     1     2     0     0  1.711941572E+02 -6.689753680E+02 -8.670513514E+01  7.070914106E+02  1.250000000E+02  0.00000E+00  9.000E+00
      25     1     1     2     0     0 -1.591860223E+02  6.119320544E+02 -8.388360022E+02  1.057861932E+03  1.250000000E+02  0.00000E+00  9.000E+00
      21     1     1     2   502   511 -1.200813486E+01  5.704331361E+01 -1.162533459E+02  1.300498957E+02  1.907348633E-06  0.00000E+00  9.000E+00
#rwgt            1           1   2.4178776195828141E-002           9      169839           0
</event>
<event>
      5   9999  3.19816E-02  4.46845E+02 -1.00000E+00  1.00259E-01
      -2    -1     0     0     0   501  0.000000000E+00  0.000000000E+00  6.114134593E+02  6.114134593E+02  0.000000000E+00  0.00000E+00  9.000E+00
      21    -1     0     0   501   502  0.000000000E+00  0.000000000E+00 -6.046887895E+02  6.046887895E+02  0.000000000E+00  0.00000E+00  9.000E+00
      25     1     1     2     0     0 -2.339833843E+02 -1.815636288E+02  1.730567893E+02  3.650852336E+02  1.250000000E+02  0.00000E+00  9.000E+00
      25     1     1     2     0     0 -1.937262606E+02  3.109255636E+02 -6.007308598E+01  3.917120700E+02  1.250000000E+02  0.00000E+00  9.000E+00
      -2     1     1     2     0   502  4.277096449E+02 -1.293619348E+02 -1.062590335E+02  4.593049452E+02  4.862803949E-06  0.00000E+00  9.000E+00
#rwgt            2           4   4.0128166174407933E-005           9      170009           0
</event>
<event>
      5   9999  3.19816E-02  1.52915E+01 -1.00000E+00  1.76600E-01
      21    -1     0     0   502   501  0.000000000E+00  0.000000000E+00  1.318505468E+03  1.318505468E+03  0.000000000E+00  0.00000E+00  9.000E+00
      21    -1     0     0   511   502  0.000000000E+00  0.000000000E+00 -6.664787661E+01  6.664787661E+01  0.000000000E+00  0.00000E+00  9.000E+00
      25     1     1     2     0     0  7.133100197E+01 -2.432730881E+00  2.672289636E+01  1.464006257E+02  1.250000000E+02  0.00000E+00  9.000E+00
      25     1     1     2     0     0 -8.187511872E+01 -8.642069048E+00  1.200239305E+03  1.209536113E+03  1.250000000E+02  0.00000E+00  9.000E+00
      21     1     1     2   511   501  1.054411676E+01  1.107479993E+01  2.489539025E+01  2.921660568E+01  3.371747881E-07  0.00000E+00  9.000E+00
#rwgt            1           1   2.7039095924481945E-002           9      170058           0
</event>
<event>
      5   9999  3.19816E-02  5.17185E+01 -1.00000E+00  1.38243E-01
      21    -1     0     0   502   501  0.000000000E+00  0.000000000E+00  1.938085200E+02  1.938085200E+02  0.000000000E+00  0.00000E+00  9.000E+00
      21    -1     0     0   501   512  0.000000000E+00  0.000000000E+00 -1.484369491E+03  1.484369491E+03  0.000000000E+00  0.00000E+00  9.000E+00
      25     1     1     2     0     0  3.356044730E+01  3.451575433E+02 -1.247066109E+02  3.891487789E+02  1.250000000E+02  0.00000E+00  9.000E+00
      25     1     1     2     0     0  1.368219700E+01 -3.662035679E+02 -5.591358844E+02  6.801104270E+02  1.250000000E+02  0.00000E+00  9.000E+00
      21     1     1     2   502   512 -4.724264430E+01  2.104602457E+01 -6.067184758E+02  6.089188053E+02  0.000000000E+00  0.00000E+00  9.000E+00
#rwgt            1           1   2.9208396180439654E-002           9      170204           0
</event>
<event>
      5   9999  3.19816E-02  1.79284E+01 -1.00000E+00  1.70385E-01
      21    -1     0     0   511   501  0.000000000E+00  0.000000000E+00  2.474009106E+02  2.474009106E+02  0.000000000E+00  0.00000E+00  9.000E+00
      21    -1     0     0   501   502  0.000000000E+00  0.000000000E+00 -2.601351284E+02  2.601351284E+02  0.000000000E+00  0.00000E+00  9.000E+00
      25     1     1     2     0     0  7.062616518E+01 -1.762179725E+02  5.917478665E+01  2.348775945E+02  1.250000000E+02  0.00000E+00  9.000E+00
      25     1     1     2     0     0 -6.712792856E+01  1.938017634E+02 -7.976214744E+01  2.530855240E+02  1.250000000E+02  0.00000E+00  9.000E+00
      21     1     1     2   511   502 -3.498236616E+00 -1.758379086E+01  7.853143068E+00  1.957292049E+01  3.264680848E-07  0.00000E+00  9.000E+00
#rwgt            1           1   2.6994053927049812E-002           9      170309           0
</event>
<event>
      5   9999  3.19816E-02  1.91607E+02 -1.00000E+00  1.12330E-01
      21    -1     0     0   502   501  0.000000000E+00  0.000000000E+00  2.042012517E+03  2.042012517E+03  0.000000000E+00  0.00000E+00  9.000E+00
      21    -1     0     0   501   512  0.000000000E+00  0.000000000E+00 -8.946510565E+02  8.946510565E+02  0.000000000E+00  0.00000E+00  9.000E+00
      25     1     1     2     0     0  2.613519921E+01  1.129177163E+03 -8.050660416E+01  1.139223608E+03  1.250000000E+02  0.00000E+00  9.000E+00
      25     1     1     2     0     0  1.296396645E+02 -1.017608783E+03  1.229116268E+03  1.605828720E+03  1.250000000E+02  0.00000E+00  9.000E+00
      21     1     1     2   502   512 -1.557748637E+02 -1.115683805E+02 -1.248202954E+00  1.916112463E+02  2.461624924E-06  0.00000E+00  9.000E+00
#rwgt            1           1   6.6762937895977384E-002           9      170463           0
</event>
<event>
      5   9999  3.19816E-02  3.91760E+01 -1.00000E+00  1.45403E-01
      21    -1     0     0   502   501  0.000000000E+00  0.000000000E+00  6.256447937E+02  6.256447937E+02  0.000000000E+00  0.00000E+00  9.000E+00
      21    -1     0     0   511   502  0.000000000E+00  0.000000000E+00 -3.200480966E+02  3.200480966E+02  0.000000000E+00  0.00000E+00  9.000E+00
      25     1     1     2     0     0  2.088582795E+02 -8.039586871E+01  4.214079010E+02  4.932493240E+02  1.250000000E+02  0.00000E+00  9.000E+00
      25     1     1     2     0     0 -2.013966394E+02  1.188547581E+02  6.037805801E+01  2.719514107E+02  1.250000000E+02  0.00000E+00  9.000E+00
      21     1     1     2   511   501 -7.461640147E+00 -3.845888937E+01 -1.761892619E+02  1.804921556E+02  1.907348633E-06  0.00000E+00  9.000E+00
#rwgt            1           1   2.8796692390399451E-002           9      170532           0
</event>
<event>
      5   9999  3.19816E-02  9.03995E+01 -1.00000E+00  1.25832E-01
      21    -1     0     0   502   512  0.000000000E+00  0.000000000E+00  7.808469248E+02  7.808469248E+02  0.000000000E+00  0.00000E+00  9.000E+00
      21    -1     0     0   501   502  0.000000000E+00  0.000000000E+00 -6.753615533E+02  6.753615533E+02  0.000000000E+00  0.00000E+00  9.000E+00
      25     1     1     2     0     0  1.181759609E+02  2.235228958E+02 -5.156276739E+02  5.877286285E+02  1.250000000E+02  0.00000E+00  9.000E+00
      25     1     1     2     0     0 -1.922218726E+02 -2.753810855E+02  1.494937549E+02  3.882748682E+02  1.250000000E+02  0.00000E+00  9.000E+00
      21     1     1     2   501   512  7.404591167E+01  5.185818973E+01  4.716192905E+02  4.802049813E+02  0.000000000E+00  0.00000E+00  9.000E+00
#rwgt            1           1   2.1966498614211995E-002           9      170692           0
</event>
<event>
      5   9999  3.19816E-02  6.86988E+00 -1.00000E+00  2.16712E-01
      21    -1     0     0   502   501  0.000000000E+00  0.000000000E+00  7.936649774E+01  7.936649774E+01  0.000000000E+00  0.00000E+00  9.000E+00
      21    -1     0     0   501   511  0.000000000E+00  0.000000000E+00 -1.009946258E+03  1.009946258E+03  0.000000000E+00  0.00000E+00  9.000E+00
      25     1     1     2     0     0 -9.749121872E+01 -1.136942904E+02 -7.464726105E+01  2.088735095E+02  1.250000000E+02  0.00000E+00  9.000E+00
      25     1     1     2     0     0  9.532520284E+01  1.202137665E+02 -8.012590069E+02  8.253358347E+02  1.250000000E+02  0.00000E+00  9.000E+00
      21     1     1     2   502   511  2.166015882E+00 -6.519476028E+00 -5.467349229E+01  5.510341143E+01  9.536743164E-07  0.00000E+00  9.000E+00
#rwgt            1           1   2.8452926575226408E-002           9      170762           0
</event>
<event>
      5   9999  3.19816E-02  7.11213E+01 -1.00000E+00  1.30872E-01
       1    -1     0     0   502     0  0.000000000E+00  0.000000000E+00  1.716092611E+03  1.716092611E+03  0.000000000E+00  0.00000E+00  9.000E+00
      21    -1     0     0   501   502  0.000000000E+00  0.000000000E+00 -7.350165164E+01  7.350165164E+01  0.000000000E+00  0.00000E+00  9.000E+00
      25     1     1     2     0     0 -1.807123127E+02  6.270849445E+01  4.551324764E+02  5.092738618E+02  1.250000000E+02  0.00000E+00  9.000E+00
      25     1     1     2     0     0  2.258343547E+02 -1.176833606E+02  4.040609914E+02  4.937011382E+02  1.250000000E+02  0.00000E+00  9.000E+00
       1     1     1     2   501     0 -4.512204203E+01  5.497486610E+01  7.833974918E+02  7.866192629E+02  0.000000000E+00  0.00000E+00  9.000E+00
#rwgt            1           1   3.0252343920014118E-002           9      171050           0
</event>
<event>
      5   9999  3.19816E-02  1.45136E+01 -1.00000E+00  1.78743E-01
      21    -1     0     0   502   511  0.000000000E+00  0.000000000E+00  9.891060996E+02  9.891060996E+02  0.000000000E+00  0.00000E+00  9.000E+00
      21    -1     0     0   501   502  0.000000000E+00  0.000000000E+00 -6.363546974E+01  6.363546974E+01  0.000000000E+00  0.00000E+00  9.000E+00
      25     1     1     2     0     0  1.209691990E+02 -5.006920418E+01  1.335608286E+02  2.249532557E+02  1.250000000E+02  0.00000E+00  9.000E+00
      25     1     1     2     0     0 -1.278025178E+02  6.287347863E+01  4.875655406E+02  5.230981879E+02  1.250000000E+02  0.00000E+00  9.000E+00
      21     1     1     2   501   511  6.833318817E+00 -1.280427444E+01  3.043442606E+02  3.046901256E+02  0.000000000E+00  0.00000E+00  9.000E+00
#rwgt            1           1   2.9772570208714492E-002           9      171103           0
</event>
<event>
      5   9999  3.19816E-02  1.56953E+02 -1.00000E+00  1.15619E-01
      21    -1     0     0   502   501  0.000000000E+00  0.000000000E+00  4.411844410E+02  4.411844410E+02  0.000000000E+00  0.00000E+00  9.000E+00
      21    -1     0     0   501   512  0.000000000E+00  0.000000000E+00 -4.081320430E+02  4.081320430E+02  0.000000000E+00  0.00000E+00  9.000E+00
      25     1     1     2     0     0  2.251405947E+00 -2.547371798E+02 -7.197675794E+01  2.927486179E+02  1.250000000E+02  0.00000E+00  9.000E+00
      25     1     1     2     0     0 -5.962947931E+01  1.086481204E+02  2.741766173E+02  3.258188244E+02  1.250000000E+02  0.00000E+00  9.000E+00
      21     1     1     2   502   512  5.737807336E+01  1.460890594E+02 -1.691474613E+02  2.307490417E+02  0.000000000E+00  0.00000E+00  9.000E+00
#rwgt            1           1   2.7625652557340247E-002           9      171279           0
</event>
<event>
      5   9999  3.19816E-02  1.63666E+02 -1.00000E+00  1.14912E-01
      21    -1     0     0   502   501  0.000000000E+00  0.000000000E+00  8.201511790E+02  8.201511790E+02  0.000000000E+00  0.00000E+00  9.000E+00
      21    -1     0     0   511   502  0.000000000E+00  0.000000000E+00 -2.282913793E+03  2.282913793E+03  0.000000000E+00  0.00000E+00  9.000E+00
      25     1     1     2     0     0  3.108956448E+02 -5.030621575E+02 -1.929957029E+03  2.022396294E+03  1.250000000E+02  0.00000E+00  9.000E+00
      25     1     1     2     0     0 -2.033042271E+02  6.263939599E+02  5.762779186E+02  8.839814711E+02  1.250000000E+02  0.00000E+00  9.000E+00
      21     1     1     2   511   501 -1.075914177E+02 -1.233318024E+02 -1.090835040E+02  1.966872072E+02  2.697398305E-06  0.00000E+00  9.000E+00
#rwgt            1           1   4.4029451781117820E-002           9      171316           0
</event>
<event>
      5   9999  3.19816E-02  6.79675E+01 -1.00000E+00  1.31872E-01
      21    -1     0     0   502   501  0.000000000E+00  0.000000000E+00  2.483799416E+02  2.483799416E+02  0.000000000E+00  0.00000E+00  9.000E+00
      21    -1     0     0   512   502  0.000000000E+00  0.000000000E+00 -1.750138339E+03  1.750138339E+03  0.000000000E+00  0.00000E+00  9.000E+00
      25     1     1     2     0     0  1.911955597E+02  3.131639188E+02 -1.450110232E+03  1.501023673E+03  1.250000000E+02  0.00000E+00  9.000E+00
      25     1     1     2     0     0 -1.611710038E+02 -2.521876016E+02  9.321940617E+01  3.374752384E+02  1.250000000E+02  0.00000E+00  9.000E+00
      21     1     1     2   512   501 -3.002455587E+01 -6.097631717E+01 -1.448675716E+02  1.600193692E+02  0.000000000E+00  0.00000E+00  9.000E+00
#rwgt            1           1   2.7950728871126672E-002           9      171422           0
</event>
<event>
      5   9999  3.19816E-02  1.24408E+02 -1.00000E+00  1.19707E-01
      21    -1     0     0   502   501  0.000000000E+00  0.000000000E+00  1.223889514E+03  1.223889514E+03  0.000000000E+00  0.00000E+00  9.000E+00
      21    -1     0     0   511   502  0.000000000E+00  0.000000000E+00 -2.762331405E+03  2.762331405E+03  0.000000000E+00  0.00000E+00  9.000E+00
      25     1     1     2     0     0 -1.360465869E+03 -9.361479203E+02 -1.063357869E+03  1.968145134E+03  1.250000000E+02  0.00000E+00  9.000E+00
      25     1     1     2     0     0  1.265887521E+03  1.016970309E+03 -1.099200889E+02  1.632301214E+03  1.250000000E+02  0.00000E+00  9.000E+00
      21     1     1     2   511   501  9.457834755E+01 -8.082238855E+01 -3.651639327E+02  3.857745716E+02  0.000000000E+00  0.00000E+00  9.000E+00
#rwgt            2          11   7.1951090164592887E-003           9      171530           0
</event>
<event>
      5   9999  3.19816E-02  6.44476E+02 -1.00000E+00  9.58180E-02
      21    -1     0     0   502   501  0.000000000E+00  0.000000000E+00  1.693730505E+03  1.693730505E+03  0.000000000E+00  0.00000E+00  9.000E+00
      21    -1     0     0   512   502  0.000000000E+00  0.000000000E+00 -3.401946770E+02  3.401946770E+02  0.000000000E+00  0.00000E+00  9.000E+00
      25     1     1     2     0     0 -2.929036316E+02 -1.950108330E+02  6.055959943E+02  7.114726071E+02  1.250000000E+02  0.00000E+00  9.000E+00
      25     1     1     2     0     0  9.368657519E+01 -4.179012986E+02  3.084784509E+02  5.424044841E+02  1.250000000E+02  0.00000E+00  9.000E+00
      21     1     1     2   512   501  1.992170564E+02  6.129121317E+02  4.394613824E+02  7.800480904E+02  9.344061824E-06  0.00000E+00  9.000E+00
#rwgt            2          11   2.1009390714683113E-003           9      171715           0
</event>
<event>
      5   9999  3.19816E-02  3.40310E+01 -1.00000E+00  1.49332E-01
      21    -1     0     0   502   501  0.000000000E+00  0.000000000E+00  9.394029619E+02  9.394029619E+02  0.000000000E+00  0.00000E+00  9.000E+00
       2    -1     0     0   501     0  0.000000000E+00  0.000000000E+00 -1.097041856E+02  1.097041856E+02  0.000000000E+00  0.00000E+00  9.000E+00
      25     1     1     2     0     0 -1.241476023E+02 -1.484396857E+02  4.095296816E+02  4.698792691E+02  1.250000000E+02  0.00000E+00  9.000E+00
      25     1     1     2     0     0  1.136574686E+02  1.160658329E+02  4.735013727E+02  5.159630294E+02  1.250000000E+02  0.00000E+00  9.000E+00
       2     1     1     2   502     0  1.049013368E+01  3.237385273E+01 -5.333227797E+01  6.326484899E+01  2.336015456E-06  0.00000E+00  9.000E+00
#rwgt            1           1   3.0818357214268583E-002           9      171735           0
</event>
<event>
      5   9999  3.19816E-02  3.15886E+01 -1.00000E+00  1.51500E-01
      21    -1     0     0   502   501  0.000000000E+00  0.000000000E+00  7.844407496E+02  7.844407496E+02  0.000000000E+00  0.00000E+00  9.000E+00
       3    -1     0     0   501     0  0.000000000E+00  0.000000000E+00 -1.025385923E+02  1.025385923E+02  0.000000000E+00  0.00000E+00  9.000E+00
      25     1     1     2     0     0 -2.270548834E+01 -4.145428002E+01 -2.255712783E+01  1.355279327E+02  1.250000000E+02  0.00000E+00  9.000E+00
      25     1     1     2     0     0 -7.886908024E+00  4.932474212E+01  7.070565014E+02  7.197562293E+02  1.250000000E+02  0.00000E+00  9.000E+00
       3     1     1     2   502     0  3.059239637E+01 -7.870462104E+00 -2.597216278E+00  3.169517978E+01  7.884953353E-07  0.00000E+00  9.000E+00
#rwgt            1           1   2.6780425205536872E-002           9      171871           0
</event>
<event>
      5   9999  3.19816E-02  4.41299E+01 -1.00000E+00  1.42242E-01
      21    -1     0     0   502   501  0.000000000E+00  0.000000000E+00  1.058718038E+03  1.058718038E+03  0.000000000E+00  0.00000E+00  9.000E+00
      21    -1     0     0   511   502  0.000000000E+00  0.000000000E+00 -1.512932274E+02  1.512932274E+02  0.000000000E+00  0.00000E+00  9.000E+00
      25     1     1     2     0     0  7.569805768E+01 -4.283575684E+01  9.136350122E+02  9.262391880E+02  1.250000000E+02  0.00000E+00  9.000E+00
      25     1     1     2     0     0 -4.501663450E+01  1.111668308E+01  1.013754019E+02  1.674874626E+02  1.250000000E+02  0.00000E+00  9.000E+00
      21     1     1     2   511   501 -3.068142318E+01  3.171907376E+01 -1.075856039E+02  1.162846144E+02  1.907348633E-06  0.00000E+00  9.000E+00
#rwgt            1           1   2.5358095672935010E-002           9      171982           0
</event>
<event>
      5   9999  3.19816E-02  9.91371E+00 -1.00000E+00  1.96193E-01
      21    -1     0     0   512   501  0.000000000E+00  0.000000000E+00  1.435153322E+02  1.435153322E+02  0.000000000E+00  0.00000E+00  9.000E+00
      21    -1     0     0   501   502  0.000000000E+00  0.000000000E+00 -1.187482587E+03  1.187482587E+03  0.000000000E+00  0.00000E+00  9.000E+00
      25     1     1     2     0     0 -1.333628190E+02 -3.826717558E+01 -5.464808143E+02  5.775087001E+02  1.250000000E+02  0.00000E+00  9.000E+00
      25     1     1     2     0     0  1.236906572E+02  4.044225421E+01 -6.122558706E+02  6.382924140E+02  1.250000000E+02  0.00000E+00  9.000E+00
      21     1     1     2   512   502  9.672161748E+00 -2.175078629E+00  1.147694304E+02  1.151968048E+02  2.697398305E-06  0.00000E+00  9.000E+00
#rwgt            1           1   3.1021041628190207E-002           9      172079           0
</event>
<event>
      5   9999  3.19816E-02  5.78309E+01 -1.00000E+00  1.35564E-01
      21    -1     0     0   502   511  0.000000000E+00  0.000000000E+00  5.661632732E+02  5.661632732E+02  0.000000000E+00  0.00000E+00  9.000E+00
      21    -1     0     0   501   502  0.000000000E+00  0.000000000E+00 -2.568909422E+02  2.568909422E+02  0.000000000E+00  0.00000E+00  9.000E+00
      25     1     1     2     0     0 -1.126665897E+01  1.363155405E+02 -1.787375996E+02  2.574509540E+02  1.250000000E+02  0.00000E+00  9.000E+00
      25     1     1     2     0     0 -2.973562612E+01 -1.770981423E+02  4.360199313E+02  4.878384363E+02  1.250000000E+02  0.00000E+00  9.000E+00
      21     1     1     2   501   511  4.100228509E+01  4.078260184E+01  5.198999927E+01  7.776482508E+01  1.507891493E-06  0.00000E+00  9.000E+00
#rwgt            1           1   2.9447897445134517E-002           9      172293           0
</event>
<event>
      5   9999  3.19816E-02  6.00115E+01 -1.00000E+00  1.34699E-01
      21    -1     0     0   502   501  0.000000000E+00  0.000000000E+00  2.641481995E+02  2.641481995E+02  0.000000000E+00  0.00000E+00  9.000E+00
       2    -1     0     0   501     0  0.000000000E+00  0.000000000E+00 -8.709857078E+02  8.709857078E+02  0.000000000E+00  0.00000E+00  9.000E+00
      25     1     1     2     0     0  5.973296834E+01 -9.188274475E+01  1.903943970E+02  2.527557966E+02  1.250000000E+02  0.00000E+00  9.000E+00
      25     1     1     2     0     0 -1.090759402E+02  1.260389538E+02 -2.236274666E+02  3.056429656E+02  1.250000000E+02  0.00000E+00  9.000E+00
       2     1     1     2   502     0  4.934297188E+01 -3.415620900E+01 -5.736044388E+02  5.767351452E+02  0.000000000E+00  0.00000E+00  9.000E+00
#rwgt            1           1   2.6943015381230367E-002           9      172407           0
</event>
<event>
      5   9999  3.19816E-02  5.33248E+01 -1.00000E+00  1.37499E-01
      21    -1     0     0   502   511  0.000000000E+00  0.000000000E+00  1.453932096E+02  1.453932096E+02  0.000000000E+00  0.00000E+00  9.000E+00
      21    -1     0     0   501   502  0.000000000E+00  0.000000000E+00 -6.575376299E+02  6.575376299E+02  0.000000000E+00  0.00000E+00  9.000E+00
      25     1     1     2     0     0  6.699057858E+01  1.417383425E+02 -2.714002310E+01  2.023340708E+02  1.250000000E+02  0.00000E+00  9.000E+00
      25     1     1     2     0     0 -2.306977837E+01 -1.719790224E+02 -5.011578030E+02  5.448790163E+02  1.250000000E+02  0.00000E+00  9.000E+00
      21     1     1     2   501   511 -4.392080022E+01  3.024067997E+01  1.615340590E+01  5.571775246E+01  4.768371582E-07  0.00000E+00  9.000E+00
#rwgt            1           1   1.3116825147833616E-002           9      172533           0
</event>
<event>
      5   9999  3.19816E-02  9.28303E+01 -1.00000E+00  1.25299E-01
      21    -1     0     0   502   501  0.000000000E+00  0.000000000E+00  4.214753315E+02  4.214753315E+02  0.000000000E+00  0.00000E+00  9.000E+00
      21    -1     0     0   501   512  0.000000000E+00  0.000000000E+00 -5.234293424E+02  5.234293424E+02  0.000000000E+00  0.00000E+00  9.000E+00
      25     1     1     2     0     0  1.508145099E+02 -3.098387024E+02 -1.954139402E+02  4.153993812E+02  1.250000000E+02  0.00000E+00  9.000E+00
      25     1     1     2     0     0 -2.357449970E+02  2.723649741E+02  1.618317628E+02  4.142135949E+02  1.250000000E+02  0.00000E+00  9.000E+00
      21     1     1     2   502   512  8.493048711E+01  3.747372829E+01 -6.837183357E+01  1.152916978E+02  1.651812370E-06  0.00000E+00  9.000E+00
#rwgt            1           1   2.8555929175707626E-002           9      172613           0
</event>
<event>
      5   9999  3.19816E-02  4.62693E+01 -1.00000E+00  1.41025E-01
      21    -1     0     0   502   501  0.000000000E+00  0.000000000E+00  3.473635102E+02  3.473635102E+02  0.000000000E+00  0.00000E+00  9.000E+00
      21    -1     0     0   501   511  0.000000000E+00  0.000000000E+00 -3.015137241E+02  3.015137241E+02  0.000000000E+00  0.00000E+00  9.000E+00
      25     1     1     2     0     0  7.161286834E+01  2.111030612E+02 -1.484084395E+02  2.955384413E+02  1.250000000E+02  0.00000E+00  9.000E+00
      25     1     1     2     0     0 -6.744524383E+01 -1.650218277E+02  2.118985924E+02  3.038207991E+02  1.250000000E+02  0.00000E+00  9.000E+00
      21     1     1     2   502   511 -4.167624512E+00 -4.608123355E+01 -1.764036688E+01  4.951799393E+01  6.743495762E-07  0.00000E+00  9.000E+00
#rwgt            1           1   2.5700193333289319E-002           9      172679           0
</event>
<event>
      5   9999  3.19816E-02  7.71344E+00 -1.00000E+00  2.09764E-01
      21    -1     0     0   502   501  0.000000000E+00  0.000000000E+00  3.433034910E+01  3.433034910E+01  0.000000000E+00  0.00000E+00  9.000E+00
      21    -1     0     0   512   502  0.000000000E+00  0.000000000E+00 -1.636843282E+03  1.636843282E+03  0.000000000E+00  0.00000E+00  9.000E+00
      25     1     1     2     0     0  1.647416110E+02 -1.002189986E+02 -8.025598233E+02  8.348119046E+02  1.250000000E+02  0.00000E+00  9.000E+00
      25     1     1     2     0     0 -1.723083523E+02  1.017162031E+02 -7.643515471E+02  7.999341484E+02  1.250000000E+02  0.00000E+00  9.000E+00
      21     1     1     2   512   501  7.566741247E+00 -1.497204528E+00 -3.560156284E+01  3.642757845E+01  0.000000000E+00  0.00000E+00  9.000E+00
#rwgt            1           1   2.8090121750689180E-002           9      172758           0
</event>
<event>
      5   9999  3.19816E-02  1.48921E+02 -1.00000E+00  1.16518E-01
      21    -1     0     0   502   501  0.000000000E+00  0.000000000E+00  1.010807716E+03  1.010807716E+03  0.000000000E+00  0.00000E+00  9.000E+00
       2    -1     0     0   501     0  0.000000000E+00  0.000000000E+00 -1.306318101E+03  1.306318101E+03  0.000000000E+00  0.00000E+00  9.000E+00
      25     1     1     2     0     0 -2.632520475E+01  6.721885499E+02  6.564913512E+02  9.482280091E+02  1.250000000E+02  0.00000E+00  9.000E+00
      25     1     1     2     0     0 -8.895013367E+01 -7.664696799E+02 -5.958928999E+02  9.829044942E+02  1.250000000E+02  0.00000E+00  9.000E+00
       2     1     1     2   502     0  1.152753384E+02  9.428113004E+01 -3.561088367E+02  3.859933143E+02  6.607249480E-06  0.00000E+00  9.000E+00
#rwgt            2          13   9.1397045707417740E-004           9      172952           0
</event>
<event>
      5   9999  3.19816E-02  2.45304E+02 -1.00000E+00  1.08512E-01
      21    -1     0     0   502   501  0.000000000E+00  0.000000000E+00  1.293413060E+02  1.293413060E+02  0.000000000E+00  0.00000E+00  9.000E+00
       2    -1     0     0   501     0  0.000000000E+00  0.000000000E+00 -1.733196521E+03  1.733196521E+03  0.000000000E+00  0.00000E+00  9.000E+00
      25     1     1     2     0     0 -1.779286308E+02  1.822654360E+02 -4.915482128E+02  5.675596289E+02  1.250000000E+02  0.00000E+00  9.000E+00
      25     1     1     2     0     0 -6.723542085E+01 -1.739849256E+02 -8.710857854E+01  2.408407370E+02  1.250000000E+02  0.00000E+00  9.000E+00
       2     1     1     2   502     0  2.451640517E+02 -8.280510346E+00 -1.025198424E+03  1.054137461E+03  0.000000000E+00  0.00000E+00  9.000E+00
#rwgt            2          13   1.5541203399544266E-003           9      173211           0
</event>
<event>
      5   9999  3.19816E-02  2.36717E+01 -1.00000E+00  1.60548E-01
      21    -1     0     0   511   501  0.000000000E+00  0.000000000E+00  5.429367906E+02  5.429367906E+02  0.000000000E+00  0.00000E+00  9.000E+00
      21    -1     0     0   501   502  0.000000000E+00  0.000000000E+00 -5.454536324E+02  5.454536324E+02  0.000000000E+00  0.00000E+00  9.000E+00
      25     1     1     2     0     0  3.806308202E+02 -2.167923140E+02  2.423615404E+02  5.159872527E+02  1.250000000E+02  0.00000E+00  9.000E+00
      25     1     1     2     0     0 -4.033345759E+02  2.100924188E+02 -2.653046097E+02  5.411368962E+02  1.250000000E+02  0.00000E+00  9.000E+00
      21     1     1     2   511   502  2.270375573E+01  6.699895264E+00  2.042622745E+01  3.126627398E+01  4.129530925E-07  0.00000E+00  9.000E+00
#rwgt            1           1   3.0599196957464738E-002           9      173230           0
</event>
<event>
      5   9999  3.30636E-02  6.94875E+01 -1.00000E+00  1.31383E-01
      21    -1     0     0   512   501  0.000000000E+00  0.000000000E+00  2.568793953E+03  2.568793953E+03  0.000000000E+00  0.00000E+00  9.000E+00
      21    -1     0     0   501   502  0.000000000E+00  0.000000000E+00 -5.060155014E+01  5.060155014E+01  0.000000000E+00  0.00000E+00  9.000E+00
      25     1     1     2     0     0  4.566353098E+01 -2.518020964E+02  8.526746444E+02  8.989819259E+02  1.250000000E+02  0.00000E+00  9.000E+00
      25     1     1     2     0     0 -6.018793939E+01  3.197547034E+02  1.195102464E+03  1.244893794E+03  1.250000000E+02  0.00000E+00  9.000E+00
      21     1     1     2   512   502  1.452440841E+01 -6.795260698E+01  4.704152942E+02  4.755197833E+02  0.000000000E+00  0.00000E+00  9.000E+00
#rwgt            1           1   9.7470918012545690E-002           9      173370           0
</event>
<event>
      5   9999  3.19816E-02  7.79388E+01 -1.00000E+00  1.28901E-01
      21    -1     0     0   502   501  0.000000000E+00  0.000000000E+00  1.627635738E+03  1.627635738E+03  0.000000000E+00  0.00000E+00  9.000E+00
      21    -1     0     0   511   502  0.000000000E+00  0.000000000E+00 -1.193255191E+03  1.193255191E+03  0.000000000E+00  0.00000E+00  9.000E+00
      25     1     1     2     0     0  3.400445363E+02 -1.154311842E+03 -4.073738792E+02  1.276575338E+03  1.250000000E+02  0.00000E+00  9.000E+00
      25     1     1     2     0     0 -2.806730795E+02  1.103819465E+03  8.915864106E+02  1.451807878E+03  1.250000000E+02  0.00000E+00  9.000E+00
      21     1     1     2   511   501 -5.937145683E+01  5.049237774E+01 -4.983198432E+01  9.250771188E+01  9.536743164E-07  0.00000E+00  9.000E+00
#rwgt            1           1   6.6899409860551567E-002           9      173457           0
</event>
<event>
      5   9999  3.19816E-02  1.87844E+02 -1.00000E+00  1.12648E-01
      21    -1     0     0   512   501  0.000000000E+00  0.000000000E+00  6.174102730E+02  6.174102730E+02  0.000000000E+00  0.00000E+00  9.000E+00
      21    -1     0     0   501   502  0.000000000E+00  0.000000000E+00 -6.119553916E+02  6.119553916E+02  0.000000000E+00  0.00000E+00  9.000E+00
      25     1     1     2     0     0 -5.540562042E+02 -1.696801885E+02 -8.219686541E+01  5.984571567E+02  1.250000000E+02  0.00000E+00  9.000E+00
      25     1     1     2     0     0  3.682513847E+02  1.972864938E+02  4.588153642E+01  4.384759496E+02  1.250000000E+02  0.00000E+00  9.000E+00
      21     1     1     2   512   502  1.858048195E+02 -2.760630531E+01  4.177021033E+01  1.924325583E+02  2.286830675E-06  0.00000E+00  9.000E+00
#rwgt            2          11   4.7115055801576541E-003           9      173658           0
</event>
<event>
      5   9999  3.19816E-02  5.69699E+01 -1.00000E+00  1.35917E-01
      21    -1     0     0   502   501  0.000000000E+00  0.000000000E+00  3.229419196E+02  3.229419196E+02  0.000000000E+00  0.00000E+00  9.000E+00
      21    -1     0     0   501   511  0.000000000E+00  0.000000000E+00 -7.126095239E+02  7.126095239E+02  0.000000000E+00  0.00000E+00  9.000E+00
      25     1     1     2     0     0 -3.497600315E+02 -2.193974601E+02 -1.612195225E+02  4.605258512E+02  1.250000000E+02  0.00000E+00  9.000E+00
      25     1     1     2     0     0  3.605176693E+02  2.753424232E+02 -1.989848073E+02  5.108878482E+02  1.250000000E+02  0.00000E+00  9.000E+00
      21     1     1     2   502   511 -1.075763775E+01 -5.594496309E+01 -2.946327448E+01  6.413774402E+01  9.536743164E-07  0.00000E+00  9.000E+00
#rwgt            1           1   3.1312740101677082E-002           9      173678           0
</event>
<event>
      5   9999  3.19816E-02  1.02005E+02 -1.00000E+00  1.23441E-01
      21    -1     0     0   512   501  0.000000000E+00  0.000000000E+00  1.817701664E+03  1.817701664E+03  0.000000000E+00  0.00000E+00  9.000E+00
      21    -1     0     0   501   502  0.000000000E+00  0.000000000E+00 -5.609587383E+01  5.609587383E+01  0.000000000E+00  0.00000E+00  9.000E+00
      25     1     1     2     0     0  2.990059844E+00  2.997663875E+01  1.104288348E+03  1.111748756E+03  1.250000000E+02  0.00000E+00  9.000E+00
      25     1     1     2     0     0  5.318739368E+01 -1.151180810E+02  1.190322557E+02  2.141839147E+02  1.250000000E+02  0.00000E+00  9.000E+00
      21     1     1     2   512   502 -5.617745352E+01  8.514144224E+01  5.382851866E+02  5.478648680E+02  7.629394531E-06  0.00000E+00  9.000E+00
#rwgt            1           1   3.1224178523810112E-002           9      173730           0
</event>
<event>
      5   9999  3.23281E-02  9.16841E+01 -1.00000E+00  1.25548E-01
      21    -1     0     0   502   501  0.000000000E+00  0.000000000E+00  8.342732039E+02  8.342732039E+02  0.000000000E+00  0.00000E+00  9.000E+00
      21    -1     0     0   501   511  0.000000000E+00  0.000000000E+00 -9.777744051E+02  9.777744051E+02  0.000000000E+00  0.00000E+00  9.000E+00
      25     1     1     2     0     0  3.199614409E+02 -5.267955617E+01  2.085758343E+02  4.053138758E+02  1.250000000E+02  0.00000E+00  9.000E+00
      25     1     1     2     0     0 -3.880743059E+02  1.140522384E+02  4.392800594E+02  6.100832325E+02  1.250000000E+02  0.00000E+00  9.000E+00
      21     1     1     2   502   511  6.811286506E+01 -6.137268219E+01 -7.913570950E+02  7.966505007E+02  0.000000000E+00  0.00000E+00  9.000E+00
#rwgt            1           1   2.9515996220818373E-002           9      173784           0
</event>
<event>
      5   9999  3.19816E-02  3.24450E+01 -1.00000E+00  1.50713E-01
      21    -1     0     0   502   501  0.000000000E+00  0.000000000E+00  1.534141021E+02  1.534141021E+02  0.000000000E+00  0.00000E+00  9.000E+00
      21    -1     0     0   512   502  0.000000000E+00  0.000000000E+00 -1.707263698E+03  1.707263698E+03  0.000000000E+00  0.00000E+00  9.000E+00
      25     1     1     2     0     0 -2.065928591E+02  2.560080188E+02 -1.180925819E+03  1.232246528E+03  1.250000000E+02  0.00000E+00  9.000E+00
      25     1     1     2     0     0  2.323968017E+02 -2.363398998E+02 -1.208709607E+02  3.742988255E+02  1.250000000E+02  0.00000E+00  9.000E+00
      21     1     1     2   512   501 -2.580394258E+01 -1.966811905E+01 -2.520528162E+02  2.541324468E+02  2.697398305E-06  0.00000E+00  9.000E+00
#rwgt            1           1   2.5002787188295048E-002           9      173877           0
</event>
<event>
      5   9999  3.19816E-02  6.03340E+02 -1.00000E+00  9.65881E-02
      21    -1     0     0   502   501  0.000000000E+00  0.000000000E+00  4.358897414E+02  4.358897414E+02  0.000000000E+00  0.00000E+00  9.000E+00
       2    -1     0     0   501     0  0.000000000E+00  0.000000000E+00 -3.886845544E+03  3.886845544E+03  0.000000000E+00  0.00000E+00  9.000E+00
      25     1     1     2     0     0  9.984455256E+01 -1.631140723E+02  4.803346553E+01  2.334680901E+02  1.250000000E+02  0.00000E+00  9.000E+00
      25     1     1     2     0     0 -6.425626232E+02 -1.004683829E+02 -1.404974341E+02  6.770119273E+02  1.250000000E+02  0.00000E+00  9.000E+00
       2     1     1     2   502     0  5.427180707E+02  2.635824552E+02 -3.358491834E+03  3.412255268E+03  0.000000000E+00  0.00000E+00  9.000E+00
#rwgt            2          13   6.0434443741122909E-003           9      174114           0
</event>
<event>
      5   9999  3.19816E-02  4.90051E+02 -1.00000E+00  9.91006E-02
      -3    -1     0     0     0   501  0.000000000E+00  0.000000000E+00  1.771839569E+02  1.771839569E+02  0.000000000E+00  0.00000E+00  9.000E+00
      21    -1     0     0   501   502  0.000000000E+00  0.000000000E+00 -2.113819371E+03  2.113819371E+03  0.000000000E+00  0.00000E+00  9.000E+00
      25     1     1     2     0     0 -1.353684058E+02  1.820466832E+02 -2.811139675E+02  3.822507853E+02  1.250000000E+02  0.00000E+00  9.000E+00
      25     1     1     2     0     0  1.023515984E+02  3.068911573E+02 -1.164421394E+03  1.214973339E+03  1.250000000E+02  0.00000E+00  9.000E+00
      -3     1     1     2     0   502  3.301680738E+01 -4.889378405E+02 -4.911000522E+02  6.937792031E+02  1.525878906E-05  0.00000E+00  9.000E+00
#rwgt            2           3   4.5551296852418560E-005           9      174343           0
</event>
<event>
      5   9999  3.19816E-02  8.23950E+01 -1.00000E+00  1.27732E-01
      21    -1     0     0   502   501  0.000000000E+00  0.000000000E+00  1.600493765E+03  1.600493765E+03  0.000000000E+00  0.00000E+00  9.000E+00
      21    -1     0     0   501   511  0.000000000E+00  0.000000000E+00 -1.235342984E+03  1.235342984E+03  0.000000000E+00  0.00000E+00  9.000E+00
      25     1     1     2     0     0 -8.445796404E+02  6.980151355E+02 -4.881452600E+02  1.206006092E+03  1.250000000E+02  0.00000E+00  9.000E+00
      25     1     1     2     0     0  7.738743481E+02 -6.557102499E+02  1.019981709E+03  1.443892352E+03  1.250000000E+02  0.00000E+00  9.000E+00
      21     1     1     2   502   511  7.070529233E+01 -4.230488563E+01 -1.666856672E+02  1.859383053E+02  1.907348633E-06  0.00000E+00  9.000E+00
#rwgt            1           1   5.7476905337839522E-002           9      174377           0
</event>
<event>
      5   9999  3.19816E-02  1.35812E+01 -1.00000E+00  1.81548E-01
      21    -1     0     0   502   501  0.000000000E+00  0.000000000E+00  9.507712915E+02  9.507712915E+02  0.000000000E+00  0.00000E+00  9.000E+00
      21    -1     0     0   501   512  0.000000000E+00  0.000000000E+00 -5.777187287E+02  5.777187287E+02  0.000000000E+00  0.00000E+00  9.000E+00
      25     1     1     2     0     0  1.505119638E+02 -1.573031568E+02  8.806968923E+02  9.157784396E+02  1.250000000E+02  0.00000E+00  9.000E+00
      25     1     1     2     0     0 -1.376841570E+02  1.617636413E+02 -2.376772135E+02  3.424030673E+02  1.250000000E+02  0.00000E+00  9.000E+00
      21     1     1     2   502   512 -1.282780680E+01 -4.460484533E+00 -2.699671160E+02  2.703085132E+02  6.607249480E-06  0.00000E+00  9.000E+00
#rwgt            1           1   2.9276239702292491E-002           9      174565           0
</event>
<event>
      5   9999  3.19816E-02  9.43968E+01 -1.00000E+00  1.24965E-01
      21    -1     0     0   511   501  0.000000000E+00  0.000000000E+00  2.062348850E+02  2.062348850E+02  0.000000000E+00  0.00000E+00  9.000E+00
      21    -1     0     0   501   502  0.000000000E+00  0.000000000E+00 -8.653944502E+02  8.653944502E+02  0.000000000E+00  0.00000E+00  9.000E+00
      25     1     1     2     0     0 -1.567266325E+02  2.255061733E+02 -2.550202199E+02  3.950652909E+02  1.250000000E+02  0.00000E+00  9.000E+00
      25     1     1     2     0     0  1.987691679E+02 -3.100235645E+02 -4.289057898E+02  5.789723388E+02  1.250000000E+02  0.00000E+00  9.000E+00
      21     1     1     2   511   502 -4.204253541E+01  8.451739113E+01  2.476644454E+01  9.759170540E+01  1.168007728E-06  0.00000E+00  9.000E+00
#rwgt            1           1   2.3436187926225507E-002           9      174810           0
</event>
<event>
      5   9999  3.19816E-02  2.66938E+02 -1.00000E+00  1.07266E-01
      21    -1     0     0   502   501  0.000000000E+00  0.000000000E+00  1.264115028E+02  1.264115028E+02  0.000000000E+00  0.00000E+00  9.000E+00
      21    -1     0     0   501   512  0.000000000E+00  0.000000000E+00 -1.128657349E+03  1.128657349E+03  0.000000000E+00  0.00000E+00  9.000E+00
      25     1     1     2     0     0 -9.825393885E+01 -8.304748014E+01 -3.677869968E+02  4.091979905E+02  1.250000000E+02  0.00000E+00  9.000E+00
      25     1     1     2     0     0 -1.374750698E+02  2.082974302E+02 -2.321118178E+02  3.630263216E+02  1.250000000E+02  0.00000E+00  9.000E+00
      21     1     1     2   502   512  2.357290086E+02 -1.252499500E+02 -4.023470316E+02  4.828445395E+02  1.078959322E-05  0.00000E+00  9.000E+00
#rwgt            1           1   2.0284274923016137E-002           9      174883           0
</event>
<event>
      5   9999  3.19816E-02  1.51558E+02 -1.00000E+00  1.16216E-01
      21    -1     0     0   502   501  0.000000000E+00  0.000000000E+00  5.044278675E+02  5.044278675E+02  0.000000000E+00  0.00000E+00  9.000E+00
      21    -1     0     0   511   502  0.000000000E+00  0.000000000E+00 -5.996085311E+02  5.996085311E+02  0.000000000E+00  0.00000E+00  9.000E+00
      25     1     1     2     0     0 -4.961066610E+01  1.283493202E+01 -6.838529226E+01  1.514183010E+02  1.250000000E+02  0.00000E+00  9.000E+00
      25     1     1     2     0     0  1.875713984E+02  4.990803538E+01  4.208490076E+02  4.800132589E+02  1.250000000E+02  0.00000E+00  9.000E+00
      21     1     1     2   511   501 -1.379607323E+02 -6.274296741E+01 -4.476443790E+02  4.726048388E+02  0.000000000E+00  0.00000E+00  9.000E+00
#rwgt            1           1   2.5706075275786052E-002           9      174928           0
</event>
<event>
      5   9999  3.19816E-02  1.87299E+01 -1.00000E+00  1.68755E-01
      21    -1     0     0   502   501  0.000000000E+00  0.000000000E+00  2.453054977E+02  2.453054977E+02  0.000000000E+00  0.00000E+00  9.000E+00
       2    -1     0     0   501     0  0.000000000E+00  0.000000000E+00 -9.075840928E+02  9.075840928E+02  0.000000000E+00  0.00000E+00  9.000E+00
      25     1     1     2     0     0  4.486358322E+01 -1.776583735E+01 -1.886577450E+02  2.313981651E+02  1.250000000E+02  0.00000E+00  9.000E+00
      25     1     1     2     0     0 -3.588949637E+01  3.420585677E+01  2.036062719E+02  2.440053494E+02  1.250000000E+02  0.00000E+00  9.000E+00
       2     1     1     2   502     0 -8.974086859E+00 -1.644001942E+01 -6.772271220E+02  6.774860760E+02  7.629394531E-06  0.00000E+00  9.000E+00
#rwgt            1           1   2.7701399603655464E-002           9      174976           0
</event>
<event>
      5   9999  3.19816E-02  1.47744E+01 -1.00000E+00  1.78006E-01
      21    -1     0     0   502   501  0.000000000E+00  0.000000000E+00  2.006972656E+02  2.006972656E+02  0.000000000E+00  0.00000E+00  9.000E+00
      21    -1     0     0   511   502  0.000000000E+00  0.000000000E+00 -4.924248975E+02  4.924248975E+02  0.000000000E+00  0.00000E+00  9.000E+00
      25     1     1     2     0     0 -1.445226124E+02  2.329579512E+02 -1.644954342E+02  3.432782259E+02  1.250000000E+02  0.00000E+00  9.000E+00
      25     1     1     2     0     0  1.592225600E+02 -2.314769926E+02 -1.087161085E+02  3.261558124E+02  1.250000000E+02  0.00000E+00  9.000E+00
      21     1     1     2   511   501 -1.469994760E+01 -1.480958627E+00 -1.851608922E+01  2.368812482E+01  2.384185791E-07  0.00000E+00  9.000E+00
#rwgt            1           1   2.5806855749072384E-002           9      175087           0
</event>
<event>
      5   9999  3.19816E-02  1.01442E+02 -1.00000E+00  1.23549E-01
      21    -1     0     0   502   501  0.000000000E+00  0.000000000E+00  7.977607356E+02  7.977607356E+02  0.000000000E+00  0.00000E+00  9.000E+00
      21    -1     0     0   501   512  0.000000000E+00  0.000000000E+00 -3.617510812E+02  3.617510812E+02  0.000000000E+00  0.00000E+00  9.000E+00
      25     1     1     2     0     0  6.759968531E+01  1.032896317E+02  3.525717643E+02  3.939166339E+02  1.250000000E+02  0.00000E+00  9.000E+00
      25     1     1     2     0     0 -1.633020033E+02 -1.369279484E+02  3.793870789E+02  4.527431534E+02  1.250000000E+02  0.00000E+00  9.000E+00
      21     1     1     2   502   512  9.570231797E+01  3.363831669E+01 -2.959491888E+02  3.128520295E+02  3.814697266E-06  0.00000E+00  9.000E+00
#rwgt            1           1   3.1150994419172830E-002           9      175223           0
</event>
<event>
      5   9999  3.19816E-02  5.09428E+01 -1.00000E+00  1.38614E-01
      21    -1     0     0   502   511  0.000000000E+00  0.000000000E+00  7.025793363E+02  7.025793363E+02  0.000000000E+00  0.00000E+00  9.000E+00
      21    -1     0     0   501   502  0.000000000E+00  0.000000000E+00 -4.241781141E+02  4.241781141E+02  0.000000000E+00  0.00000E+00  9.000E+00
      25     1     1     2     0     0  1.361827087E+02 -1.801334429E+02 -3.284794147E+02  4.177529333E+02  1.250000000E+02  0.00000E+00  9.000E+00
      25     1     1     2     0     0 -1.591303870E+02  2.256150433E+02  4.381577395E+02  5.327587001E+02  1.250000000E+02  0.00000E+00  9.000E+00
      21     1     1     2   501   511  2.294767834E+01 -4.548160041E+01  1.687228974E+02  1.762458171E+02  2.697398305E-06  0.00000E+00  9.000E+00
#rwgt            1           1   2.8718732614155511E-002           9      175281           0
</event>
<event>
      5   9999  3.19816E-02  1.08402E+02 -1.00000E+00  1.22272E-01
      21    -1     0     0   512   501  0.000000000E+00  0.000000000E+00  7.085958088E+02  7.085958088E+02  0.000000000E+00  0.00000E+00  9.000E+00
      21    -1     0     0   501   502  0.000000000E+00  0.000000000E+00 -2.094918973E+02  2.094918973E+02  0.000000000E+00  0.00000E+00  9.000E+00
      25     1     1     2     0     0 -2.389379173E+02  7.759061933E+01  1.528993242E+01  2.810167514E+02  1.250000000E+02  0.00000E+00  9.000E+00
      25     1     1     2     0     0  2.771624741E+02  2.384801131E+01  3.766286556E+02  4.846255347E+02  1.250000000E+02  0.00000E+00  9.000E+00
      21     1     1     2   512   502 -3.822455677E+01 -1.014386306E+02  1.071853234E+02  1.524454200E+02  2.336015456E-06  0.00000E+00  9.000E+00
#rwgt            1           1   2.9720552855594731E-002           9      175451           0
</event>
<event>
      5   9999  3.19816E-02  1.54747E+01 -1.00000E+00  1.76118E-01
      21    -1     0     0   502   501  0.000000000E+00  0.000000000E+00  4.526035962E+02  4.526035962E+02  0.000000000E+00  0.00000E+00  9.000E+00
      21    -1     0     0   511   502  0.000000000E+00  0.000000000E+00 -2.395863511E+02  2.395863511E+02  0.000000000E+00  0.00000E+00  9.000E+00
      25     1     1     2     0     0  2.233405960E+02  4.700721980E+01  1.919834388E+02  3.233780161E+02  1.250000000E+02  0.00000E+00  9.000E+00
      25     1     1     2     0     0 -2.337376173E+02 -3.554557235E+01  1.021146000E+02  2.862676248E+02  1.250000000E+02  0.00000E+00  9.000E+00
      21     1     1     2   511   501  1.039702135E+01 -1.146164745E+01 -8.108079374E+01  8.254430646E+01  1.651812370E-06  0.00000E+00  9.000E+00
#rwgt            1           1   2.8967081082373329E-002           9      175518           0
</event>
<event>
      5   9999  3.19816E-02  6.61345E+01 -1.00000E+00  1.32482E-01
      21    -1     0     0   512   501  0.000000000E+00  0.000000000E+00  1.071099585E+03  1.071099585E+03  0.000000000E+00  0.00000E+00  9.000E+00
      21    -1     0     0   501   502  0.000000000E+00  0.000000000E+00 -5.327108054E+02  5.327108054E+02  0.000000000E+00  0.00000E+00  9.000E+00
      25     1     1     2     0     0 -1.629622889E+02  5.049231967E+02  4.858407959E+02  7.301851964E+02  1.250000000E+02  0.00000E+00  9.000E+00
      25     1     1     2     0     0  2.290049731E+02 -5.084062985E+02 -2.054758107E+02  6.072606943E+02  1.250000000E+02  0.00000E+00  9.000E+00
      21     1     1     2   512   502 -6.604268422E+01  3.483101869E+00  2.580237943E+02  2.663644994E+02  0.000000000E+00  0.00000E+00  9.000E+00
#rwgt            1           1   2.7527364425184848E-002           9      175734           0
</event>
<event>
      5   9999  3.19816E-02  4.71693E+01 -1.00000E+00  1.40535E-01
      21    -1     0     0   511   501  0.000000000E+00  0.000000000E+00  1.308635442E+03  1.308635442E+03  0.000000000E+00  0.00000E+00  9.000E+00
      21    -1     0     0   501   502  0.000000000E+00  0.000000000E+00 -7.730157645E+01  7.730157645E+01  0.000000000E+00  0.00000E+00  9.000E+00
      25     1     1     2     0     0  1.978017392E+02  6.761733827E+01  2.375706179E+02  3.402387852E+02  1.250000000E+02  0.00000E+00  9.000E+00
      25     1     1     2     0     0 -2.423297837E+02 -5.205454849E+01  8.719540246E+02  9.150749812E+02  1.250000000E+02  0.00000E+00  9.000E+00
      21     1     1     2   511   502  4.452804451E+01 -1.556278978E+01  1.218092227E+02  1.306232518E+02  1.907348633E-06  0.00000E+00  9.000E+00
#rwgt            1           1   2.7930688891573321E-002           9      175816           0
</event>
<event>
      5   9999  3.19816E-02  1.07318E+02 -1.00000E+00  1.22464E-01
      21    -1     0     0   512   501  0.000000000E+00  0.000000000E+00  8.021101612E+02  8.021101612E+02  0.000000000E+00  0.00000E+00  9.000E+00
      21    -1     0     0   501   502  0.000000000E+00  0.000000000E+00 -8.692513429E+02  8.692513429E+02  0.000000000E+00  0.00000E+00  9.000E+00
      25     1     1     2     0     0  4.853497978E+01  9.765530318E+01 -7.971846851E+02  8.142607842E+02  1.250000000E+02  0.00000E+00  9.000E+00
      25     1     1     2     0     0  2.895022834E+01 -1.719069109E+02  1.372291516E+02  2.546506269E+02  1.250000000E+02  0.00000E+00  9.000E+00
      21     1     1     2   512   502 -7.748520811E+01  7.425160769E+01  5.928143518E+02  6.024500929E+02  0.000000000E+00  0.00000E+00  9.000E+00
#rwgt            1           1   2.4793357301678951E-002           9      175946           0
</event>
<event>
      5   9999  3.19816E-02  2.31799E+02 -1.00000E+00  1.09364E-01
      21    -1     0     0   502   501  0.000000000E+00  0.000000000E+00  1.061921822E+03  1.061921822E+03  0.000000000E+00  0.00000E+00  9.000E+00
      21    -1     0     0   511   502  0.000000000E+00  0.000000000E+00 -1.213702591E+03  1.213702591E+03  0.000000000E+00  0.00000E+00  9.000E+00
      25     1     1     2     0     0 -3.516895562E+02 -9.158809324E+02  1.665144078E+02  1.002933435E+03  1.250000000E+02  0.00000E+00  9.000E+00
      25     1     1     2     0     0  5.386517333E+02  7.788557581E+02 -1.108112660E+02  9.615956106E+02  1.250000000E+02  0.00000E+00  9.000E+00
      21     1     1     2   511   501 -1.869621771E+02  1.370251744E+02 -2.074839114E+02  3.110953673E+02  3.814697266E-06  0.00000E+00  9.000E+00
#rwgt            1           1   3.8426879074359342E-002           9      176009           0
</event>
<event>
      5   9999  3.19816E-02  1.13131E+02 -1.00000E+00  1.21465E-01
      21    -1     0     0   502   501  0.000000000E+00  0.000000000E+00  4.050442660E+02  4.050442660E+02  0.000000000E+00  0.00000E+00  9.000E+00
      21    -1     0     0   512   502  0.000000000E+00  0.000000000E+00 -1.271196978E+03  1.271196978E+03  0.000000000E+00  0.00000E+00  9.000E+00
      25     1     1     2     0     0 -6.749601077E+02 -1.123231332E+02 -4.070094291E+02  8.058965868E+02  1.250000000E+02  0.00000E+00  9.000E+00
      25     1     1     2     0     0  5.794984707E+02  5.161265527E+01 -2.780656602E+02  6.568316794E+02  1.250000000E+02  0.00000E+00  9.000E+00
      21     1     1     2   512   501  9.546163699E+01  6.071047789E+01 -1.810776224E+02  2.135129776E+02  0.000000000E+00  0.00000E+00  9.000E+00
#rwgt            2          11   5.1007136246012646E-003           9      176127           0
</event>
<event>
      5   9999  3.37211E-02  3.26565E+01 -1.00000E+00  1.50524E-01
      21    -1     0     0   502   501  0.000000000E+00  0.000000000E+00  2.045234079E+03  2.045234079E+03  0.000000000E+00  0.00000E+00  9.000E+00
      21    -1     0     0   511   502  0.000000000E+00  0.000000000E+00 -8.450857569E+02  8.450857569E+02  0.000000000E+00  0.00000E+00  9.000E+00
      25     1     1     2     0     0  7.355117914E+02  8.653881558E+02  9.987839977E+02  1.517586482E+03  1.250000000E+02  0.00000E+00  9.000E+00
      25     1     1     2     0     0 -7.561130377E+02 -8.907266280E+02  3.456275659E+02  1.224820095E+03  1.250000000E+02  0.00000E+00  9.000E+00
      21     1     1     2   511   501  2.060124633E+01  2.533847226E+01 -1.442632411E+02  1.479132593E+02  3.303624740E-06  0.00000E+00  9.000E+00
#rwgt            1           1   8.0840274833911055E-002           9      176162           0
</event>
<event>
      5   9999  3.19816E-02  7.47769E+01 -1.00000E+00  1.29785E-01
      21    -1     0     0   512   501  0.000000000E+00  0.000000000E+00  1.164796645E+03  1.164796645E+03  0.000000000E+00  0.00000E+00  9.000E+00
      21    -1     0     0   501   502  0.000000000E+00  0.000000000E+00 -5.027731273E+02  5.027731273E+02  0.000000000E+00  0.00000E+00  9.000E+00
      25     1     1     2     0     0 -6.009147738E+02 -3.183873899E+02  2.471123270E+02  7.342741978E+02  1.250000000E+02  0.00000E+00  9.000E+00
      25     1     1     2     0     0  6.195842161E+02  3.907961647E+02  3.117073375E+02  8.058490600E+02  1.250000000E+02  0.00000E+00  9.000E+00
      21     1     1     2   512   502 -1.866944234E+01 -7.240877477E+01  1.032038532E+02  1.274465145E+02  0.000000000E+00  0.00000E+00  9.000E+00
#rwgt            1           1   3.3245736041887873E-002           9      176418           0
</event>
<event>
      5   9999  3.19816E-02  6.18364E+01 -1.00000E+00  1.34007E-01
      21    -1     0     0   502   501  0.000000000E+00  0.000000000E+00  4.763253730E+02  4.763253730E+02  0.000000000E+00  0.00000E+00  9.000E+00
       2    -1     0     0   501     0  0.000000000E+00  0.000000000E+00 -4.091192840E+02  4.091192840E+02  0.000000000E+00  0.00000E+00  9.000E+00
      25     1     1     2     0     0  1.545522389E+02  8.487248160E+01 -3.846502284E+01  2.195319809E+02  1.250000000E+02  0.00000E+00  9.000E+00
      25     1     1     2     0     0 -1.293626219E+02 -2.839928110E+01  3.603923840E+02  4.037931124E+02  1.250000000E+02  0.00000E+00  9.000E+00
       2     1     1     2   502     0 -2.518961692E+01 -5.647320050E+01 -2.547212721E+02  2.621195637E+02  3.814697266E-06  0.00000E+00  9.000E+00
#rwgt            1           1   2.6320368591531102E-002           9      176515           0
</event>
<event>
      5   9999  3.19816E-02  5.58802E+01 -1.00000E+00  1.36375E-01
      21    -1     0     0   511   501  0.000000000E+00  0.000000000E+00  2.060498738E+01  2.060498738E+01  0.000000000E+00  0.00000E+00  9.000E+00
      21    -1     0     0   501   502  0.000000000E+00  0.000000000E+00 -2.571108233E+03  2.571108233E+03  0.000000000E+00  0.00000E+00  9.000E+00
      25     1     1     2     0     0  1.312286520E+02  9.371252502E+01 -1.292559670E+03  1.308563524E+03  1.250000000E+02  0.00000E+00  9.000E+00
      25     1     1     2     0     0 -8.501313983E+01 -6.230041553E+01 -1.150337557E+03  1.161899338E+03  1.250000000E+02  0.00000E+00  9.000E+00
      21     1     1     2   511   502 -4.621551219E+01 -3.141210949E+01 -1.076060183E+02  1.212503582E+02  3.015782986E-06  0.00000E+00  9.000E+00
#rwgt            1           1   4.0644140216734952E-002           9      176610           0
</event>
<event>
      5   9999  3.19816E-02  1.55678E+02 -1.00000E+00  1.15758E-01
      21    -1     0     0   502   501  0.000000000E+00  0.000000000E+00  1.390758447E+02  1.390758447E+02  0.000000000E+00  0.00000E+00  9.000E+00
      21    -1     0     0   501   512  0.000000000E+00  0.000000000E+00 -1.178522415E+03  1.178522415E+03  0.000000000E+00  0.00000E+00  9.000E+00
      25     1     1     2     0     0 -2.200637546E+00  2.109712537E+02 -4.700047496E+01  2.496953291E+02  1.250000000E+02  0.00000E+00  9.000E+00
      25     1     1     2     0     0 -1.366977192E+02 -1.406658232E+02 -6.827435392E+02  7.212744835E+02  1.250000000E+02  0.00000E+00  9.000E+00
      21     1     1     2   502   512  1.388983567E+02 -7.030543048E+01 -3.097025560E+02  3.466284470E+02  3.814697266E-06  0.00000E+00  9.000E+00
#rwgt            1           1   2.7932339338674325E-002           9      176710           0
</event>
<event>
      5   9999  3.19816E-02  4.36920E+01 -1.00000E+00  1.42502E-01
      21    -1     0     0   511   501  0.000000000E+00  0.000000000E+00  2.837804793E+02  2.837804793E+02  0.000000000E+00  0.00000E+00  9.000E+00
      21    -1     0     0   501   502  0.000000000E+00  0.000000000E+00 -9.101877640E+02  9.101877640E+02  0.000000000E+00  0.00000E+00  9.000E+00
      25     1     1     2     0     0  3.875733586E+02 -1.014759382E+02 -5.356486387E+02  6.804814021E+02  1.250000000E+02  0.00000E+00  9.000E+00
      25     1     1     2     0     0 -4.312548629E+02  1.005187464E+02 -7.111672435E+01  4.655828214E+02  1.250000000E+02  0.00000E+00  9.000E+00
      21     1     1     2   511   502  4.368150421E+01  9.571917856E-01 -1.964192170E+01  4.790401981E+01  9.233911863E-07  0.00000E+00  9.000E+00
#rwgt            1           1   2.8637849541871509E-002           9      176742           0
</event>
<event>
      5   9999  3.19816E-02  5.07869E+01 -1.00000E+00  1.38690E-01
      21    -1     0     0   502   501  0.000000000E+00  0.000000000E+00  6.587062002E+02  6.587062002E+02  0.000000000E+00  0.00000E+00  9.000E+00
      21    -1     0     0   501   512  0.000000000E+00  0.000000000E+00 -2.606982806E+02  2.606982806E+02  0.000000000E+00  0.00000E+00  9.000E+00
      25     1     1     2     0     0 -1.521510376E+02  3.285559913E+02  2.387255886E+02  4.513467451E+02  1.250000000E+02  0.00000E+00  9.000E+00
      25     1     1     2     0     0  1.056116660E+02 -3.488882047E+02  1.600267816E+02  4.172653523E+02  1.250000000E+02  0.00000E+00  9.000E+00
      21     1     1     2   502   512  4.653937156E+01  2.033221335E+01 -7.444505960E-01  5.079238340E+01  4.366065658E-07  0.00000E+00  9.000E+00
#rwgt            1           1   2.8700746682382646E-002           9      176852           0
</event>
<event>
      5   9999  3.19816E-02  1.47234E+02 -1.00000E+00  1.16715E-01
      21    -1     0     0   502   501  0.000000000E+00  0.000000000E+00  2.767515649E+03  2.767515649E+03  0.000000000E+00  0.00000E+00  9.000E+00
      21    -1     0     0   511   502  0.000000000E+00  0.000000000E+00 -9.872133612E+01  9.872133612E+01  0.000000000E+00  0.00000E+00  9.000E+00
      25     1     1     2     0     0  1.012194989E+02  2.698256864E+02  4.528149929E+02  5.511058934E+02  1.250000000E+02  0.00000E+00  9.000E+00
      25     1     1     2     0     0 -1.118043819E+02 -1.229728061E+02  2.138816003E+03  2.148902377E+03  1.250000000E+02  0.00000E+00  9.000E+00
      21     1     1     2   511   501  1.058488304E+01 -1.468528803E+02  7.716331752E+01  1.662287153E+02  4.955437110E-06  0.00000E+00  9.000E+00
#rwgt            1           1   7.4545097287614451E-002           9      176961           0
</event>
<event>
      5   9999  3.19816E-02  3.26373E+00 -1.00000E+00  2.86189E-01
       2    -1     0     0   502     0  0.000000000E+00  0.000000000E+00  1.414722509E+03  1.414722509E+03  0.000000000E+00  0.00000E+00  9.000E+00
      21    -1     0     0   501   502  0.000000000E+00  0.000000000E+00 -2.236792605E+03  2.236792605E+03  0.000000000E+00  0.00000E+00  9.000E+00
      25     1     1     2     0     0  1.588997832E+02  5.507411192E+01 -3.926447790E+01  2.131877064E+02  1.250000000E+02  0.00000E+00  9.000E+00
      25     1     1     2     0     0 -1.618023421E+02 -5.358176170E+01 -2.105272549E+03  2.115856448E+03  1.250000000E+02  0.00000E+00  9.000E+00
       2     1     1     2   501     0  2.902558878E+00 -1.492350215E+00  1.322466932E+03  1.322470959E+03  0.000000000E+00  0.00000E+00  9.000E+00
#rwgt            2          18   2.0689363240209138E-003           9      177087           0
</event>
<event>
      5   9999  3.19816E-02  3.80402E+01 -1.00000E+00  1.46206E-01
       2    -1     0     0   502     0  0.000000000E+00  0.000000000E+00  1.935355366E+03  1.935355366E+03  0.000000000E+00  0.00000E+00  9.000E+00
      21    -1     0     0   501   502  0.000000000E+00  0.000000000E+00 -5.855284607E+01  5.855284607E+01  0.000000000E+00  0.00000E+00  9.000E+00
      25     1     1     2     0     0 -2.138876762E+02 -1.713166101E+02  5.078536507E+02  5.904554594E+02  1.250000000E+02  0.00000E+00  9.000E+00
      25     1     1     2     0     0  1.980952980E+02  1.367094562E+02  1.193546614E+03  1.223972934E+03  1.250000000E+02  0.00000E+00  9.000E+00
       2     1     1     2   501     0  1.579237824E+01  3.460715394E+01  1.754022543E+02  1.794798181E+02  1.907348633E-06  0.00000E+00  9.000E+00
#rwgt            1           1   4.0970650644685053E-002           9      177121           0
</event>
<event>
      5   9999  3.19816E-02  5.30960E+01 -1.00000E+00  1.37603E-01
       3    -1     0     0   502     0  0.000000000E+00  0.000000000E+00  1.531738928E+03  1.531738928E+03  0.000000000E+00  0.00000E+00  9.000E+00
      21    -1     0     0   501   502  0.000000000E+00  0.000000000E+00 -2.201007561E+02  2.201007561E+02  0.000000000E+00  0.00000E+00  9.000E+00
      25     1     1     2     0     0 -3.167335852E+02 -2.354577381E+02  1.773234758E+02  4.503655465E+02  1.250000000E+02  0.00000E+00  9.000E+00
      25     1     1     2     0     0  2.735141458E+02  2.663003493E+02  4.056550393E+02  5.708825403E+02  1.250000000E+02  0.00000E+00  9.000E+00
       3     1     1     2   501     0  4.321943946E+01 -3.084261123E+01  7.286596568E+02  7.305915973E+02  0.000000000E+00  0.00000E+00  9.000E+00
#rwgt            1           1   2.7952353803172902E-002           9      177203           0
</event>
<event>
      5   9999  3.19816E-02  8.72568E+01 -1.00000E+00  1.26550E-01
      21    -1     0     0   511   501  0.000000000E+00  0.000000000E+00  4.374515625E+02  4.374515625E+02  0.000000000E+00  0.00000E+00  9.000E+00
      21    -1     0     0   501   502  0.000000000E+00  0.000000000E+00 -3.763590656E+02  3.763590656E+02  0.000000000E+00  0.00000E+00  9.000E+00
      25     1     1     2     0     0  2.796434773E+02 -1.134928092E+02  4.873427884E+01  3.302743134E+02  1.250000000E+02  0.00000E+00  9.000E+00
      25     1     1     2     0     0 -3.627389321E+02  8.686785603E+01 -9.816672080E+00  3.935059394E+02  1.250000000E+02  0.00000E+00  9.000E+00
      21     1     1     2   511   502  8.309545484E+01  2.662495319E+01  2.217489013E+01  9.003037543E+01  1.011524364E-06  0.00000E+00  9.000E+00
#rwgt            1           1   3.0988178921618158E-002           9      177345           0
</event>
<event>
      5   9999  3.19816E-02  8.24011E+01 -1.00000E+00  1.27731E-01
      21    -1     0     0   512   501  0.000000000E+00  0.000000000E+00  2.659573762E+02  2.659573762E+02  0.000000000E+00  0.00000E+00  9.000E+00
      21    -1     0     0   501   502  0.000000000E+00  0.000000000E+00 -3.732011234E+02  3.732011234E+02  0.000000000E+00  0.00000E+00  9.000E+00
      25     1     1     2     0     0  2.537870005E+02  7.465432488E+01  1.565422198E+01  2.930036937E+02  1.250000000E+02  0.00000E+00  9.000E+00
      25     1     1     2     0     0 -1.753226659E+02 -9.981944254E+01 -1.139452206E+02  2.632688200E+02  1.250000000E+02  0.00000E+00  9.000E+00
      21     1     1     2   512   502 -7.846433458E+01  2.516511766E+01 -8.952748663E+00  8.288598589E+01  1.567953400E-06  0.00000E+00  9.000E+00
#rwgt            1           1   2.5096954298209247E-002           9      177446           0
</event>
<event>
      5   9999  3.19816E-02  7.81535E+01 -1.00000E+00  1.28842E-01
      21    -1     0     0   502   511  0.000000000E+00  0.000000000E+00  1.044993543E+03  1.044993543E+03  0.000000000E+00  0.00000E+00  9.000E+00
      21    -1     0     0   501   502  0.000000000E+00  0.000000000E+00 -9.826028552E+01  9.826028552E+01  0.000000000E+00  0.00000E+00  9.000E+00
      25     1     1     2     0     0 -6.148953850E+01 -7.051112574E+01  6.127130672E-01  1.561350621E+02  1.250000000E+02  0.00000E+00  9.000E+00
      25     1     1     2     0     0  1.279709841E+02  2.942363219E+01  8.110699672E+02  8.310847217E+02  1.250000000E+02  0.00000E+00  9.000E+00
      21     1     1     2   501   511 -6.648144562E+01  4.108749355E+01  1.350505777E+02  1.560340452E+02  1.907348633E-06  0.00000E+00  9.000E+00
#rwgt            1           1   3.0564218906550023E-002           9      177515           0
</event>
<event>
      5   9999  3.19816E-02  2.80234E+01 -1.00000E+00  1.55125E-01
      21    -1     0     0   502   512  0.000000000E+00  0.000000000E+00  4.001128356E+02  4.001128356E+02  0.000000000E+00  0.00000E+00  9.000E+00
      21    -1     0     0   501   502  0.000000000E+00  0.000000000E+00 -2.163902469E+02  2.163902469E+02  0.000000000E+00  0.00000E+00  9.000E+00
      25     1     1     2     0     0  4.088339129E+01 -1.593866247E+02  2.060265023E+02  2.918003897E+02  1.250000000E+02  0.00000E+00  9.000E+00
      25     1     1     2     0     0 -2.196666679E+01  1.387112858E+02 -1.200156687E+02  2.230518235E+02  1.250000000E+02  0.00000E+00  9.000E+00
      21     1     1     2   501   512 -1.891672450E+01  2.067533893E+01  9.771175517E+01  1.016508692E+02  0.000000000E+00  0.00000E+00  9.000E+00
#rwgt            1           1   2.8959642866113161E-002           9      177611           0
</event>
<event>
      5   9999  3.19816E-02  9.30666E+01 -1.00000E+00  1.25248E-01
      21    -1     0     0   502   501  0.000000000E+00  0.000000000E+00  1.178790702E+03  1.178790702E+03  0.000000000E+00  0.00000E+00  9.000E+00
       5    -1     0     0   501     0  0.000000000E+00  0.000000000E+00 -5.071014181E+02  5.071014181E+02  0.000000000E+00  0.00000E+00  9.000E+00
      25     1     1     2     0     0 -1.707857858E+02  5.750100027E+02 -1.285794686E+00  6.127241966E+02  1.250000000E+02  0.00000E+00  9.000E+00
      25     1     1     2     0     0  2.299519129E+02 -5.031715490E+02  7.582750100E+02  9.469242212E+02  1.250000000E+02  0.00000E+00  9.000E+00
       5     1     1     2   502     0 -5.916612712E+01 -7.183845366E+01 -8.529993158E+01  1.262437022E+02  1.907348633E-06  0.00000E+00  9.000E+00
#rwgt            2          16   1.0538650359283986E-005           9      177876           0
</event>
<event>
      5   9999  3.19816E-02  8.20352E+01 -1.00000E+00  1.27824E-01
      21    -1     0     0   502   501  0.000000000E+00  0.000000000E+00  4.578921913E+01  4.578921913E+01  0.000000000E+00  0.00000E+00  9.000E+00
      21    -1     0     0   501   511  0.000000000E+00  0.000000000E+00 -2.759548725E+03  2.759548725E+03  0.000000000E+00  0.00000E+00  9.000E+00
      25     1     1     2     0     0  1.148999313E+02  1.108449805E+02 -2.633801258E+02  3.323893719E+02  1.250000000E+02  0.00000E+00  9.000E+00
      25     1     1     2     0     0 -1.809596204E+02 -6.220447010E+01 -1.323812947E+03  1.343399233E+03  1.250000000E+02  0.00000E+00  9.000E+00
      21     1     1     2   502   511  6.605968907E+01 -4.864051040E+01 -1.126566433E+03  1.129549339E+03  1.525878906E-05  0.00000E+00  9.000E+00
#rwgt            1           1   3.0946614837924817E-002           9      177895           0
</event>
<event>
      5   9999  3.19816E-02  1.37013E+02 -1.00000E+00  1.17974E-01
      21    -1     0     0   502   501  0.000000000E+00  0.000000000E+00  5.518403752E+02  5.518403752E+02  0.000000000E+00  0.00000E+00  9.000E+00
      21    -1     0     0   512   502  0.000000000E+00  0.000000000E+00 -6.822882357E+02  6.822882357E+02  0.000000000E+00  0.00000E+00  9.000E+00
      25     1     1     2     0     0 -3.692813351E+02 -1.546619405E+02 -1.498602247E+02  4.453898374E+02  1.250000000E+02  0.00000E+00  9.000E+00
      25     1     1     2     0     0  2.414611678E+02  2.040020292E+02  3.146895138E+02  4.632222076E+02  1.250000000E+02  0.00000E+00  9.000E+00
      21     1     1     2   512   501  1.278201674E+02 -4.934008875E+01 -2.952771496E+02  3.255165658E+02  0.000000000E+00  0.00000E+00  9.000E+00
#rwgt            1           1   2.7604865838577863E-002           9      177939           0
</event>
<event>
      5   9999  3.19816E-02  5.08391E+01 -1.00000E+00  1.38664E-01
      21    -1     0     0   502   501  0.000000000E+00  0.000000000E+00  1.853825179E+02  1.853825179E+02  0.000000000E+00  0.00000E+00  9.000E+00
      21    -1     0     0   511   502  0.000000000E+00  0.000000000E+00 -8.023056399E+02  8.023056399E+02  0.000000000E+00  0.00000E+00  9.000E+00
      25     1     1     2     0     0 -9.198101812E+01 -2.205877187E+02 -5.652128816E+02  6.262667570E+02  1.250000000E+02  0.00000E+00  9.000E+00
      25     1     1     2     0     0  1.347502870E+02  1.931031398E+02  2.674904234E+01  2.679309122E+02  1.250000000E+02  0.00000E+00  9.000E+00
      21     1     1     2   511   501 -4.276926888E+01  2.748457885E+01 -7.845928268E+01  9.349048868E+01  0.000000000E+00  0.00000E+00  9.000E+00
#rwgt            1           1   2.9452938729557822E-002           9      177989           0
</event>
<event>
      5   9999  3.19816E-02  2.34912E+02 -1.00000E+00  1.09162E-01
      21    -1     0     0   502   512  0.000000000E+00  0.000000000E+00  5.129872627E+02  5.129872627E+02  0.000000000E+00  0.00000E+00  9.000E+00
      21    -1     0     0   501   502  0.000000000E+00  0.000000000E+00 -9.080538578E+02  9.080538578E+02  0.000000000E+00  0.00000E+00  9.000E+00
      25     1     1     2     0     0  1.231532910E+01 -1.486397919E+02 -7.832808210E+02  8.070931171E+02  1.250000000E+02  0.00000E+00  9.000E+00
      25     1     1     2     0     0 -1.945266039E+02  3.735020742E-01  1.316230737E+02  2.660646024E+02  1.250000000E+02  0.00000E+00  9.000E+00
      21     1     1     2   501   512  1.822112748E+02  1.482662898E+02  2.565911522E+02  3.478834011E+02  3.814697266E-06  0.00000E+00  9.000E+00
#rwgt            1           1   2.9887589483677531E-002           9      178089           0
</event>
<event>
      5   9999  3.19816E-02  7.37270E+01 -1.00000E+00  1.30090E-01
      21    -1     0     0   502   501  0.000000000E+00  0.000000000E+00  7.447048225E+02  7.447048225E+02  0.000000000E+00  0.00000E+00  9.000E+00
      21    -1     0     0   501   511  0.000000000E+00  0.000000000E+00 -4.432281566E+02  4.432281566E+02  0.000000000E+00  0.00000E+00  9.000E+00
      25     1     1     2     0     0  4.002358138E+02  2.523592184E+02  2.556740221E+01  4.900536439E+02  1.250000000E+02  0.00000E+00  9.000E+00
      25     1     1     2     0     0 -4.549085573E+02 -3.018218938E+02  2.755023237E+02  6.241512488E+02  1.250000000E+02  0.00000E+00  9.000E+00
      21     1     1     2   502   511  5.467274345E+01  4.946267536E+01  4.069399389E-01  7.372808644E+01  1.290564443E-06  0.00000E+00  9.000E+00
#rwgt            2          11   7.7303255590141567E-003           9      178253           0
</event>
<event>
      5   9999  4.18879E-02  2.98879E+01 -1.00000E+00  1.53153E-01
      21    -1     0     0   502   501  0.000000000E+00  0.000000000E+00  5.023403508E+01  5.023403508E+01  0.000000000E+00  0.00000E+00  9.000E+00
      21    -1     0     0   501   512  0.000000000E+00  0.000000000E+00 -2.347657896E+03  2.347657896E+03  0.000000000E+00  0.00000E+00  9.000E+00
      25     1     1     2     0     0 -7.155469971E+01  2.669722700E+02 -1.081663530E+03  1.123394525E+03  1.250000000E+02  0.00000E+00  9.000E+00
      25     1     1     2     0     0  9.187476226E+01 -2.888899212E+02 -9.099353079E+02  9.672153964E+02  1.250000000E+02  0.00000E+00  9.000E+00
      21     1     1     2   502   512 -2.032006255E+01  2.191765119E+01 -3.058250233E+02  3.072820093E+02  6.607249480E-06  0.00000E+00  9.000E+00
#rwgt            1           1  0.13003400445064614                9      178273           0
</event>
<event>
      5   9999  3.19816E-02  1.11097E+02 -1.00000E+00  1.21807E-01
      21    -1     0     0   502   511  0.000000000E+00  0.000000000E+00  1.553990128E+03  1.553990128E+03  0.000000000E+00  0.00000E+00  9.000E+00
      21    -1     0     0   501   502  0.000000000E+00  0.000000000E+00 -1.106418365E+02  1.106418365E+02  0.000000000E+00  0.00000E+00  9.000E+00
      25     1     1     2     0     0 -7.209337750E+01  3.603560970E+02  4.725887325E+02  6.115709949E+02  1.250000000E+02  0.00000E+00  9.000E+00
      25     1     1     2     0     0  4.758976167E+01 -2.519953836E+02  5.732407966E+02  6.403096670E+02  1.250000000E+02  0.00000E+00  9.000E+00
      21     1     1     2   501   511  2.450361583E+01 -1.083607134E+02  3.975187627E+02  4.127513030E+02  7.629394531E-06  0.00000E+00  9.000E+00
#rwgt            1           1   2.5992543100533175E-002           9      178393           0
</event>
<event>
      5   9999  3.19816E-02  1.28383E+02 -1.00000E+00  1.19137E-01
      21    -1     0     0   502   501  0.000000000E+00  0.000000000E+00  6.558941961E+01  6.558941961E+01  0.000000000E+00  0.00000E+00  9.000E+00
       1    -1     0     0   501     0  0.000000000E+00  0.000000000E+00 -1.155173731E+03  1.155173731E+03  0.000000000E+00  0.00000E+00  9.000E+00
      25     1     1     2     0     0  6.999015284E+01  8.158632422E+01 -1.975479461E+02  2.573035966E+02  1.250000000E+02  0.00000E+00  9.000E+00
      25     1     1     2     0     0  2.465371382E+01 -1.683308240E+02 -3.711959146E+02  4.270298338E+02  1.250000000E+02  0.00000E+00  9.000E+00
       1     1     1     2   502     0 -9.464386666E+01  8.674449978E+01 -5.208404505E+02  5.364297201E+02  7.629394531E-06  0.00000E+00  9.000E+00
#rwgt            2          12   3.5156885923588591E-004           9      178501           0
</event>
<event>
      5   9999  3.19816E-02  7.12620E+01 -1.00000E+00  1.30829E-01
      21    -1     0     0   502   501  0.000000000E+00  0.000000000E+00  5.600276768E+02  5.600276768E+02  0.000000000E+00  0.00000E+00  9.000E+00
      21    -1     0     0   501   511  0.000000000E+00  0.000000000E+00 -4.760831574E+02  4.760831574E+02  0.000000000E+00  0.00000E+00  9.000E+00
      25     1     1     2     0     0 -1.093475416E+02 -1.225437065E+02 -9.698246908E+01  2.280448293E+02  1.250000000E+02  0.00000E+00  9.000E+00
      25     1     1     2     0     0  1.784669521E+02  1.398865927E+02  4.557426131E+02  5.241612741E+02  1.250000000E+02  0.00000E+00  9.000E+00
      21     1     1     2   502   511 -6.911941050E+01 -1.734288614E+01 -2.748156246E+02  2.839047308E+02  3.814697266E-06  0.00000E+00  9.000E+00
#rwgt            1           1   2.7789245039043016E-002           9      178610           0
</event>
<event>
      5   9999  3.19816E-02  3.59259E+01 -1.00000E+00  1.47794E-01
      21    -1     0     0   502   501  0.000000000E+00  0.000000000E+00  7.046853754E+02  7.046853754E+02  0.000000000E+00  0.00000E+00  9.000E+00
      21    -1     0     0   501   512  0.000000000E+00  0.000000000E+00 -2.463054581E+02  2.463054581E+02  0.000000000E+00  0.00000E+00  9.000E+00
      25     1     1     2     0     0  2.415733342E+02  2.393739874E+02  8.503135298E+01  3.721732293E+02  1.250000000E+02  0.00000E+00  9.000E+00
      25     1     1     2     0     0 -2.481271907E+02 -2.746970278E+02  3.767100801E+02  5.427347827E+02  1.250000000E+02  0.00000E+00  9.000E+00
      21     1     1     2   502   512  6.553856505E+00  3.532304042E+01 -3.361515873E+00  3.608282152E+01  4.440446027E-07  0.00000E+00  9.000E+00
#rwgt            1           1   2.8895271256400651E-002           9      178681           0
</event>
<event>
      5   9999  3.19816E-02  5.24420E+01 -1.00000E+00  1.37904E-01
      21    -1     0     0   502   511  0.000000000E+00  0.000000000E+00  1.797025265E+03  1.797025265E+03  0.000000000E+00  0.00000E+00  9.000E+00
      21    -1     0     0   501   502  0.000000000E+00  0.000000000E+00 -6.913153274E+01  6.913153274E+01  0.000000000E+00  0.00000E+00  9.000E+00
      25     1     1     2     0     0 -1.922904271E+02  4.443675737E+00  1.447373220E+03  1.465438362E+03  1.250000000E+02  0.00000E+00  9.000E+00
      25     1     1     2     0     0  1.646854606E+02 -4.903211326E+01  1.501152532E+02  2.601634838E+02  1.250000000E+02  0.00000E+00  9.000E+00
      21     1     1     2   501   511  2.760496652E+01  4.458843752E+01  1.304052590E+02  1.405549520E+02  1.907348633E-06  0.00000E+00  9.000E+00
#rwgt            1           1   3.5989890938320591E-002           9      178826           0
</event>
<event>
      5   9999  3.19816E-02  9.04923E+01 -1.00000E+00  1.25811E-01
      21    -1     0     0   512   501  0.000000000E+00  0.000000000E+00  6.885647163E+02  6.885647163E+02  0.000000000E+00  0.00000E+00  9.000E+00
      21    -1     0     0   501   502  0.000000000E+00  0.000000000E+00 -2.099629011E+02  2.099629011E+02  0.000000000E+00  0.00000E+00  9.000E+00
      25     1     1     2     0     0 -1.396164797E+01 -1.725418721E+02  1.595972051E+02  2.665743669E+02  1.250000000E+02  0.00000E+00  9.000E+00
      25     1     1     2     0     0 -6.294951966E+01  2.202234219E+02 -3.797567340E+01  2.636819094E+02  1.250000000E+02  0.00000E+00  9.000E+00
      21     1     1     2   512   502  7.691116762E+01 -4.768154978E+01  3.569802835E+02  3.682713411E+02  5.394796609E-06  0.00000E+00  9.000E+00
#rwgt            1           1   2.6989557754811849E-002           9      178941           0
</event>
<event>
      5   9999  3.19816E-02  1.12596E+01 -1.00000E+00  1.89984E-01
      21    -1     0     0   502   501  0.000000000E+00  0.000000000E+00  1.380829030E+03  1.380829030E+03  0.000000000E+00  0.00000E+00  9.000E+00
      21    -1     0     0   501   511  0.000000000E+00  0.000000000E+00 -7.612215240E+01  7.612215240E+01  0.000000000E+00  0.00000E+00  9.000E+00
      25     1     1     2     0     0  1.793941205E+02 -1.927316405E+02  3.466820544E+02  4.529251402E+02  1.250000000E+02  0.00000E+00  9.000E+00
      25     1     1     2     0     0 -1.709813189E+02  1.852480310E+02  9.482413181E+02  9.891097218E+02  1.250000000E+02  0.00000E+00  9.000E+00
      21     1     1     2   502   511 -8.412801639E+00  7.483609482E+00  9.783504947E+00  1.491632030E+01  1.192092896E-07  0.00000E+00  9.000E+00
#rwgt            1           1   3.0402166721949585E-002           9      178987           0
</event>
<event>
      5   9999  3.19816E-02  1.31101E+01 -1.00000E+00  1.83077E-01
       2    -1     0     0   502     0  0.000000000E+00  0.000000000E+00  1.901549506E+03  1.901549506E+03  0.000000000E+00  0.00000E+00  9.000E+00
      21    -1     0     0   501   502  0.000000000E+00  0.000000000E+00 -4.614286098E+02  4.614286098E+02  0.000000000E+00  0.00000E+00  9.000E+00
      25     1     1     2     0     0  1.574685875E+01 -4.607753880E+02  6.736315738E+02  8.258125810E+02  1.250000000E+02  0.00000E+00  9.000E+00
      25     1     1     2     0     0 -2.797856607E+01  4.654933396E+02 -2.340527701E+02  5.365375556E+02  1.250000000E+02  0.00000E+00  9.000E+00
       2     1     1     2   501     0  1.223170733E+01 -4.717951665E+00  1.000542092E+03  1.000627979E+03  1.525878906E-05  0.00000E+00  9.000E+00
#rwgt            1           1   2.5319694919943327E-002           9      179184           0
</event>
<event>
      5   9999  3.19816E-02  2.63220E+02 -1.00000E+00  1.07471E-01
       2    -1     0     0   502     0  0.000000000E+00  0.000000000E+00  9.903391692E+02  9.903391692E+02  0.000000000E+00  0.00000E+00  9.000E+00
      21    -1     0     0   501   502  0.000000000E+00  0.000000000E+00 -2.857610320E+02  2.857610320E+02  0.000000000E+00  0.00000E+00  9.000E+00
      25     1     1     2     0     0  1.802727932E+02 -1.160400361E+02 -1.722308210E+02  3.020795022E+02  1.250000000E+02  0.00000E+00  9.000E+00
      25     1     1     2     0     0 -1.891564571E+01 -9.192341204E+01  3.986536068E+02  4.282025380E+02  1.250000000E+02  0.00000E+00  9.000E+00
       2     1     1     2   501     0 -1.613571475E+02  2.079634482E+02  4.781553515E+02  5.458181611E+02  7.629394531E-06  0.00000E+00  9.000E+00
#rwgt            2          18   8.4951832088251149E-004           9      179379           0
</event>
<event>
      5   9999  3.19816E-02  3.20179E+01 -1.00000E+00  1.51102E-01
      21    -1     0     0   502   501  0.000000000E+00  0.000000000E+00  5.523016317E+02  5.523016317E+02  0.000000000E+00  0.00000E+00  9.000E+00
      21    -1     0     0   501   511  0.000000000E+00  0.000000000E+00 -7.082724334E+02  7.082724334E+02  0.000000000E+00  0.00000E+00  9.000E+00
      25     1     1     2     0     0 -1.419765806E+02 -5.472435919E+02  4.440861690E+01  5.807150967E+02  1.250000000E+02  0.00000E+00  9.000E+00
      25     1     1     2     0     0  1.716866807E+02  5.591789790E+02 -1.443405950E+02  6.153183357E+02  1.250000000E+02  0.00000E+00  9.000E+00
      21     1     1     2   502   511 -2.971010014E+01 -1.193538710E+01 -5.603882364E+01  6.454063271E+01  0.000000000E+00  0.00000E+00  9.000E+00
#rwgt            1           1   3.0613903408266391E-002           9      179458           0
</event>
<event>
      5   9999  3.19816E-02  8.00925E+01 -1.00000E+00  1.28325E-01
      21    -1     0     0   502   501  0.000000000E+00  0.000000000E+00  1.699888892E+03  1.699888892E+03  0.000000000E+00  0.00000E+00  9.000E+00
      21    -1     0     0   501   512  0.000000000E+00  0.000000000E+00 -3.889309917E+02  3.889309917E+02  0.000000000E+00  0.00000E+00  9.000E+00
      25     1     1     2     0     0  2.823648892E+02  2.370556480E+01  1.194215483E+03  1.233721000E+03  1.250000000E+02  0.00000E+00  9.000E+00
      25     1     1     2     0     0 -2.287998291E+02 -8.325047039E+01  4.421379640E+02  5.199913286E+02  1.250000000E+02  0.00000E+00  9.000E+00
      21     1     1     2   502   512 -5.356506010E+01  5.954490559E+01 -3.253955472E+02  3.351075552E+02  0.000000000E+00  0.00000E+00  9.000E+00
#rwgt            1           1   4.1766668898682927E-002           9      179825           0
</event>
<event>
      5   9999  3.19816E-02  5.27905E+01 -1.00000E+00  1.37743E-01
       3    -1     0     0   502     0  0.000000000E+00  0.000000000E+00  6.526321563E+02  6.526321563E+02  0.000000000E+00  0.00000E+00  9.000E+00
      21    -1     0     0   501   502  0.000000000E+00  0.000000000E+00 -6.108379758E+02  6.108379758E+02  0.000000000E+00  0.00000E+00  9.000E+00
      25     1     1     2     0     0  1.033435035E+01  1.714342626E+02  1.248239364E+01  2.127846690E+02  1.250000000E+02  0.00000E+00  9.000E+00
      25     1     1     2     0     0 -3.101238453E+01 -2.200064020E+02 -4.774151828E+02  5.412160767E+02  1.250000000E+02  0.00000E+00  9.000E+00
       3     1     1     2   501     0  2.067803418E+01  4.857213938E+01  5.067269697E+02  5.094693864E+02  0.000000000E+00  0.00000E+00  9.000E+00
#rwgt            1           1   2.6559842405301834E-002           9      179887           0
</event>
<event>
      5   9999  3.19816E-02  1.23535E+03 -1.00000E+00  8.88407E-02
      21    -1     0     0   502   501  0.000000000E+00  0.000000000E+00  1.137648229E+03  1.137648229E+03  0.000000000E+00  0.00000E+00  9.000E+00
       2    -1     0     0   501     0  0.000000000E+00  0.000000000E+00 -2.717455649E+03  2.717455649E+03  0.000000000E+00  0.00000E+00  9.000E+00
      25     1     1     2     0     0 -7.644048347E+02 -4.257483974E+02 -1.274256952E+03  1.550784391E+03  1.250000000E+02  0.00000E+00  9.000E+00
      25     1     1     2     0     0 -4.681879562E+02  3.432431985E+02  5.437592065E+02  8.051800608E+02  1.250000000E+02  0.00000E+00  9.000E+00
       2     1     1     2   502     0  1.232592791E+03  8.250519895E+01 -8.493096746E+02  1.499139426E+03  1.868812365E-05  0.00000E+00  9.000E+00
#rwgt            2          13   6.7882576400570677E-004           9      180167           0
</event>
<event>
      5   9999  3.19816E-02  5.05200E+01 -1.00000E+00  1.38820E-01
      21    -1     0     0   502   501  0.000000000E+00  0.000000000E+00  3.549923582E+02  3.549923582E+02  0.000000000E+00  0.00000E+00  9.000E+00
       1    -1     0     0   501     0  0.000000000E+00  0.000000000E+00 -1.316368040E+03  1.316368040E+03  0.000000000E+00  0.00000E+00  9.000E+00
      25     1     1     2     0     0 -2.977779910E+01  2.932318937E+02 -9.898277739E+01  3.351033438E+02  1.250000000E+02  0.00000E+00  9.000E+00
      25     1     1     2     0     0  2.540458502E+01 -2.429015633E+02  1.566728704E+02  3.159397897E+02  1.250000000E+02  0.00000E+00  9.000E+00
       1     1     1     2   502     0  4.373214080E+00 -5.033033041E+01 -1.019065775E+03  1.020317265E+03  1.868812365E-05  0.00000E+00  9.000E+00
#rwgt            1           1   2.5997239365170691E-002           9      180186           0
</event>
<event>
      5   9999  3.19816E-02  7.29365E+01 -1.00000E+00  1.30323E-01
      21    -1     0     0   502   501  0.000000000E+00  0.000000000E+00  2.474305355E+03  2.474305355E+03  0.000000000E+00  0.00000E+00  9.000E+00
       2    -1     0     0   501     0  0.000000000E+00  0.000000000E+00 -2.235232768E+03  2.235232768E+03  0.000000000E+00  0.00000E+00  9.000E+00
      25     1     1     2     0     0  1.121199824E+01 -3.942706773E+02  1.960776528E+03  2.003957252E+03  1.250000000E+02  0.00000E+00  9.000E+00
      25     1     1     2     0     0  6.149471754E+01  4.000555876E+02  3.999996176E+02  5.826240362E+02  1.250000000E+02  0.00000E+00  9.000E+00
       2     1     1     2   502     0 -7.270671578E+01 -5.784910287E+00 -2.121703558E+03  2.122956834E+03  5.285799584E-05  0.00000E+00  9.000E+00
#rwgt            1           1   2.6722178007980883E-002           9      180321           0
</event>
<event>
      5   9999  3.19816E-02  1.70847E+01 -1.00000E+00  1.72220E-01
      21    -1     0     0   502   501  0.000000000E+00  0.000000000E+00  3.230529978E+02  3.230529978E+02  0.000000000E+00  0.00000E+00  9.000E+00
      21    -1     0     0   501   511  0.000000000E+00  0.000000000E+00 -6.512830835E+02  6.512830835E+02  0.000000000E+00  0.00000E+00  9.000E+00
      25     1     1     2     0     0  1.754216279E+01  2.038419263E+02 -2.307936235E+01  2.408670077E+02  1.250000000E+02  0.00000E+00  9.000E+00
      25     1     1     2     0     0 -2.784419897E+01 -2.174710907E+02  1.395846242E+02  2.884056900E+02  1.250000000E+02  0.00000E+00  9.000E+00
      21     1     1     2   502   511  1.030203618E+01  1.362916440E+01 -4.447353475E+02  4.450633836E+02  7.629394531E-06  0.00000E+00  9.000E+00
#rwgt            1           1   2.3756791220443590E-002           9      180433           0
</event>
<event>
      5   9999  3.19816E-02  1.97033E+02 -1.00000E+00  1.11885E-01
      21    -1     0     0   502   501  0.000000000E+00  0.000000000E+00  1.393123041E+03  1.393123041E+03  0.000000000E+00  0.00000E+00  9.000E+00
      21    -1     0     0   501   512  0.000000000E+00  0.000000000E+00 -5.825971913E+02  5.825971913E+02  0.000000000E+00  0.00000E+00  9.000E+00
      25     1     1     2     0     0 -3.391037612E+01 -5.182803434E+02  8.854716473E+02  1.034141898E+03  1.250000000E+02  0.00000E+00  9.000E+00
      25     1     1     2     0     0  4.368544541E+01  7.150711558E+02 -1.259417496E+02  7.380525051E+02  1.250000000E+02  0.00000E+00  9.000E+00
      21     1     1     2   502   512 -9.775069298E+00 -1.967908123E+02  5.099595181E+01  2.035258286E+02  2.939421655E-06  0.00000E+00  9.000E+00
#rwgt            1           1   2.8237632560834332E-002           9      180708           0
</event>
<event>
      5   9999  3.19816E-02  3.14097E+02 -1.00000E+00  1.04948E-01
       3    -1     0     0   502     0  0.000000000E+00  0.000000000E+00  6.231536906E+02  6.231536906E+02  0.000000000E+00  0.00000E+00  9.000E+00
      21    -1     0     0   501   502  0.000000000E+00  0.000000000E+00 -5.854022546E+02  5.854022546E+02  0.000000000E+00  0.00000E+00  9.000E+00
      25     1     1     2     0     0  2.829201028E+02 -4.166928724E+02 -7.756248066E+01  5.247072259E+02  1.250000000E+02  0.00000E+00  9.000E+00
      25     1     1     2     0     0 -5.957670581E+01  1.958437378E+02  2.460659524E+02  3.436242227E+02  1.250000000E+02  0.00000E+00  9.000E+00
       3     1     1     2   501     0 -2.233433970E+02  2.208491346E+02 -1.307520357E+02  3.402244966E+02  2.697398305E-06  0.00000E+00  9.000E+00
#rwgt            1           1   2.8873579967892065E-002           9      180902           0
</event>
<event>
      5   9999  3.19816E-02  9.73294E+01 -1.00000E+00  1.24359E-01
      21    -1     0     0   502   501  0.000000000E+00  0.000000000E+00  2.096156843E+02  2.096156843E+02  0.000000000E+00  0.00000E+00  9.000E+00
      21    -1     0     0   501   511  0.000000000E+00  0.000000000E+00 -5.879036517E+02  5.879036517E+02  0.000000000E+00  0.00000E+00  9.000E+00
      25     1     1     2     0     0 -4.490269849E+01  1.938388035E+02 -4.168973364E+01  2.386477906E+02  1.250000000E+02  0.00000E+00  9.000E+00
      25     1     1     2     0     0  3.881471511E+00 -2.821013111E+02 -1.386662757E+02  3.383039337E+02  1.250000000E+02  0.00000E+00  9.000E+00
      21     1     1     2   502   511  4.102122698E+01  8.826250766E+01 -1.979319581E+02  2.205676117E+02  2.697398305E-06  0.00000E+00  9.000E+00
#rwgt            1           1   2.8182299503209534E-002           9      180962           0
</event>
<event>
      5   9999  3.19816E-02  1.06577E+01 -1.00000E+00  1.92613E-01
      21    -1     0     0   512   501  0.000000000E+00  0.000000000E+00  1.928727173E+03  1.928727173E+03  0.000000000E+00  0.00000E+00  9.000E+00
      21    -1     0     0   501   502  0.000000000E+00  0.000000000E+00 -5.083031109E+02  5.083031109E+02  0.000000000E+00  0.00000E+00  9.000E+00
      25     1     1     2     0     0 -8.225500438E+02 -2.236089773E+01  6.943284958E+02  1.083884516E+03  1.250000000E+02  0.00000E+00  9.000E+00
      25     1     1     2     0     0  8.288295456E+02  1.374964067E+01  2.470198634E+02  8.739515325E+02  1.250000000E+02  0.00000E+00  9.000E+00
      21     1     1     2   512   502 -6.279501846E+00  8.611257063E+00  4.790757028E+02  4.791942350E+02  5.394796609E-06  0.00000E+00  9.000E+00
#rwgt            1           1   3.4514972091874416E-002           9      181036           0
</event>
<event>
      5   9999  3.19816E-02  1.95086E+02 -1.00000E+00  1.12043E-01
      21    -1     0     0   511   501  0.000000000E+00  0.000000000E+00  1.414823203E+02  1.414823203E+02  0.000000000E+00  0.00000E+00  9.000E+00
      21    -1     0     0   501   502  0.000000000E+00  0.000000000E+00 -8.452395567E+02  8.452395567E+02  0.000000000E+00  0.00000E+00  9.000E+00
      25     1     1     2     0     0 -2.354072707E+02 -7.637403301E+01 -4.898137586E+02  5.628428681E+02  1.250000000E+02  0.00000E+00  9.000E+00
      25     1     1     2     0     0  4.038260279E+01  8.128054798E+01 -3.334488230E+01  1.580321590E+02  1.250000000E+02  0.00000E+00  9.000E+00
      21     1     1     2   511   502  1.950246679E+02 -4.906514971E+00 -1.805985955E+02  2.658468500E+02  4.672030912E-06  0.00000E+00  9.000E+00
#rwgt            1           1   2.7367194227158942E-002           9      181353           0
</event>
<event>
      5   9999  3.19816E-02  2.93461E+02 -1.00000E+00  1.05904E-01
      21    -1     0     0   502   501  0.000000000E+00  0.000000000E+00  1.557021325E+03  1.557021325E+03  0.000000000E+00  0.00000E+00  9.000E+00
      21    -1     0     0   512   502  0.000000000E+00  0.000000000E+00 -5.467566707E+02  5.467566707E+02  0.000000000E+00  0.00000E+00  9.000E+00
      25     1     1     2     0     0 -4.062996613E+02 -4.957104112E+02  2.910979555E+02  7.149624090E+02  1.250000000E+02  0.00000E+00  9.000E+00
      25     1     1     2     0     0  1.144117489E+02  4.653691787E+02  9.119087972E+02  1.037719218E+03  1.250000000E+02  0.00000E+00  9.000E+00
      21     1     1     2   512   501  2.918879123E+02  3.034123249E+01 -1.927420983E+02  3.510963689E+02  6.031565972E-06  0.00000E+00  9.000E+00
#rwgt            1           1   3.0925045507021461E-002           9      181414           0
</event>
<event>
      5   9999  3.19816E-02  6.96224E+01 -1.00000E+00  1.31340E-01
      21    -1     0     0   502   501  0.000000000E+00  0.000000000E+00  8.975228420E+01  8.975228420E+01  0.000000000E+00  0.00000E+00  9.000E+00
      21    -1     0     0   501   511  0.000000000E+00  0.000000000E+00 -1.307119162E+03  1.307119162E+03  0.000000000E+00  0.00000E+00  9.000E+00
      25     1     1     2     0     0  2.510174260E+02  3.777406152E+01 -5.757430323E+02  6.415151340E+02  1.250000000E+02  0.00000E+00  9.000E+00
      25     1     1     2     0     0 -2.789317892E+02 -1.015555008E+02 -4.663979801E+02  5.668055563E+02  1.250000000E+02  0.00000E+00  9.000E+00
      21     1     1     2   502   511  2.791436317E+01  6.378143927E+01 -1.752258657E+02  1.885507562E+02  1.907348633E-06  0.00000E+00  9.000E+00
#rwgt            1           1   2.8052815882457279E-002           9      181468           0
</event>
<event>
      5   9999  3.19816E-02  2.51345E+02 -1.00000E+00  1.08151E-01
      21    -1     0     0   502   501  0.000000000E+00  0.000000000E+00  7.718697871E+02  7.718697871E+02  0.000000000E+00  0.00000E+00  9.000E+00
      21    -1     0     0   501   512  0.000000000E+00  0.000000000E+00 -8.147183222E+02  8.147183222E+02  0.000000000E+00  0.00000E+00  9.000E+00
      25     1     1     2     0     0  3.098225020E+02 -3.403286150E+02 -1.974188498E+01  4.773136191E+02  1.250000000E+02  0.00000E+00  9.000E+00
      25     1     1     2     0     0 -2.285684914E+02  5.781771213E+02  2.986669297E+02  7.009702374E+02  1.250000000E+02  0.00000E+00  9.000E+00
      21     1     1     2   502   512 -8.125401060E+01 -2.378485063E+02 -3.217735798E+02  4.083042528E+02  9.344061824E-06  0.00000E+00  9.000E+00
#rwgt            2          11   3.5099619910806384E-003           9      181588           0
</event>
<event>
      5   9999  3.19816E-02  3.32256E+01 -1.00000E+00  1.50022E-01
      21    -1     0     0   502   501  0.000000000E+00  0.000000000E+00  9.855542847E+02  9.855542847E+02  0.000000000E+00  0.00000E+00  9.000E+00
      21    -1     0     0   501   511  0.000000000E+00  0.000000000E+00 -1.431280334E+02  1.431280334E+02  0.000000000E+00  0.00000E+00  9.000E+00
      25     1     1     2     0     0  2.600620417E+02 -8.692235240E+01  5.607402279E+02  6.365864938E+02  1.250000000E+02  0.00000E+00  9.000E+00
      25     1     1     2     0     0 -2.854453480E+02  6.548347489E+01  3.129572480E+02  4.464687797E+02  1.250000000E+02  0.00000E+00  9.000E+00
      21     1     1     2   502   511  2.538330627E+01  2.143887751E+01 -3.127122460E+01  4.562704455E+01  6.743495762E-07  0.00000E+00  9.000E+00
#rwgt            1           1   2.8766110257586935E-002           9      181623           0
</event>
<event>
      5   9999  3.19816E-02  7.34555E+01 -1.00000E+00  1.30170E-01
      21    -1     0     0   502   501  0.000000000E+00  0.000000000E+00  5.845081778E+02  5.845081778E+02  0.000000000E+00  0.00000E+00  9.000E+00
      21    -1     0     0   501   512  0.000000000E+00  0.000000000E+00 -2.013357321E+02  2.013357321E+02  0.000000000E+00  0.00000E+00  9.000E+00
      25     1     1     2     0     0  1.970807311E+01 -3.871903419E+01  4.778647595E+02  4.958500783E+02  1.250000000E+02  0.00000E+00  9.000E+00
      25     1     1     2     0     0  4.080325997E+01  8.036149083E+01  1.833921455E+01  1.551908568E+02  1.250000000E+02  0.00000E+00  9.000E+00
      21     1     1     2   502   512 -6.051133308E+01 -4.164245664E+01 -1.130315283E+02  1.348029748E+02  1.348699152E-06  0.00000E+00  9.000E+00
#rwgt            1           1   2.3160314520313363E-002           9      181725           0
</event>
<event>
      5   9999  3.19816E-02  1.00287E+02 -1.00000E+00  1.23772E-01
      21    -1     0     0   511   501  0.000000000E+00  0.000000000E+00  8.730437794E+02  8.730437794E+02  0.000000000E+00  0.00000E+00  9.000E+00
      21    -1     0     0   501   502  0.000000000E+00  0.000000000E+00 -1.144454367E+02  1.144454367E+02  0.000000000E+00  0.00000E+00  9.000E+00
      25     1     1     2     0     0 -6.735108133E+01  1.708354194E+02  6.472993604E+01  2.313782040E+02  1.250000000E+02  0.00000E+00  9.000E+00
      25     1     1     2     0     0  1.262612423E+02 -8.967480015E+01  4.912191380E+02  5.300044458E+02  1.250000000E+02  0.00000E+00  9.000E+00
      21     1     1     2   511   502 -5.891016097E+01 -8.116061926E+01  2.026492687E+02  2.261065663E+02  0.000000000E+00  0.00000E+00  9.000E+00
#rwgt            1           1   2.9974620710688658E-002           9      181828           0
</event>
<event>
      5   9999  3.19816E-02  8.89882E+01 -1.00000E+00  1.26151E-01
      21    -1     0     0   512   501  0.000000000E+00  0.000000000E+00  3.464388164E+02  3.464388164E+02  0.000000000E+00  0.00000E+00  9.000E+00
      21    -1     0     0   501   502  0.000000000E+00  0.000000000E+00 -2.057744767E+03  2.057744767E+03  0.000000000E+00  0.00000E+00  9.000E+00
      25     1     1     2     0     0  5.201309988E+02  4.262942197E+02 -2.813331084E+02  7.396190476E+02  1.250000000E+02  0.00000E+00  9.000E+00
      25     1     1     2     0     0 -5.023554903E+02 -3.390993880E+02 -1.447164178E+03  1.573930936E+03  1.250000000E+02  0.00000E+00  9.000E+00
      21     1     1     2   512   502 -1.777550850E+01 -8.719483168E+01  1.719133589E+01  9.063359975E+01  2.880822652E-06  0.00000E+00  9.000E+00
#rwgt            1           1   3.0764990614231161E-002           9      181874           0
</event>
<event>
      5   9999  3.19816E-02  5.55496E+01 -1.00000E+00  1.36517E-01
      21    -1     0     0   511   501  0.000000000E+00  0.000000000E+00  1.177789914E+02  1.177789914E+02  0.000000000E+00  0.00000E+00  9.000E+00
      21    -1     0     0   501   502  0.000000000E+00  0.000000000E+00 -1.386937695E+03  1.386937695E+03  0.000000000E+00  0.00000E+00  9.000E+00
      25     1     1     2     0     0 -1.643858802E+02  2.770925585E+02 -6.679011073E+02  7.520105669E+02  1.250000000E+02  0.00000E+00  9.000E+00
      25     1     1     2     0     0  1.681859903E+02 -3.325120720E+02 -5.568666355E+02  6.815983092E+02  1.250000000E+02  0.00000E+00  9.000E+00
      21     1     1     2   511   502 -3.800110093E+00  5.541951354E+01 -4.439096106E+01  7.110781069E+01  8.259061849E-07  0.00000E+00  9.000E+00
#rwgt            1           1   2.7835254327481060E-002           9      181986           0
</event>
<event>
      5   9999  3.19816E-02  1.28959E+02 -1.00000E+00  1.19056E-01
       2    -1     0     0   502     0  0.000000000E+00  0.000000000E+00  1.355693525E+02  1.355693525E+02  0.000000000E+00  0.00000E+00  9.000E+00
      21    -1     0     0   501   502  0.000000000E+00  0.000000000E+00 -6.338203583E+02  6.338203583E+02  0.000000000E+00  0.00000E+00  9.000E+00
      25     1     1     2     0     0  1.104020386E+02  1.609215823E+02 -1.249563124E+02  2.632934594E+02  1.250000000E+02  0.00000E+00  9.000E+00
      25     1     1     2     0     0 -1.005579260E+02 -3.233874006E+01 -3.329116683E+02  3.709620863E+02  1.250000000E+02  0.00000E+00  9.000E+00
       2     1     1     2   501     0 -9.844112635E+00 -1.285828422E+02 -4.038302516E+01  1.351341652E+02  1.261592536E-06  0.00000E+00  9.000E+00
#rwgt            1           1   2.6217785487411525E-002           9      182074           0
</event>
<event>
      5   9999  3.19816E-02  2.07774E+01 -1.00000E+00  1.65014E-01
      21    -1     0     0   511   501  0.000000000E+00  0.000000000E+00  1.478421320E+03  1.478421320E+03  0.000000000E+00  0.00000E+00  9.000E+00
      21    -1     0     0   501   502  0.000000000E+00  0.000000000E+00 -4.601418680E+02  4.601418680E+02  0.000000000E+00  0.00000E+00  9.000E+00
      25     1     1     2     0     0  6.347529760E+01  7.577263771E+02  3.187793285E+02  8.339206414E+02  1.250000000E+02  0.00000E+00  9.000E+00
      25     1     1     2     0     0 -4.679813978E+01 -7.701188319E+02  5.548745809E+02  9.585321495E+02  1.250000000E+02  0.00000E+00  9.000E+00
      21     1     1     2   511   502 -1.667715782E+01  1.239245485E+01  1.446255429E+02  1.461103972E+02  1.907348633E-06  0.00000E+00  9.000E+00
#rwgt            1           1   3.0696375801195889E-002           9      182117           0
</event>
<event>
      5   9999  3.19816E-02  1.11704E+02 -1.00000E+00  1.21704E-01
       1    -1     0     0   502     0  0.000000000E+00  0.000000000E+00  1.931640316E+03  1.931640316E+03  0.000000000E+00  0.00000E+00  9.000E+00
      21    -1     0     0   501   502  0.000000000E+00  0.000000000E+00 -3.113729842E+02  3.113729842E+02  0.000000000E+00  0.00000E+00  9.000E+00
      25     1     1     2     0     0 -5.213233733E+02  4.330659454E+01  2.793290419E+02  6.060554713E+02  1.250000000E+02  0.00000E+00  9.000E+00
      25     1     1     2     0     0  4.482841813E+02 -1.278232412E+02  2.560557018E+02  5.463396477E+02  1.250000000E+02  0.00000E+00  9.000E+00
       1     1     1     2   501     0  7.303919193E+01  8.451664666E+01  1.084882588E+03  1.090618181E+03  0.000000000E+00  0.00000E+00  9.000E+00
#rwgt            1           1   3.0195111516790576E-002           9      182361           0
</event>
<event>
      5   9999  3.19816E-02  8.41905E+01 -1.00000E+00  1.27285E-01
      21    -1     0     0   502   501  0.000000000E+00  0.000000000E+00  4.484149534E+01  4.484149534E+01  0.000000000E+00  0.00000E+00  9.000E+00
      21    -1     0     0   511   502  0.000000000E+00  0.000000000E+00 -9.231120637E+02  9.231120637E+02  0.000000000E+00  0.00000E+00  9.000E+00
      25     1     1     2     0     0 -3.309209556E+01  1.107159593E+02 -3.964637801E+02  4.314645285E+02  1.250000000E+02  0.00000E+00  9.000E+00
      25     1     1     2     0     0 -4.278520422E+01 -7.423761917E+01 -2.981703594E+02  3.344732590E+02  1.250000000E+02  0.00000E+00  9.000E+00
      21     1     1     2   511   501  7.587729977E+01 -3.647834009E+01 -1.836364289E+02  2.020157715E+02  2.697398305E-06  0.00000E+00  9.000E+00
#rwgt            1           1   7.1503681092051546E-002           9      182433           0
</event>
<event>
      5   9999  3.19816E-02  3.68395E+01 -1.00000E+00  1.47093E-01
      21    -1     0     0   502   501  0.000000000E+00  0.000000000E+00  1.888140633E+02  1.888140633E+02  0.000000000E+00  0.00000E+00  9.000E+00
      21    -1     0     0   501   512  0.000000000E+00  0.000000000E+00 -4.628465128E+02  4.628465128E+02  0.000000000E+00  0.00000E+00  9.000E+00
      25     1     1     2     0     0  7.070489268E+01  6.460569113E+01 -1.220534356E+02  1.992363379E+02  1.250000000E+02  0.00000E+00  9.000E+00
      25     1     1     2     0     0 -5.027300972E+01 -3.395139419E+01  1.165664208E+02  1.813637316E+02  1.250000000E+02  0.00000E+00  9.000E+00
      21     1     1     2   502   512 -2.043188296E+01 -3.065429695E+01 -2.685454347E+02  2.710605067E+02  3.814697266E-06  0.00000E+00  9.000E+00
#rwgt            1           1   2.8737145648581833E-002           9      182487           0
</event>
<event>
      5   9999  3.19816E-02  1.30682E+02 -1.00000E+00  1.18817E-01
      21    -1     0     0   502   501  0.000000000E+00  0.000000000E+00  5.324236964E+02  5.324236964E+02  0.000000000E+00  0.00000E+00  9.000E+00
      21    -1     0     0   501   511  0.000000000E+00  0.000000000E+00 -1.045276357E+03  1.045276357E+03  0.000000000E+00  0.00000E+00  9.000E+00
      25     1     1     2     0     0 -6.177675089E+02 -1.638365180E+02 -1.115645816E+01  6.513283091E+02  1.250000000E+02  0.00000E+00  9.000E+00
      25     1     1     2     0     0  4.927601266E+02  1.257456491E+02 -1.404213793E+02  5.421878589E+02  1.250000000E+02  0.00000E+00  9.000E+00
      21     1     1     2   502   511  1.250073823E+02  3.809086894E+01 -3.612748227E+02  3.841838849E+02  3.814697266E-06  0.00000E+00  9.000E+00
#rwgt            1           1   3.1764881183144404E-002           9      182559           0
</event>
<event>
      5   9999  3.19816E-02  1.25932E+02 -1.00000E+00  1.19485E-01
      21    -1     0     0   502   501  0.000000000E+00  0.000000000E+00  9.421706074E+02  9.421706074E+02  0.000000000E+00  0.00000E+00  9.000E+00
      21    -1     0     0   501   512  0.000000000E+00  0.000000000E+00 -3.156958523E+02  3.156958523E+02  0.000000000E+00  0.00000E+00  9.000E+00
      25     1     1     2     0     0 -3.427641215E+02 -2.412619373E+02  2.351536440E+02  4.966052775E+02  1.250000000E+02  0.00000E+00  9.000E+00
      25     1     1     2     0     0  2.726369735E+02  3.458618764E+02  4.314728377E+02  6.290827979E+02  1.250000000E+02  0.00000E+00  9.000E+00
      21     1     1     2   502   512  7.012714795E+01 -1.045999391E+02 -4.015172656E+01  1.321783844E+02  2.336015456E-06  0.00000E+00  9.000E+00
#rwgt            1           1   3.1615968382303086E-002           9      182612           0
</event>
<event>
      5   9999  3.19816E-02  4.52906E+02 -1.00000E+00  1.00088E-01
      21    -1     0     0   502   501  0.000000000E+00  0.000000000E+00  5.862215951E+02  5.862215951E+02  0.000000000E+00  0.00000E+00  9.000E+00
       2    -1     0     0   501     0  0.000000000E+00  0.000000000E+00 -1.244832248E+03  1.244832248E+03  0.000000000E+00  0.00000E+00  9.000E+00
      25     1     1     2     0     0 -4.325788840E+02 -3.252737126E+02 -2.165315776E+02  5.961865506E+02  1.250000000E+02  0.00000E+00  9.000E+00
      25     1     1     2     0     0  1.611634207E+02 -3.729708739E+01 -6.886540561E+02  7.191899122E+02  1.250000000E+02  0.00000E+00  9.000E+00
       2     1     1     2   502     0  2.714154633E+02  3.625708000E+02  2.465749812E+02  5.156773799E+02  7.136645101E-06  0.00000E+00  9.000E+00
#rwgt            2          13   2.5112653256204785E-004           9      182696           0
</event>
<event>
      5   9999  3.19816E-02  9.24124E+00 -1.00000E+00  1.99804E-01
      21    -1     0     0   502   501  0.000000000E+00  0.000000000E+00  3.624541175E+01  3.624541175E+01  0.000000000E+00  0.00000E+00  9.000E+00
      21    -1     0     0   501   511  0.000000000E+00  0.000000000E+00 -1.843065480E+03  1.843065480E+03  0.000000000E+00  0.00000E+00  9.000E+00
      25     1     1     2     0     0 -1.773414669E+02  4.385300826E+01 -4.498942971E+02  5.014009980E+02  1.250000000E+02  0.00000E+00  9.000E+00
      25     1     1     2     0     0  1.785242424E+02 -5.301824646E+01 -1.204544869E+03  1.225249028E+03  1.250000000E+02  0.00000E+00  9.000E+00
      21     1     1     2   502   511 -1.182775488E+00  9.165238194E+00 -1.523809016E+02  1.526608650E+02  1.907348633E-06  0.00000E+00  9.000E+00
#rwgt            1           1   1.3423519791759483E-002           9      182715           0
</event>
<event>
      5   9999  3.19816E-02  8.33442E+01 -1.00000E+00  1.27495E-01
      21    -1     0     0   502   501  0.000000000E+00  0.000000000E+00  2.377888742E+02  2.377888742E+02  0.000000000E+00  0.00000E+00  9.000E+00
      21    -1     0     0   512   502  0.000000000E+00  0.000000000E+00 -3.656330930E+02  3.656330930E+02  0.000000000E+00  0.00000E+00  9.000E+00
      25     1     1     2     0     0  1.248361142E+02 -1.521832493E+02 -1.073315989E+02  2.566882719E+02  1.250000000E+02  0.00000E+00  9.000E+00
      25     1     1     2     0     0 -6.014967736E+01  9.962925836E+01  1.017235550E+02  1.987879635E+02  1.250000000E+02  0.00000E+00  9.000E+00
      21     1     1     2   512   501 -6.468643688E+01  5.255399095E+01 -1.222361750E+02  1.479457318E+02  3.015782986E-06  0.00000E+00  9.000E+00
#rwgt            1           1   2.6740135895680566E-002           9      183011           0
</event>
<event>
      5   9999  3.19816E-02  1.78686E+02 -1.00000E+00  1.13459E-01
       1    -1     0     0   502     0  0.000000000E+00  0.000000000E+00  8.743825097E+02  8.743825097E+02  0.000000000E+00  0.00000E+00  9.000E+00
      21    -1     0     0   501   502  0.000000000E+00  0.000000000E+00 -7.696979372E+02  7.696979372E+02  0.000000000E+00  0.00000E+00  9.000E+00
      25     1     1     2     0     0 -4.773211376E+02  3.814012604E+02  2.154947129E+02  6.598222194E+02  1.250000000E+02  0.00000E+00  9.000E+00
      25     1     1     2     0     0  6.253039713E+02 -4.815493349E+02 -8.210197870E+01  8.032811173E+02  1.250000000E+02  0.00000E+00  9.000E+00
       1     1     1     2   501     0 -1.479828337E+02  1.001480744E+02 -2.870816173E+01  1.809771102E+02  3.932099939E-06  0.00000E+00  9.000E+00
#rwgt            1           1   3.2954149568575238E-002           9      183092           0
</event>
<event>
      5   9999  3.19816E-02  1.72855E+02 -1.00000E+00  1.14004E-01
      21    -1     0     0   502   501  0.000000000E+00  0.000000000E+00  3.806910338E+02  3.806910338E+02  0.000000000E+00  0.00000E+00  9.000E+00
       2    -1     0     0   501     0  0.000000000E+00  0.000000000E+00 -2.549646538E+03  2.549646538E+03  0.000000000E+00  0.00000E+00  9.000E+00
      25     1     1     2     0     0  5.417332011E+02  2.574020818E+02 -6.895992826E+02  9.224439622E+02  1.250000000E+02  0.00000E+00  9.000E+00
      25     1     1     2     0     0 -4.081680733E+02 -3.671254207E+02 -4.683197260E+01  5.649783042E+02  1.250000000E+02  0.00000E+00  9.000E+00
       2     1     1     2   502     0 -1.335651278E+02  1.097233390E+02 -1.432524249E+03  1.442915305E+03  0.000000000E+00  0.00000E+00  9.000E+00
#rwgt            1           1   2.7669588732293623E-002           9      183157           0
</event>
<event>
      5   9999  3.19816E-02  4.65306E+01 -1.00000E+00  1.40881E-01
      21    -1     0     0   502   501  0.000000000E+00  0.000000000E+00  7.333732968E+02  7.333732968E+02  0.000000000E+00  0.00000E+00  9.000E+00
      21    -1     0     0   511   502  0.000000000E+00  0.000000000E+00 -4.169588292E+02  4.169588292E+02  0.000000000E+00  0.00000E+00  9.000E+00
      25     1     1     2     0     0 -2.089395037E+02  1.363925432E+02  9.966059298E+01  2.963374358E+02  1.250000000E+02  0.00000E+00  9.000E+00
      25     1     1     2     0     0  1.747250961E+02 -1.048573138E+02  5.067403937E+02  5.602987971E+02  1.250000000E+02  0.00000E+00  9.000E+00
      21     1     1     2   511   501  3.421440762E+01 -3.153522934E+01 -2.899865191E+02  2.936958931E+02  3.814697266E-06  0.00000E+00  9.000E+00
#rwgt            1           1   2.8099334564955999E-002           9      183198           0
</event>
<event>
      5   9999  3.19816E-02  6.09736E+01 -1.00000E+00  1.34331E-01
      21    -1     0     0   502   501  0.000000000E+00  0.000000000E+00  3.026670205E+02  3.026670205E+02  0.000000000E+00  0.00000E+00  9.000E+00
      21    -1     0     0   512   502  0.000000000E+00  0.000000000E+00 -1.647634586E+03  1.647634586E+03  0.000000000E+00  0.00000E+00  9.000E+00
      25     1     1     2     0     0 -3.485812693E+02  5.156251413E+02 -5.973966082E+02  8.717143426E+02  1.250000000E+02  0.00000E+00  9.000E+00
      25     1     1     2     0     0  2.913983630E+02 -4.944615795E+02 -3.658103386E+02  6.919880515E+02  1.250000000E+02  0.00000E+00  9.000E+00
      21     1     1     2   512   501  5.718290628E+01 -2.116356174E+01 -3.817606191E+02  3.865992129E+02  0.000000000E+00  0.00000E+00  9.000E+00
#rwgt            1           1   3.0357917064601617E-002           9      183366           0
</event>
<event>
      5   9999  3.19816E-02  3.98774E+01 -1.00000E+00  1.44923E-01
      21    -1     0     0   502   511  0.000000000E+00  0.000000000E+00  1.076271448E+03  1.076271448E+03  0.000000000E+00  0.00000E+00  9.000E+00
      21    -1     0     0   501   502  0.000000000E+00  0.000000000E+00 -1.925051515E+02  1.925051515E+02  0.000000000E+00  0.00000E+00  9.000E+00
      25     1     1     2     0     0 -1.302788431E+02  1.919016585E+02  1.327468382E+02  2.950348226E+02  1.250000000E+02  0.00000E+00  9.000E+00
      25     1     1     2     0     0  1.683889797E+02 -2.036414413E+02  8.209104610E+01  3.036257976E+02  1.250000000E+02  0.00000E+00  9.000E+00
      21     1     1     2   501   511 -3.811013660E+01  1.173978282E+01  6.689284122E+02  6.701159793E+02  1.078959322E-05  0.00000E+00  9.000E+00
#rwgt            1           1   3.0015395602708467E-002           9      183497           0
</event>
<event>
      5   9999  3.19816E-02  7.06080E+01 -1.00000E+00  1.31031E-01
      21    -1     0     0   502   501  0.000000000E+00  0.000000000E+00  1.867303583E+02  1.867303583E+02  0.000000000E+00  0.00000E+00  9.000E+00
      -2    -1     0     0     0   502  0.000000000E+00  0.000000000E+00 -8.400264900E+02  8.400264900E+02  0.000000000E+00  0.00000E+00  9.000E+00
      25     1     1     2     0     0 -1.043213615E+02  5.363664851E+01  1.084302230E+02  2.028347845E+02  1.250000000E+02  0.00000E+00  9.000E+00
      25     1     1     2     0     0  6.543250015E+01  5.296730933E+00 -1.422099644E+02  2.003949635E+02  1.250000000E+02  0.00000E+00  9.000E+00
      -2     1     1     2     0   501  3.888886139E+01 -5.893337944E+01 -6.195163904E+02  6.235271002E+02  1.078959322E-05  0.00000E+00  9.000E+00
#rwgt            1           1   2.9245565567672129E-002           9      183545           0
</event>
<event>
      5   9999  3.19816E-02  1.08831E+02 -1.00000E+00  1.22197E-01
      21    -1     0     0   502   511  0.000000000E+00  0.000000000E+00  2.945586319E+02  2.945586319E+02  0.000000000E+00  0.00000E+00  9.000E+00
      21    -1     0     0   501   502  0.000000000E+00  0.000000000E+00 -4.051648461E+02  4.051648461E+02  0.000000000E+00  0.00000E+00  9.000E+00
      25     1     1     2     0     0 -4.017033575E+01 -2.596569507E+02 -2.106926484E+02  3.592377764E+02  1.250000000E+02  0.00000E+00  9.000E+00
      25     1     1     2     0     0 -4.501208329E+00  1.604164110E+02  1.099104273E+02  2.312119976E+02  1.250000000E+02  0.00000E+00  9.000E+00
      21     1     1     2   501   511  4.467154408E+01  9.924053962E+01 -9.823993131E+00  1.092737040E+02  1.955177720E-06  0.00000E+00  9.000E+00
#rwgt            1           1   3.2139879897137472E-002           9      183632           0
</event>
<event>
      5   9999  3.19816E-02  2.50657E+01 -1.00000E+00  1.58666E-01
      21    -1     0     0   512   501  0.000000000E+00  0.000000000E+00  3.194507654E+02  3.194507654E+02  0.000000000E+00  0.00000E+00  9.000E+00
      21    -1     0     0   501   502  0.000000000E+00  0.000000000E+00 -3.147217540E+02  3.147217540E+02  0.000000000E+00  0.00000E+00  9.000E+00
      25     1     1     2     0     0 -1.554305300E+02 -1.189942345E+02  1.837823297E+02  2.961743105E+02  1.250000000E+02  0.00000E+00  9.000E+00
      25     1     1     2     0     0  1.656295076E+02  1.418912250E+02 -1.851463572E+02  3.122025418E+02  1.250000000E+02  0.00000E+00  9.000E+00
      21     1     1     2   512   502 -1.019897763E+01 -2.289699051E+01  6.093038962E+00  2.579566713E+01  2.230201594E-07  0.00000E+00  9.000E+00
#rwgt            1           1   2.7714030957289328E-002           9      183685           0
</event>
<event>
      5   9999  3.19816E-02  4.56691E+02 -1.00000E+00  9.99828E-02
       1    -1     0     0   502     0  0.000000000E+00  0.000000000E+00  1.442211891E+03  1.442211891E+03  0.000000000E+00  0.00000E+00  9.000E+00
      21    -1     0     0   501   502  0.000000000E+00  0.000000000E+00 -3.547289040E+02  3.547289040E+02  0.000000000E+00  0.00000E+00  9.000E+00
      25     1     1     2     0     0 -4.939182876E+01  4.143524119E+02  3.332251839E+02  5.484446163E+02  1.250000000E+02  0.00000E+00  9.000E+00
      25     1     1     2     0     0  3.956697552E+02 -1.165976326E+02  8.666689506E+01  4.396427115E+02  1.250000000E+02  0.00000E+00  9.000E+00
       1     1     1     2   501     0 -3.462779264E+02 -2.977547793E+02  6.675909081E+02  8.088534673E+02  1.078959322E-05  0.00000E+00  9.000E+00
#rwgt            2          17   5.1694041601402024E-004           9      183931           0
</event>
<event>
      5   9999  3.19816E-02  2.61967E+01 -1.00000E+00  1.57245E-01
      21    -1     0     0   502   501  0.000000000E+00  0.000000000E+00  1.182279487E+03  1.182279487E+03  0.000000000E+00  0.00000E+00  9.000E+00
      21    -1     0     0   511   502  0.000000000E+00  0.000000000E+00 -1.713650105E+03  1.713650105E+03  0.000000000E+00  0.00000E+00  9.000E+00
      25     1     1     2     0     0  8.148755641E+02 -8.407412551E+02 -8.073901998E+02  1.427715650E+03  1.250000000E+02  0.00000E+00  9.000E+00
      25     1     1     2     0     0 -7.940258564E+02  8.248806916E+02  4.907114712E+02  1.251929696E+03  1.250000000E+02  0.00000E+00  9.000E+00
      21     1     1     2   511   501 -2.084970772E+01  1.586056352E+01 -2.146918891E+02  2.162842459E+02  2.697398305E-06  0.00000E+00  9.000E+00
#rwgt            1           1   6.0750802353177952E-002           9      183950           0
</event>
<event>
      5   9999  3.19816E-02  1.59530E+01 -1.00000E+00  1.74900E-01
      21    -1     0     0   502   501  0.000000000E+00  0.000000000E+00  1.265796640E+03  1.265796640E+03  0.000000000E+00  0.00000E+00  9.000E+00
      -1    -1     0     0     0   502  0.000000000E+00  0.000000000E+00 -4.337548510E+02  4.337548510E+02  0.000000000E+00  0.00000E+00  9.000E+00
      25     1     1     2     0     0 -3.736930257E+02 -4.138359318E+02  5.461783066E+02  7.904697328E+02  1.250000000E+02  0.00000E+00  9.000E+00
      25     1     1     2     0     0  3.697491229E+02  4.292937502E+02  4.561549798E+02  7.380446487E+02  1.250000000E+02  0.00000E+00  9.000E+00
      -1     1     1     2     0   501  3.943902857E+00 -1.545781841E+01 -1.702914977E+02  1.710371092E+02  0.000000000E+00  0.00000E+00  9.000E+00
#rwgt            1           1   2.4888007631233007E-002           9      184167           0
</event>
<event>
      5   9999  3.19816E-02  2.11251E+02 -1.00000E+00  1.10790E-01
      21    -1     0     0   502   501  0.000000000E+00  0.000000000E+00  2.396046417E+02  2.396046417E+02  0.000000000E+00  0.00000E+00  9.000E+00
      21    -1     0     0   501   511  0.000000000E+00  0.000000000E+00 -2.245167626E+03  2.245167626E+03  0.000000000E+00  0.00000E+00  9.000E+00
      25     1     1     2     0     0  9.541762825E+01 -9.847754287E+01  5.910352507E+01  1.947320644E+02  1.250000000E+02  0.00000E+00  9.000E+00
      25     1     1     2     0     0 -2.216552084E+02  2.678620707E+02 -2.132147118E+02  4.265754724E+02  1.250000000E+02  0.00000E+00  9.000E+00
      21     1     1     2   502   511  1.262375801E+02 -1.693845278E+02 -1.851451798E+03  1.863464731E+03  3.051757812E-05  0.00000E+00  9.000E+00
#rwgt            1           1   2.6163799220306178E-002           9      184406           0
</event>
<event>
      5   9999  3.19816E-02  1.49928E+02 -1.00000E+00  1.16402E-01
      21    -1     0     0   502   501  0.000000000E+00  0.000000000E+00  7.672939495E+01  7.672939495E+01  0.000000000E+00  0.00000E+00  9.000E+00
      21    -1     0     0   501   512  0.000000000E+00  0.000000000E+00 -3.263912098E+03  3.263912098E+03  0.000000000E+00  0.00000E+00  9.000E+00
      25     1     1     2     0     0 -2.299455128E+02  3.336049431E+02 -7.914238778E+02  8.978551950E+02  1.250000000E+02  0.00000E+00  9.000E+00
      25     1     1     2     0     0  9.249313605E+01 -2.737279543E+02 -1.342945190E+03  1.379350846E+03  1.250000000E+02  0.00000E+00  9.000E+00
      21     1     1     2   502   512  1.374523767E+02 -5.987698882E+01 -1.052813635E+03  1.063435452E+03  1.525878906E-05  0.00000E+00  9.000E+00
#rwgt            1           1   2.2854895538820395E-002           9      184456           0
</event>
<event>
      5   9999  3.19816E-02  1.23922E+02 -1.00000E+00  1.19778E-01
       1    -1     0     0   502     0  0.000000000E+00  0.000000000E+00  6.615049756E+02  6.615049756E+02  0.000000000E+00  0.00000E+00  9.000E+00
      21    -1     0     0   501   502  0.000000000E+00  0.000000000E+00 -2.543862368E+03  2.543862368E+03  0.000000000E+00  0.00000E+00  9.000E+00
      25     1     1     2     0     0 -1.820132346E+02  6.069813280E+02 -2.196558301E+03  2.289552034E+03  1.250000000E+02  0.00000E+00  9.000E+00
      25     1     1     2     0     0  2.921949912E+02 -6.636957868E+02  2.584500809E+02  7.799304166E+02  1.250000000E+02  0.00000E+00  9.000E+00
       1     1     1     2   501     0 -1.101817567E+02  5.671445882E+01  5.575082722E+01  1.358848928E+02  1.507891493E-06  0.00000E+00  9.000E+00
#rwgt            1           1   6.6990158568417640E-002           9      184504           0
</event>
<event>
      5   9999  3.19816E-02  5.69937E+01 -1.00000E+00  1.35907E-01
       2    -1     0     0   502     0  0.000000000E+00  0.000000000E+00  2.619610747E+03  2.619610747E+03  0.000000000E+00  0.00000E+00  9.000E+00
      21    -1     0     0   501   502  0.000000000E+00  0.000000000E+00 -4.141465792E+01  4.141465792E+01  0.000000000E+00  0.00000E+00  9.000E+00
      25     1     1     2     0     0  2.001329674E+02  1.272682620E+01  8.654328258E+02  8.971143477E+02  1.250000000E+02  0.00000E+00  9.000E+00
      25     1     1     2     0     0 -2.201563576E+02 -6.608734383E+01  6.653590810E+02  7.149573872E+02  1.250000000E+02  0.00000E+00  9.000E+00
       2     1     1     2   501     0  2.002339023E+01  5.336051763E+01  1.047404182E+03  1.048953670E+03  0.000000000E+00  0.00000E+00  9.000E+00
#rwgt            2          18   5.9863211397010254E-004           9      184593           0
</event>
<event>
      5   9999  3.19816E-02  1.20728E+02 -1.00000E+00  1.20257E-01
      21    -1     0     0   502   501  0.000000000E+00  0.000000000E+00  4.317631007E+02  4.317631007E+02  0.000000000E+00  0.00000E+00  9.000E+00
      21    -1     0     0   501   511  0.000000000E+00  0.000000000E+00 -4.199819978E+02  4.199819978E+02  0.000000000E+00  0.00000E+00  9.000E+00
      25     1     1     2     0     0  2.529603740E+02 -1.131568314E+02  2.762916845E+02  4.107986298E+02  1.250000000E+02  0.00000E+00  9.000E+00
      25     1     1     2     0     0 -1.493842654E+02  5.113032906E+01 -7.230403088E+01  2.139692552E+02  1.250000000E+02  0.00000E+00  9.000E+00
      21     1     1     2   502   511 -1.035761086E+02  6.202650231E+01 -1.922065507E+02  2.269772134E+02  0.000000000E+00  0.00000E+00  9.000E+00
#rwgt            1           1   2.6787837915658062E-002           9      184612           0
</event>
<event>
      5   9999  3.19816E-02  2.22488E+02 -1.00000E+00  1.09989E-01
       2    -1     0     0   502     0  0.000000000E+00  0.000000000E+00  2.937113332E+03  2.937113332E+03  0.000000000E+00  0.00000E+00  9.000E+00
      21    -1     0     0   501   502  0.000000000E+00  0.000000000E+00 -6.335442091E+02  6.335442091E+02  0.000000000E+00  0.00000E+00  9.000E+00
      25     1     1     2     0     0  1.933167299E+02 -7.729600389E+02  5.738748617E+02  9.898464208E+02  1.250000000E+02  0.00000E+00  9.000E+00
      25     1     1     2     0     0 -1.470677787E+02  9.905884267E+02  1.922668313E+02  1.027368433E+03  1.250000000E+02  0.00000E+00  9.000E+00
       2     1     1     2   501     0 -4.624895120E+01 -2.176283877E+02  1.537427430E+03  1.553442687E+03  2.157918644E-05  0.00000E+00  9.000E+00
#rwgt            2          18   2.1934133169600636E-003           9      184692           0
</event>
<event>
      5   9999  3.19816E-02  2.57224E+01 -1.00000E+00  1.57830E-01
       1    -1     0     0   502     0  0.000000000E+00  0.000000000E+00  1.973884770E+03  1.973884770E+03  0.000000000E+00  0.00000E+00  9.000E+00
      21    -1     0     0   501   502  0.000000000E+00  0.000000000E+00 -5.081753031E+02  5.081753031E+02  0.000000000E+00  0.00000E+00  9.000E+00
      25     1     1     2     0     0 -2.441915744E+02  1.247085765E+02 -3.749138359E+02  4.810063808E+02  1.250000000E+02  0.00000E+00  9.000E+00
      25     1     1     2     0     0  2.528548844E+02 -1.004889952E+02  1.996687327E+02  3.598975320E+02  1.250000000E+02  0.00000E+00  9.000E+00
       1     1     1     2   501     0 -8.663310041E+00 -2.421958127E+01  1.640954570E+03  1.641156160E+03  2.157918644E-05  0.00000E+00  9.000E+00
#rwgt            1           1   2.8279783518825801E-002           9      184756           0
</event>
<event>
      5   9999  3.19816E-02  7.18938E+01 -1.00000E+00  1.30636E-01
      21    -1     0     0   502   511  0.000000000E+00  0.000000000E+00  2.118059195E+03  2.118059195E+03  0.000000000E+00  0.00000E+00  9.000E+00
      21    -1     0     0   501   502  0.000000000E+00  0.000000000E+00 -1.656267596E+03  1.656267596E+03  0.000000000E+00  0.00000E+00  9.000E+00
      25     1     1     2     0     0 -4.587521346E-02  2.291830440E+02 -1.019021418E+03  1.051928952E+03  1.250000000E+02  0.00000E+00  9.000E+00
      25     1     1     2     0     0  4.710778617E+00 -3.009253545E+02 -5.773522535E+02  6.629772885E+02  1.250000000E+02  0.00000E+00  9.000E+00
      21     1     1     2   501   511 -4.664903404E+00  7.174231052E+01  2.058165271E+03  2.059420550E+03  3.051757812E-05  0.00000E+00  9.000E+00
#rwgt            1           1   2.8079357667261509E-002           9      184907           0
</event>
<event>
      5   9999  3.19816E-02  2.09520E+02 -1.00000E+00  1.10918E-01
      21    -1     0     0   502   501  0.000000000E+00  0.000000000E+00  4.258657607E+02  4.258657607E+02  0.000000000E+00  0.00000E+00  9.000E+00
      21    -1     0     0   501   512  0.000000000E+00  0.000000000E+00 -5.905966425E+02  5.905966425E+02  0.000000000E+00  0.00000E+00  9.000E+00
      25     1     1     2     0     0 -6.614809170E+00 -3.218049259E+02 -1.781486245E+02  3.885409868E+02  1.250000000E+02  0.00000E+00  9.000E+00
      25     1     1     2     0     0 -2.029041583E+02  3.212608112E+02  8.030150507E+01  4.079852178E+02  1.250000000E+02  0.00000E+00  9.000E+00
      21     1     1     2   502   512  2.095189674E+02  5.441147385E-01 -6.688376232E+01  2.199361986E+02  4.046097457E-06  0.00000E+00  9.000E+00
#rwgt            1           1   2.6589253944756711E-002           9      184994           0
</event>
<event>
      5   9999  3.19816E-02  5.03510E+01 -1.00000E+00  1.38902E-01
      21    -1     0     0   502   501  0.000000000E+00  0.000000000E+00  3.011318852E+02  3.011318852E+02  0.000000000E+00  0.00000E+00  9.000E+00
      21    -1     0     0   501   511  0.000000000E+00  0.000000000E+00 -1.986122314E+03  1.986122314E+03  0.000000000E+00  0.00000E+00  9.000E+00
      25     1     1     2     0     0  4.533293853E+01 -6.278401292E+02 -1.391184954E+03  1.532076656E+03  1.250000000E+02  0.00000E+00  9.000E+00
      25     1     1     2     0     0 -5.636323962E+01  5.787121400E+02 -1.654800403E+02  6.173274654E+02  1.250000000E+02  0.00000E+00  9.000E+00
      21     1     1     2   502   511  1.103030109E+01  4.912798924E+01 -1.283254342E+02  1.378500777E+02  1.907348633E-06  0.00000E+00  9.000E+00
#rwgt            1           1   2.7843968062583220E-002           9      185088           0
</event>
<event>
      5   9999  3.19816E-02  1.10590E+02 -1.00000E+00  1.21893E-01
      21    -1     0     0   502   512  0.000000000E+00  0.000000000E+00  1.159912188E+03  1.159912188E+03  0.000000000E+00  0.00000E+00  9.000E+00
      21    -1     0     0   501   502  0.000000000E+00  0.000000000E+00 -4.290918098E+02  4.290918098E+02  0.000000000E+00  0.00000E+00  9.000E+00
      25     1     1     2     0     0 -1.027461696E+02  2.668648869E+02 -2.631344100E+02  4.082136217E+02  1.250000000E+02  0.00000E+00  9.000E+00
      25     1     1     2     0     0  7.793778516E+00 -2.101714635E+02  7.598985412E+01  2.561879095E+02  1.250000000E+02  0.00000E+00  9.000E+00
      21     1     1     2   501   512  9.495239111E+01 -5.669342339E+01  9.179649338E+02  9.246024663E+02  1.525878906E-05  0.00000E+00  9.000E+00
#rwgt            1           1   2.8064467525370600E-002           9      185229           0
</event>
<event>
      5   9999  3.19816E-02  7.11512E+01 -1.00000E+00  1.30863E-01
      21    -1     0     0   502   501  0.000000000E+00  0.000000000E+00  1.411130874E+02  1.411130874E+02  0.000000000E+00  0.00000E+00  9.000E+00
      21    -1     0     0   501   511  0.000000000E+00  0.000000000E+00 -1.488177423E+03  1.488177423E+03  0.000000000E+00  0.00000E+00  9.000E+00
      25     1     1     2     0     0 -1.259965522E+02 -5.957100478E+01 -1.214241521E+03  1.228589153E+03  1.250000000E+02  0.00000E+00  9.000E+00
      25     1     1     2     0     0  1.549256913E+02 -5.433579156E+00  4.931894791E+01  2.051556780E+02  1.250000000E+02  0.00000E+00  9.000E+00
      21     1     1     2   502   511 -2.892913903E+01  6.500458394E+01 -1.821417621E+02  1.955456788E+02  3.814697266E-06  0.00000E+00  9.000E+00
#rwgt            2          11   3.4837196789499255E-003           9      185435           0
</event>
<event>
      5   9999  3.19816E-02  2.26739E+01 -1.00000E+00  1.61995E-01
      21    -1     0     0   502   501  0.000000000E+00  0.000000000E+00  2.011526334E+02  2.011526334E+02  0.000000000E+00  0.00000E+00  9.000E+00
      21    -1     0     0   512   502  0.000000000E+00  0.000000000E+00 -9.002626860E+02  9.002626860E+02  0.000000000E+00  0.00000E+00  9.000E+00
      25     1     1     2     0     0 -1.570321843E+02  3.168466696E+01  1.025402342E+02  2.276016798E+02  1.250000000E+02  0.00000E+00  9.000E+00
      25     1     1     2     0     0  1.792584616E+02 -2.720130571E+01 -3.026231775E+02  3.742716856E+02  1.250000000E+02  0.00000E+00  9.000E+00
      21     1     1     2   512   501 -2.222627732E+01 -4.483361245E+00 -4.990271093E+02  4.995419540E+02  5.394796609E-06  0.00000E+00  9.000E+00
#rwgt            1           1   2.7743336974720232E-002           9      185455           0
</event>
<event>
      5   9999  3.19816E-02  7.67721E+01 -1.00000E+00  1.29221E-01
      21    -1     0     0   502   501  0.000000000E+00  0.000000000E+00  5.372211548E+02  5.372211548E+02  0.000000000E+00  0.00000E+00  9.000E+00
      21    -1     0     0   511   502  0.000000000E+00  0.000000000E+00 -2.000029585E+03  2.000029585E+03  0.000000000E+00  0.00000E+00  9.000E+00
      25     1     1     2     0     0 -6.698340816E+02 -5.207717742E+02 -1.305779179E+02  8.675001615E+02  1.250000000E+02  0.00000E+00  9.000E+00
      25     1     1     2     0     0  7.431099537E+02  4.978675735E+02 -1.089534679E+03  1.415201520E+03  1.250000000E+02  0.00000E+00  9.000E+00
      21     1     1     2   511   501 -7.327587212E+01  2.290420068E+01 -2.426958326E+02  2.545490581E+02  2.697398305E-06  0.00000E+00  9.000E+00
#rwgt            1           1   3.4700761679933710E-002           9      185583           0
</event>
<event>
      5   9999  3.19816E-02  1.10282E+02 -1.00000E+00  1.21946E-01
      21    -1     0     0   502   501  0.000000000E+00  0.000000000E+00  3.399456685E+02  3.399456685E+02  0.000000000E+00  0.00000E+00  9.000E+00
      21    -1     0     0   512   502  0.000000000E+00  0.000000000E+00 -3.741616387E+02  3.741616387E+02  0.000000000E+00  0.00000E+00  9.000E+00
      25     1     1     2     0     0 -1.384581993E+02  1.711909617E+02  3.056061133E+01  2.550215074E+02  1.250000000E+02  0.00000E+00  9.000E+00
      25     1     1     2     0     0  2.477204260E+02 -1.861571213E+02 -6.152146658E+00  3.341896650E+02  1.250000000E+02  0.00000E+00  9.000E+00
      21     1     1     2   512   501 -1.092622268E+02  1.496615963E+01 -5.862443485E+01  1.248961348E+02  6.743495762E-07  0.00000E+00  9.000E+00
#rwgt            1           1   2.7932392942526123E-002           9      185659           0
</event>
<event>
      5   9999  3.19816E-02  1.83880E+01 -1.00000E+00  1.69438E-01
      21    -1     0     0   502   511  0.000000000E+00  0.000000000E+00  5.538517327E+02  5.538517327E+02  0.000000000E+00  0.00000E+00  9.000E+00
      21    -1     0     0   501   502  0.000000000E+00  0.000000000E+00 -1.472052726E+02  1.472052726E+02  0.000000000E+00  0.00000E+00  9.000E+00
      25     1     1     2     0     0  4.730574422E+01  2.238705445E+02  2.352873590E+02  3.511993671E+02  1.250000000E+02  0.00000E+00  9.000E+00
      25     1     1     2     0     0 -3.444300883E+01 -2.107301799E+02  8.508352330E+01  2.616442919E+02  1.250000000E+02  0.00000E+00  9.000E+00
      21     1     1     2   501   511 -1.286273538E+01 -1.314036462E+01  8.627557775E+01  8.821334627E+01  0.000000000E+00  0.00000E+00  9.000E+00
#rwgt            1           1   2.6894015882935617E-002           9      185719           0
</event>
<event>
      5   9999  3.19816E-02  5.47615E+02 -1.00000E+00  9.77425E-02
      21    -1     0     0   502   501  0.000000000E+00  0.000000000E+00  7.470569670E+02  7.470569670E+02  0.000000000E+00  0.00000E+00  9.000E+00
       2    -1     0     0   501     0  0.000000000E+00  0.000000000E+00 -9.925816563E+02  9.925816563E+02  0.000000000E+00  0.00000E+00  9.000E+00
      25     1     1     2     0     0  1.009387522E+02  1.725339411E+01 -1.320811519E+02  2.087025203E+02  1.250000000E+02  0.00000E+00  9.000E+00
      25     1     1     2     0     0 -1.545481535E+02  5.277313142E+02 -5.818767653E+02  8.103030555E+02  1.250000000E+02  0.00000E+00  9.000E+00
       2     1     1     2   502     0  5.360940133E+01 -5.449847083E+02  4.684332279E+02  7.206330475E+02  5.394796609E-06  0.00000E+00  9.000E+00
#rwgt            2          13   2.6524406438512417E-004           9      185942           0
</event>
<event>
      5   9999  3.19816E-02  3.94289E+01 -1.00000E+00  1.45229E-01
       2    -1     0     0   502     0  0.000000000E+00  0.000000000E+00  3.693761696E+02  3.693761696E+02  0.000000000E+00  0.00000E+00  9.000E+00
      21    -1     0     0   501   502  0.000000000E+00  0.000000000E+00 -3.504996296E+02  3.504996296E+02  0.000000000E+00  0.00000E+00  9.000E+00
      25     1     1     2     0     0 -1.807662876E+02  7.389179143E+01  2.287265305E+02  3.256950618E+02  1.250000000E+02  0.00000E+00  9.000E+00
      25     1     1     2     0     0  1.649731926E+02 -1.100195812E+02 -2.466355213E+02  3.402565839E+02  1.250000000E+02  0.00000E+00  9.000E+00
       2     1     1     2   501     0  1.579309495E+01  3.612778977E+01  3.678553081E+01  5.392415339E+01  8.259061849E-07  0.00000E+00  9.000E+00
#rwgt            1           1   2.8560589080050856E-002           9      185961           0
</event>
<event>
      5   9999  3.19816E-02  3.80548E+01 -1.00000E+00  1.46196E-01
      21    -1     0     0   511   501  0.000000000E+00  0.000000000E+00  4.276752137E+02  4.276752137E+02  0.000000000E+00  0.00000E+00  9.000E+00
      21    -1     0     0   501   502  0.000000000E+00  0.000000000E+00 -1.068855909E+02  1.068855909E+02  0.000000000E+00  0.00000E+00  9.000E+00
      25     1     1     2     0     0  8.162237217E+00  7.699776722E+01  1.186948035E+01  1.475166527E+02  1.250000000E+02  0.00000E+00  9.000E+00
      25     1     1     2     0     0  2.988597491E+01 -7.628985786E+01  1.127547362E+02  1.872216452E+02  1.250000000E+02  0.00000E+00  9.000E+00
      21     1     1     2   511   502 -3.804821213E+01 -7.079093577E-01  1.961654062E+02  1.998225066E+02  0.000000000E+00  0.00000E+00  9.000E+00
#rwgt            1           1   6.6592287481884185E-002           9      186079           0
</event>
<event>
      5   9999  3.19816E-02  9.55426E+01 -1.00000E+00  1.24725E-01
      21    -1     0     0   502   501  0.000000000E+00  0.000000000E+00  2.138308494E+02  2.138308494E+02  0.000000000E+00  0.00000E+00  9.000E+00
      21    -1     0     0   512   502  0.000000000E+00  0.000000000E+00 -2.428927114E+02  2.428927114E+02  0.000000000E+00  0.00000E+00  9.000E+00
      25     1     1     2     0     0 -7.581388689E+01 -1.971887996E+01 -1.051630924E+01  1.478924353E+02  1.250000000E+02  0.00000E+00  9.000E+00
      25     1     1     2     0     0  1.518321959E+02  7.759461683E+01  4.337802679E-01  2.114216839E+02  1.250000000E+02  0.00000E+00  9.000E+00
      21     1     1     2   512   501 -7.601830897E+01 -5.787573686E+01 -1.897933307E+01  9.740944153E+01  1.922192037E-06  0.00000E+00  9.000E+00
#rwgt            1           1   2.7716048473200135E-002           9      186184           0
</event>
<event>
      5   9999  3.19816E-02  2.26644E+02 -1.00000E+00  1.09706E-01
      21    -1     0     0   511   501  0.000000000E+00  0.000000000E+00  3.508699184E+02  3.508699184E+02  0.000000000E+00  0.00000E+00  9.000E+00
      21    -1     0     0   501   502  0.000000000E+00  0.000000000E+00 -1.187233638E+03  1.187233638E+03  0.000000000E+00  0.00000E+00  9.000E+00
      25     1     1     2     0     0  3.028463698E+02  3.599781072E+01  7.968596771E+01  3.390967701E+02  1.250000000E+02  0.00000E+00  9.000E+00
      25     1     1     2     0     0 -2.968230490E+02  1.905657079E+02 -8.965601391E+02  9.715267852E+02  1.250000000E+02  0.00000E+00  9.000E+00
      21     1     1     2   511   502 -6.023320837E+00 -2.265635186E+02 -1.948954822E+01  2.274800009E+02  2.707914517E-06  0.00000E+00  9.000E+00
#rwgt            1           1   2.6693811416949306E-002           9      186212           0
</event>
<event>
      5   9999  3.19816E-02  3.98671E+01 -1.00000E+00  1.44930E-01
      21    -1     0     0   502   512  0.000000000E+00  0.000000000E+00  5.089116563E+02  5.089116563E+02  0.000000000E+00  0.00000E+00  9.000E+00
      21    -1     0     0   501   502  0.000000000E+00  0.000000000E+00 -7.797177831E+02  7.797177831E+02  0.000000000E+00  0.00000E+00  9.000E+00
      25     1     1     2     0     0  1.998778660E+02  4.419084923E+02 -4.331817628E+02  6.621976416E+02  1.250000000E+02  0.00000E+00  9.000E+00
      25     1     1     2     0     0 -1.606042021E+02 -4.487614622E+02  3.616966461E+01  4.940787431E+02  1.250000000E+02  0.00000E+00  9.000E+00
      21     1     1     2   501   512 -3.927366393E+01  6.852969916E+00  1.262059714E+02  1.323530547E+02  1.348699152E-06  0.00000E+00  9.000E+00
#rwgt            1           1   2.9476174878207292E-002           9      186302           0
</event>
<event>
      5   9999  3.19816E-02  1.46551E+01 -1.00000E+00  1.78341E-01
      21    -1     0     0   502   501  0.000000000E+00  0.000000000E+00  2.113156979E+02  2.113156979E+02  0.000000000E+00  0.00000E+00  9.000E+00
      21    -1     0     0   511   502  0.000000000E+00  0.000000000E+00 -5.026490106E+02  5.026490106E+02  0.000000000E+00  0.00000E+00  9.000E+00
      25     1     1     2     0     0 -5.594239538E+01 -1.438372321E+02  1.217075202E+02  2.329300784E+02  1.250000000E+02  0.00000E+00  9.000E+00
      25     1     1     2     0     0  6.131158103E+01  1.574733063E+02 -2.957741353E+02  3.628557445E+02  1.250000000E+02  0.00000E+00  9.000E+00
      21     1     1     2   511   501 -5.369185646E+00 -1.363607416E+01 -1.172666975E+02  1.181788856E+02  1.348699152E-06  0.00000E+00  9.000E+00
#rwgt            1           1   2.7192029604224375E-002           9      186464           0
</event>
<event>
      5   9999  3.19816E-02  1.03698E+02 -1.00000E+00  1.23123E-01
      21    -1     0     0   502   501  0.000000000E+00  0.000000000E+00  3.291596895E+02  3.291596895E+02  0.000000000E+00  0.00000E+00  9.000E+00
       2    -1     0     0   501     0  0.000000000E+00  0.000000000E+00 -2.449308519E+03  2.449308519E+03  0.000000000E+00  0.00000E+00  9.000E+00
      25     1     1     2     0     0  4.274815393E+02 -2.542120676E+02 -1.816072503E+02  5.440316490E+02  1.250000000E+02  0.00000E+00  9.000E+00
      25     1     1     2     0     0 -3.354834424E+02  3.020626369E+02 -2.283677386E+02  5.211216756E+02  1.250000000E+02  0.00000E+00  9.000E+00
       2     1     1     2   502     0 -9.199809695E+01 -4.785056925E+01 -1.710173840E+03  1.713314884E+03  2.157918644E-05  0.00000E+00  9.000E+00
#rwgt            1           1   3.0572657985285558E-002           9      186606           0
</event>
<event>
      5   9999  3.19816E-02  1.80761E+02 -1.00000E+00  1.13271E-01
      21    -1     0     0   502   511  0.000000000E+00  0.000000000E+00  5.892598557E+02  5.892598557E+02  0.000000000E+00  0.00000E+00  9.000E+00
      21    -1     0     0   501   502  0.000000000E+00  0.000000000E+00 -1.095020442E+03  1.095020442E+03  0.000000000E+00  0.00000E+00  9.000E+00
      25     1     1     2     0     0  1.668485221E+02 -2.273684129E+02  4.255564304E+02  5.256026065E+02  1.250000000E+02  0.00000E+00  9.000E+00
      25     1     1     2     0     0 -1.424243151E+02  4.826554740E+01 -9.563987178E+02  9.761853083E+02  1.250000000E+02  0.00000E+00  9.000E+00
      21     1     1     2   501   511 -2.442420701E+01  1.791028655E+02  2.508170072E+01  1.824923835E+02  1.545128989E-06  0.00000E+00  9.000E+00
#rwgt            1           1   2.2420786924424573E-002           9      186723           0
</event>
<event>
      5   9999  3.19816E-02  3.52956E+02 -1.00000E+00  1.03348E-01
      21    -1     0     0   502   501  0.000000000E+00  0.000000000E+00  7.560717459E+02  7.560717459E+02  0.000000000E+00  0.00000E+00  9.000E+00
      -4    -1     0     0     0   502  0.000000000E+00  0.000000000E+00 -1.034253579E+03  1.034253579E+03  0.000000000E+00  0.00000E+00  9.000E+00
      25     1     1     2     0     0  3.479824570E+02 -6.271186671E+02  1.845988631E+02  7.510468382E+02  1.250000000E+02  0.00000E+00  9.000E+00
      25     1     1     2     0     0 -2.744981916E+02  2.818969965E+02 -5.382482547E+02  6.783445713E+02  1.250000000E+02  0.00000E+00  9.000E+00
      -4     1     1     2     0   501 -7.348426541E+01  3.452216706E+02  7.546755817E+01  3.609339156E+02  3.303624740E-06  0.00000E+00  9.000E+00
#rwgt            2           7   1.0402423443785042E-005           9      186779           0
</event>
<event>
      5   9999  3.19816E-02  1.49640E+01 -1.00000E+00  1.77482E-01
      21    -1     0     0   502   501  0.000000000E+00  0.000000000E+00  2.108432980E+03  2.108432980E+03  0.000000000E+00  0.00000E+00  9.000E+00
      21    -1     0     0   511   502  0.000000000E+00  0.000000000E+00 -1.588149096E+02  1.588149096E+02  0.000000000E+00  0.00000E+00  9.000E+00
      25     1     1     2     0     0  5.147821135E+02  1.581243661E+02  1.232267669E+03  1.350597107E+03  1.250000000E+02  0.00000E+00  9.000E+00
      25     1     1     2     0     0 -5.025881294E+02 -1.494510213E+02  7.219633274E+02  9.009919432E+02  1.250000000E+02  0.00000E+00  9.000E+00
      21     1     1     2   511   501 -1.219398409E+01 -8.673344839E+00 -4.612925511E+00  1.565883906E+01  3.371747881E-07  0.00000E+00  9.000E+00
#rwgt            1           1   2.8005304550767319E-002           9      186813           0
</event>
<event>
      5   9999  3.19816E-02  1.18306E+02 -1.00000E+00  1.20631E-01
      21    -1     0     0   502   501  0.000000000E+00  0.000000000E+00  1.923064209E+02  1.923064209E+02  0.000000000E+00  0.00000E+00  9.000E+00
      21    -1     0     0   501   512  0.000000000E+00  0.000000000E+00 -1.075812513E+03  1.075812513E+03  0.000000000E+00  0.00000E+00  9.000E+00
      25     1     1     2     0     0 -1.136441607E+02  4.011141079E+02 -4.810076754E+02  6.486916884E+02  1.250000000E+02  0.00000E+00  9.000E+00
      25     1     1     2     0     0  1.117087255E+02 -2.828239474E+02 -1.997862332E+02  3.847177713E+02  1.250000000E+02  0.00000E+00  9.000E+00
      21     1     1     2   502   512  1.935435261E+00 -1.182901604E+02 -2.027121834E+02  2.347094742E+02  0.000000000E+00  0.00000E+00  9.000E+00
#rwgt            2          11   3.9220246267408637E-003           9      187036           0
</event>
<event>
      5   9999  3.19816E-02  1.64356E+02 -1.00000E+00  1.14842E-01
      21    -1     0     0   502   501  0.000000000E+00  0.000000000E+00  2.555305698E+01  2.555305698E+01  0.000000000E+00  0.00000E+00  9.000E+00
       2    -1     0     0   501     0  0.000000000E+00  0.000000000E+00 -3.753480447E+03  3.753480447E+03  0.000000000E+00  0.00000E+00  9.000E+00
      25     1     1     2     0     0  1.469375157E+02 -8.551183882E+01 -2.559499025E+03  2.568182853E+03  1.250000000E+02  0.00000E+00  9.000E+00
      25     1     1     2     0     0  1.741804424E+01  8.580118775E+01 -5.215473349E+02  5.434168332E+02  1.250000000E+02  0.00000E+00  9.000E+00
       2     1     1     2   502     0 -1.643555599E+02 -2.893489285E-01 -6.468810302E+02  6.674338178E+02  1.078959322E-05  0.00000E+00  9.000E+00
#rwgt            1           1   2.9183535507747729E-002           9      187056           0
</event>
<event>
      5   9999  3.19816E-02  4.10839E+01 -1.00000E+00  1.44124E-01
      21    -1     0     0   511   501  0.000000000E+00  0.000000000E+00  4.158866880E+02  4.158866880E+02  0.000000000E+00  0.00000E+00  9.000E+00
      21    -1     0     0   501   502  0.000000000E+00  0.000000000E+00 -8.316895365E+02  8.316895365E+02  0.000000000E+00  0.00000E+00  9.000E+00
      25     1     1     2     0     0  2.171343558E+02 -1.392393441E+01  2.136864154E+02  3.295877555E+02  1.250000000E+02  0.00000E+00  9.000E+00
      25     1     1     2     0     0 -1.773725189E+02  2.426232999E+01 -7.549926798E+02  7.859316876E+02  1.250000000E+02  0.00000E+00  9.000E+00
      21     1     1     2   511   502 -3.976183696E+01 -1.033839559E+01  1.255034159E+02  1.320567814E+02  0.000000000E+00  0.00000E+00  9.000E+00
#rwgt            1           1   2.9508252805725634E-002           9      187110           0
</event>
<event>
      5   9999  3.19816E-02  1.59256E+02 -1.00000E+00  1.15372E-01
      21    -1     0     0   502   501  0.000000000E+00  0.000000000E+00  1.430516561E+02  1.430516561E+02  0.000000000E+00  0.00000E+00  9.000E+00
      21    -1     0     0   512   502  0.000000000E+00  0.000000000E+00 -1.737659225E+03  1.737659225E+03  0.000000000E+00  0.00000E+00  9.000E+00
      25     1     1     2     0     0  7.092249161E+01  4.413333726E+01 -1.187050666E+03  1.196533340E+03  1.250000000E+02  0.00000E+00  9.000E+00
      25     1     1     2     0     0 -2.249823877E+02 -3.785876612E+00 -1.190665640E+01  2.576784354E+02  1.250000000E+02  0.00000E+00  9.000E+00
      21     1     1     2   512   501  1.540598961E+02 -4.034746065E+01 -3.956502461E+02  4.264991048E+02  0.000000000E+00  0.00000E+00  9.000E+00
#rwgt            1           1   3.1755914675492013E-002           9      187282           0
</event>
<event>
      5   9999  3.19816E-02  4.25136E+02 -1.00000E+00  1.00895E-01
      21    -1     0     0   502   501  0.000000000E+00  0.000000000E+00  3.928019149E+02  3.928019149E+02  0.000000000E+00  0.00000E+00  9.000E+00
       1    -1     0     0   501     0  0.000000000E+00  0.000000000E+00 -1.845404561E+03  1.845404561E+03  0.000000000E+00  0.00000E+00  9.000E+00
      25     1     1     2     0     0  2.786422913E+02 -5.824627012E+02 -9.077766504E+02  1.120976258E+03  1.250000000E+02  0.00000E+00  9.000E+00
      25     1     1     2     0     0 -3.955008173E+02  1.737029020E+02 -5.255184726E+02  6.916561716E+02  1.250000000E+02  0.00000E+00  9.000E+00
       1     1     1     2   502     0  1.168585260E+02  4.087597992E+02 -1.930752359E+01  4.255740464E+02  8.028725739E-06  0.00000E+00  9.000E+00
#rwgt            2          12   2.1781523621444956E-004           9      187385           0
</event>
<event>
      5   9999  3.19816E-02  7.34519E+01 -1.00000E+00  1.30171E-01
      21    -1     0     0   502   501  0.000000000E+00  0.000000000E+00  3.491764130E+02  3.491764130E+02  0.000000000E+00  0.00000E+00  9.000E+00
      21    -1     0     0   501   511  0.000000000E+00  0.000000000E+00 -1.631435703E+02  1.631435703E+02  0.000000000E+00  0.00000E+00  9.000E+00
      25     1     1     2     0     0  5.812516468E+01 -3.580062738E+01  2.048798384E+01  1.438922415E+02  1.250000000E+02  0.00000E+00  9.000E+00
      25     1     1     2     0     0 -1.139820414E+02 -1.189836906E+01  2.194351409E+02  2.773269875E+02  1.250000000E+02  0.00000E+00  9.000E+00
      21     1     1     2   502   511  5.585687673E+01  4.769899643E+01 -5.389028197E+01  9.110075428E+01  0.000000000E+00  0.00000E+00  9.000E+00
#rwgt            1           1   3.6174427644050502E-002           9      187404           0
</event>
<event>
      5   9999  3.19816E-02  6.83726E+01 -1.00000E+00  1.31740E-01
      21    -1     0     0   512   501  0.000000000E+00  0.000000000E+00  1.291539490E+03  1.291539490E+03  0.000000000E+00  0.00000E+00  9.000E+00
      21    -1     0     0   501   502  0.000000000E+00  0.000000000E+00 -1.095661850E+02  1.095661850E+02  0.000000000E+00  0.00000E+00  9.000E+00
      25     1     1     2     0     0 -1.827000276E+02 -1.421585016E+02  4.175037643E+02  4.934802254E+02  1.250000000E+02  0.00000E+00  9.000E+00
      25     1     1     2     0     0  2.455191688E+02  1.151663903E+02  2.523399733E+02  3.909519431E+02  1.250000000E+02  0.00000E+00  9.000E+00
      21     1     1     2   512   502 -6.281914121E+01  2.699211138E+01  5.121295671E+02  5.166735062E+02  1.078959322E-05  0.00000E+00  9.000E+00
#rwgt            1           1   2.7206824862425708E-002           9      187455           0
</event>
<event>
      5   9999  3.19816E-02  4.62306E+01 -1.00000E+00  1.41046E-01
      21    -1     0     0   502   501  0.000000000E+00  0.000000000E+00  1.972130708E+02  1.972130708E+02  0.000000000E+00  0.00000E+00  9.000E+00
      21    -1     0     0   511   502  0.000000000E+00  0.000000000E+00 -2.536926914E+02  2.536926914E+02  0.000000000E+00  0.00000E+00  9.000E+00
      25     1     1     2     0     0 -8.068347881E+01 -1.011293478E+02 -7.062243002E+01  1.932601779E+02  1.250000000E+02  0.00000E+00  9.000E+00
      25     1     1     2     0     0  5.758193877E+01  1.411741940E+02  4.478823346E+01  2.021801637E+02  1.250000000E+02  0.00000E+00  9.000E+00
      21     1     1     2   511   501  2.310154004E+01 -4.004484625E+01 -3.064542406E+01  5.546542058E+01  1.011524364E-06  0.00000E+00  9.000E+00
#rwgt            1           1   2.6865244050247639E-002           9      187499           0
</event>
<event>
      5   9999  3.19816E-02  5.65361E+01 -1.00000E+00  1.36098E-01
      21    -1     0     0   502   501  0.000000000E+00  0.000000000E+00  5.636316616E+01  5.636316616E+01  0.000000000E+00  0.00000E+00  9.000E+00
       1    -1     0     0   501     0  0.000000000E+00  0.000000000E+00 -1.698539232E+03  1.698539232E+03  0.000000000E+00  0.00000E+00  9.000E+00
      25     1     1     2     0     0 -4.901290593E+01  1.889167409E+02 -1.054705912E+03  1.079870992E+03  1.250000000E+02  0.00000E+00  9.000E+00
      25     1     1     2     0     0  1.022392766E+02 -1.698567580E+02 -2.931048563E+02  3.752860838E+02  1.250000000E+02  0.00000E+00  9.000E+00
       1     1     1     2   502     0 -5.322637068E+01 -1.905998292E+01 -2.943652978E+02  2.997453219E+02  0.000000000E+00  0.00000E+00  9.000E+00
#rwgt            2          12   1.5055404458446452E-004           9      187690           0
</event>
<event>
      5   9999  3.19816E-02  1.53573E+02 -1.00000E+00  1.15990E-01
      21    -1     0     0   511   501  0.000000000E+00  0.000000000E+00  3.895865321E+02  3.895865321E+02  0.000000000E+00  0.00000E+00  9.000E+00
      21    -1     0     0   501   502  0.000000000E+00  0.000000000E+00 -5.123244654E+02  5.123244654E+02  0.000000000E+00  0.00000E+00  9.000E+00
      25     1     1     2     0     0 -3.010445043E+02  1.134315078E+02 -1.999060127E+02  3.988507420E+02  1.250000000E+02  0.00000E+00  9.000E+00
      25     1     1     2     0     0  1.633232202E+02 -4.547900952E+01 -1.282294724E+02  2.465980782E+02  1.250000000E+02  0.00000E+00  9.000E+00
      21     1     1     2   511   502  1.377212840E+02 -6.795249827E+01  2.053975518E+02  2.564621773E+02  4.672030912E-06  0.00000E+00  9.000E+00
#rwgt            1           1   3.0918279578698263E-002           9      187724           0
</event>
<event>
      5   9999  3.19816E-02  7.28145E+01 -1.00000E+00  1.30359E-01
      21    -1     0     0   512   501  0.000000000E+00  0.000000000E+00  3.837470573E+02  3.837470573E+02  0.000000000E+00  0.00000E+00  9.000E+00
      21    -1     0     0   501   502  0.000000000E+00  0.000000000E+00 -7.061638817E+02  7.061638817E+02  0.000000000E+00  0.00000E+00  9.000E+00
      25     1     1     2     0     0  3.609982560E+02  1.490786852E+01 -3.155933639E+02  4.957480778E+02  1.250000000E+02  0.00000E+00  9.000E+00
      25     1     1     2     0     0 -3.256971096E+02  4.877718585E+01 -1.877274514E+02  3.991546281E+02  1.250000000E+02  0.00000E+00  9.000E+00
      21     1     1     2   512   502 -3.530114633E+01 -6.368505437E+01  1.809039908E+02  1.950082331E+02  3.303624740E-06  0.00000E+00  9.000E+00
#rwgt            1           1   3.0009536763778859E-002           9      187774           0
</event>
<event>
      5   9999  3.19816E-02  9.02565E+01 -1.00000E+00  1.25864E-01
       2    -1     0     0   502     0  0.000000000E+00  0.000000000E+00  2.841530001E+03  2.841530001E+03  0.000000000E+00  0.00000E+00  9.000E+00
      21    -1     0     0   501   502  0.000000000E+00  0.000000000E+00 -2.104264650E+02  2.104264650E+02  0.000000000E+00  0.00000E+00  9.000E+00
      25     1     1     2     0     0 -2.041437619E+02 -7.583467982E+01  1.197205848E+01  2.513839779E+02  1.250000000E+02  0.00000E+00  9.000E+00
      25     1     1     2     0     0  1.985845858E+02  1.659198528E+02  1.397747500E+02  3.195734908E+02  1.250000000E+02  0.00000E+00  9.000E+00
       2     1     1     2   501     0  5.559176051E+00 -9.008517301E+01  2.479356727E+03  2.480998997E+03  3.051757812E-05  0.00000E+00  9.000E+00
#rwgt            1           1   2.7347248035670044E-002           9      187886           0
</event>
<event>
      5   9999  3.19816E-02  5.54595E+01 -1.00000E+00  1.36555E-01
      21    -1     0     0   502   511  0.000000000E+00  0.000000000E+00  2.692778343E+03  2.692778343E+03  0.000000000E+00  0.00000E+00  9.000E+00
      21    -1     0     0   501   502  0.000000000E+00  0.000000000E+00 -5.098105645E+02  5.098105645E+02  0.000000000E+00  0.00000E+00  9.000E+00
      25     1     1     2     0     0  1.070697660E+03 -2.219054419E+02  7.005694417E+02  1.304629467E+03  1.250000000E+02  0.00000E+00  9.000E+00
      25     1     1     2     0     0 -1.104839317E+03  1.782007251E+02  1.376582816E+03  1.778491120E+03  1.250000000E+02  0.00000E+00  9.000E+00
      21     1     1     2   501   511  3.414165707E+01  4.370471687E+01  1.058155215E+02  1.194683206E+02  1.348699152E-06  0.00000E+00  9.000E+00
#rwgt            1           1   1.9863184742148390E-002           9      187953           0
</event>
<event>
      5   9999  3.19816E-02  1.59764E+02 -1.00000E+00  1.15318E-01
      21    -1     0     0   502   501  0.000000000E+00  0.000000000E+00  1.520639216E+03  1.520639216E+03  0.000000000E+00  0.00000E+00  9.000E+00
      21    -1     0     0   512   502  0.000000000E+00  0.000000000E+00 -9.763468874E+02  9.763468874E+02  0.000000000E+00  0.00000E+00  9.000E+00
      25     1     1     2     0     0  2.548341429E+02 -3.845495114E+02 -6.693284671E+02  8.224623785E+02  1.250000000E+02  0.00000E+00  9.000E+00
      25     1     1     2     0     0 -2.797598345E+02  2.267414196E+02  1.387195484E+03  1.438615149E+03  1.250000000E+02  0.00000E+00  9.000E+00
      21     1     1     2   512   501  2.492569156E+01  1.578080918E+02 -1.735746880E+02  2.359085761E+02  2.697398305E-06  0.00000E+00  9.000E+00
#rwgt            1           1   3.1273819210563061E-002           9      188117           0
</event>
<event>
      5   9999  3.19816E-02  5.20923E+01 -1.00000E+00  1.38067E-01
      21    -1     0     0   502   511  0.000000000E+00  0.000000000E+00  3.720636681E+02  3.720636681E+02  0.000000000E+00  0.00000E+00  9.000E+00
      21    -1     0     0   501   502  0.000000000E+00  0.000000000E+00 -9.827110228E+02  9.827110228E+02  0.000000000E+00  0.00000E+00  9.000E+00
      25     1     1     2     0     0 -5.260959140E+02 -1.026092301E+01 -1.254607044E+02  5.552004914E+02  1.250000000E+02  0.00000E+00  9.000E+00
      25     1     1     2     0     0  4.934965584E+02  5.089203240E+01 -5.257146424E+02  7.335732665E+02  1.250000000E+02  0.00000E+00  9.000E+00
      21     1     1     2   501   511  3.259935564E+01 -4.063110939E+01  4.052799204E+01  6.600093315E+01  9.536743164E-07  0.00000E+00  9.000E+00
#rwgt            2          11   4.2394102871877509E-003           9      188252           0
</event>
<event>
      5   9999  3.19816E-02  2.49182E+02 -1.00000E+00  1.08279E-01
      21    -1     0     0   502   501  0.000000000E+00  0.000000000E+00  3.720934012E+02  3.720934012E+02  0.000000000E+00  0.00000E+00  9.000E+00
       3    -1     0     0   501     0  0.000000000E+00  0.000000000E+00 -6.493528232E+02  6.493528232E+02  0.000000000E+00  0.00000E+00  9.000E+00
      25     1     1     2     0     0 -2.945761129E+02 -2.785010703E+01 -3.948706718E+00  3.212340378E+02  1.250000000E+02  0.00000E+00  9.000E+00
      25     1     1     2     0     0  8.634971710E+01  1.647195555E+02  1.047980987E+02  2.473791566E+02  1.250000000E+02  0.00000E+00  9.000E+00
       3     1     1     2   502     0  2.082263958E+02 -1.368694485E+02 -3.781088140E+02  4.528330300E+02  0.000000000E+00  0.00000E+00  9.000E+00
#rwgt            1           1   2.7040683567442377E-002           9      188317           0
</event>
<event>
      5   9999  3.19816E-02  9.88324E+01 -1.00000E+00  1.24058E-01
      21    -1     0     0   502   501  0.000000000E+00  0.000000000E+00  3.210295084E+02  3.210295084E+02  0.000000000E+00  0.00000E+00  9.000E+00
      21    -1     0     0   511   502  0.000000000E+00  0.000000000E+00 -6.370055512E+02  6.370055512E+02  0.000000000E+00  0.00000E+00  9.000E+00
      25     1     1     2     0     0 -2.278239459E+02  1.909893272E+02  7.631204605E+01  3.314048910E+02  1.250000000E+02  0.00000E+00  9.000E+00
      25     1     1     2     0     0  1.901790157E+02 -9.960715817E+01 -2.896807794E+01  2.501075639E+02  1.250000000E+02  0.00000E+00  9.000E+00
      21     1     1     2   511   501  3.764493023E+01 -9.138216899E+01 -3.633200109E+02  3.765226047E+02  0.000000000E+00  0.00000E+00  9.000E+00
#rwgt            1           1   3.0805943652170369E-002           9      188371           0
</event>
<event>
      5   9999  3.19816E-02  4.13075E+02 -1.00000E+00  1.01267E-01
      21    -1     0     0   502   512  0.000000000E+00  0.000000000E+00  2.917270237E+03  2.917270237E+03  0.000000000E+00  0.00000E+00  9.000E+00
      21    -1     0     0   501   502  0.000000000E+00  0.000000000E+00 -1.612641973E+03  1.612641973E+03  0.000000000E+00  0.00000E+00  9.000E+00
      25     1     1     2     0     0 -6.911296896E+02  3.714719445E+02 -8.157415383E+02  1.138732151E+03  1.250000000E+02  0.00000E+00  9.000E+00
      25     1     1     2     0     0  5.666087989E+02 -7.653315282E+02 -2.440563639E+02  9.909421718E+02  1.250000000E+02  0.00000E+00  9.000E+00
      21     1     1     2   501   512  1.245208907E+02  3.938595838E+02  2.364426166E+03  2.400237888E+03  3.051757812E-05  0.00000E+00  9.000E+00
#rwgt            2          11   7.9196040676181919E-004           9      188609           0
</event>
<event>
      5   9999  3.19816E-02  1.49330E+02 -1.00000E+00  1.16471E-01
      21    -1     0     0   502   501  0.000000000E+00  0.000000000E+00  7.055018430E+02  7.055018430E+02  0.000000000E+00  0.00000E+00  9.000E+00
      21    -1     0     0   501   511  0.000000000E+00  0.000000000E+00 -1.154579518E+02  1.154579518E+02  0.000000000E+00  0.00000E+00  9.000E+00
      25     1     1     2     0     0 -1.660566458E+02 -7.225834198E+01  2.485179286E+02  3.319371001E+02  1.250000000E+02  0.00000E+00  9.000E+00
      25     1     1     2     0     0  2.127778155E+01  1.088446610E+02  2.829568286E+02  3.286175149E+02  1.250000000E+02  0.00000E+00  9.000E+00
      21     1     1     2   502   511  1.447788643E+02 -3.658631897E+01  5.856913395E+01  1.604051799E+02  2.611744678E-06  0.00000E+00  9.000E+00
#rwgt            1           1   2.7981200344860610E-002           9      188659           0
</event>
<event>
      5   9999  3.19816E-02  1.42329E+02 -1.00000E+00  1.17304E-01
      21    -1     0     0   512   501  0.000000000E+00  0.000000000E+00  1.772403983E+03  1.772403983E+03  0.000000000E+00  0.00000E+00  9.000E+00
      21    -1     0     0   501   502  0.000000000E+00  0.000000000E+00 -6.265102574E+02  6.265102574E+02  0.000000000E+00  0.00000E+00  9.000E+00
      25     1     1     2     0     0  4.178937407E+02  7.734089432E+02  7.527370888E+02  1.164059576E+03  1.250000000E+02  0.00000E+00  9.000E+00
      25     1     1     2     0     0 -5.594250013E+02 -7.884565761E+02  2.003101042E+02  9.951729710E+02  1.250000000E+02  0.00000E+00  9.000E+00
      21     1     1     2   512   502  1.415312606E+02  1.504763282E+01  1.928465325E+02  2.396816932E+02  0.000000000E+00  0.00000E+00  9.000E+00
#rwgt            1           1   3.6667729579550036E-002           9      188705           0
</event>
<event>
      5   9999  3.19816E-02  1.17152E+02 -1.00000E+00  1.20813E-01
      21    -1     0     0   502   501  0.000000000E+00  0.000000000E+00  1.292820155E+02  1.292820155E+02  0.000000000E+00  0.00000E+00  9.000E+00
       2    -1     0     0   501     0  0.000000000E+00  0.000000000E+00 -2.838586077E+03  2.838586077E+03  0.000000000E+00  0.00000E+00  9.000E+00
      25     1     1     2     0     0 -4.352454071E+02 -2.963392499E+02 -1.254210373E+03  1.365988351E+03  1.250000000E+02  0.00000E+00  9.000E+00
      25     1     1     2     0     0  3.320489142E+02  3.517927900E+02 -8.535424054E+02  9.890269391E+02  1.250000000E+02  0.00000E+00  9.000E+00
       2     1     1     2   502     0  1.031964929E+02 -5.545354008E+01 -6.015512835E+02  6.128528028E+02  0.000000000E+00  0.00000E+00  9.000E+00
#rwgt            1           1   3.2550673846671395E-002           9      188790           0
</event>
<event>
      5   9999  3.19816E-02  1.16194E+02 -1.00000E+00  1.20965E-01
      21    -1     0     0   502   501  0.000000000E+00  0.000000000E+00  1.251504066E+03  1.251504066E+03  0.000000000E+00  0.00000E+00  9.000E+00
       1    -1     0     0   501     0  0.000000000E+00  0.000000000E+00 -2.377366911E+03  2.377366911E+03  0.000000000E+00  0.00000E+00  9.000E+00
      25     1     1     2     0     0 -1.010273865E+03  8.189329926E+02  3.893230710E+02  1.363268859E+03  1.250000000E+02  0.00000E+00  9.000E+00
      25     1     1     2     0     0  1.043445101E+03 -9.302916795E+02 -9.649329383E+02  1.703214861E+03  1.250000000E+02  0.00000E+00  9.000E+00
       1     1     1     2   502     0 -3.317123548E+01  1.113586869E+02 -5.502529775E+02  5.623872574E+02  0.000000000E+00  0.00000E+00  9.000E+00
#rwgt            1           1   3.9425303680071570E-002           9      188864           0
</event>
<event>
      5   9999  3.19816E-02  2.90655E+01 -1.00000E+00  1.54001E-01
      21    -1     0     0   502   501  0.000000000E+00  0.000000000E+00  9.288354203E+02  9.288354203E+02  0.000000000E+00  0.00000E+00  9.000E+00
      21    -1     0     0   511   502  0.000000000E+00  0.000000000E+00 -4.051692945E+02  4.051692945E+02  0.000000000E+00  0.00000E+00  9.000E+00
      25     1     1     2     0     0 -3.615754680E+02  8.510691291E+01 -1.973528579E+02  4.388087923E+02  1.250000000E+02  0.00000E+00  9.000E+00
      25     1     1     2     0     0  3.333124490E+02 -7.832432732E+01  7.621537763E+02  8.448285433E+02  1.250000000E+02  0.00000E+00  9.000E+00
      21     1     1     2   511   501  2.826301902E+01 -6.782585593E+00 -4.113479262E+01  5.036737907E+01  1.430511475E-06  0.00000E+00  9.000E+00
#rwgt            1           1   2.3523218442162576E-002           9      189058           0
</event>
<event>
      5   9999  3.19816E-02  5.01440E+01 -1.00000E+00  1.39004E-01
      21    -1     0     0   502   512  0.000000000E+00  0.000000000E+00  2.869694045E+02  2.869694045E+02  0.000000000E+00  0.00000E+00  9.000E+00
      21    -1     0     0   501   502  0.000000000E+00  0.000000000E+00 -2.786827378E+02  2.786827378E+02  0.000000000E+00  0.00000E+00  9.000E+00
      25     1     1     2     0     0  1.971441238E+02 -2.966289421E+01 -1.307453637E+01  2.356727315E+02  1.250000000E+02  0.00000E+00  9.000E+00
      25     1     1     2     0     0 -2.458332703E+02  4.165402420E+01  1.368608385E+01  2.792514340E+02  1.250000000E+02  0.00000E+00  9.000E+00
      21     1     1     2   501   512  4.868914645E+01 -1.199113000E+01  7.675119150E+00  5.072797684E+01  5.900558792E-07  0.00000E+00  9.000E+00
#rwgt            1           1   2.7934355115024068E-002           9      189299           0
</event>
<event>
      5   9999  3.19816E-02  4.81513E+01 -1.00000E+00  1.40016E-01
      21    -1     0     0   502   511  0.000000000E+00  0.000000000E+00  6.994539335E+02  6.994539335E+02  0.000000000E+00  0.00000E+00  9.000E+00
      21    -1     0     0   501   502  0.000000000E+00  0.000000000E+00 -1.056809199E+03  1.056809199E+03  0.000000000E+00  0.00000E+00  9.000E+00
      25     1     1     2     0     0 -4.937223578E+02 -1.774885252E+02  2.204028541E+02  5.826374184E+02  1.250000000E+02  0.00000E+00  9.000E+00
      25     1     1     2     0     0  5.415816322E+02  1.827833322E+02 -7.747314648E+02  9.708523334E+02  1.250000000E+02  0.00000E+00  9.000E+00
      21     1     1     2   501   511 -4.785927435E+01 -5.294806981E+00  1.969733453E+02  2.027733806E+02  2.697398305E-06  0.00000E+00  9.000E+00
#rwgt            1           1   2.8961651887467924E-002           9      189365           0
</event>
<event>
      5   9999  3.19816E-02  2.24660E+02 -1.00000E+00  1.09840E-01
      -2    -1     0     0     0   501  0.000000000E+00  0.000000000E+00  2.245207521E+02  2.245207521E+02  0.000000000E+00  0.00000E+00  9.000E+00
      21    -1     0     0   501   502  0.000000000E+00  0.000000000E+00 -1.666701462E+03  1.666701462E+03  0.000000000E+00  0.00000E+00  9.000E+00
      25     1     1     2     0     0  2.169773269E+02 -1.949605144E+02 -1.262947129E+03  1.302209359E+03  1.250000000E+02  0.00000E+00  9.000E+00
      25     1     1     2     0     0 -1.996772002E+01  8.698270463E+01 -2.977346216E+02  3.350158290E+02  1.250000000E+02  0.00000E+00  9.000E+00
      -2     1     1     2     0   502 -1.970096069E+02  1.079778098E+02  1.185010411E+02  2.539970263E+02  3.568322551E-06  0.00000E+00  9.000E+00
#rwgt            1           1   3.8779544725857096E-002           9      189575           0
</event>
<event>
      5   9999  3.19816E-02  1.71089E+01 -1.00000E+00  1.72165E-01
      21    -1     0     0   502   501  0.000000000E+00  0.000000000E+00  5.706869206E+01  5.706869206E+01  0.000000000E+00  0.00000E+00  9.000E+00
      21    -1     0     0   511   502  0.000000000E+00  0.000000000E+00 -8.781807636E+02  8.781807636E+02  0.000000000E+00  0.00000E+00  9.000E+00
      25     1     1     2     0     0 -1.772196790E+02  3.981510836E+00 -3.403425948E+02  4.035848720E+02  1.250000000E+02  0.00000E+00  9.000E+00
      25     1     1     2     0     0  1.682228014E+02  1.057085865E+01 -4.471527851E+02  4.939445993E+02  1.250000000E+02  0.00000E+00  9.000E+00
      21     1     1     2   511   501  8.996877561E+00 -1.455236949E+01 -3.361669160E+01  3.771998432E+01  4.768371582E-07  0.00000E+00  9.000E+00
#rwgt            1           1   2.9578017868148759E-002           9      189615           0
</event>
<event>
      5   9999  3.19816E-02  1.48898E+02 -1.00000E+00  1.16521E-01
       2    -1     0     0   502     0  0.000000000E+00  0.000000000E+00  1.190016282E+03  1.190016282E+03  0.000000000E+00  0.00000E+00  9.000E+00
      21    -1     0     0   501   502  0.000000000E+00  0.000000000E+00 -2.633445250E+02  2.633445250E+02  0.000000000E+00  0.00000E+00  9.000E+00
      25     1     1     2     0     0  1.667200925E+02  4.253970461E+02  1.255306711E+02  4.900420241E+02  1.250000000E+02  0.00000E+00  9.000E+00
      25     1     1     2     0     0 -2.112510684E+02 -2.833136754E+02  4.774507218E+02  6.070237593E+02  1.250000000E+02  0.00000E+00  9.000E+00
       2     1     1     2   501     0  4.453097596E+01 -1.420833707E+02  3.236903639E+02  3.562950234E+02  3.814697266E-06  0.00000E+00  9.000E+00
#rwgt            1           1   3.0363066237783953E-002           9      189750           0
</event>
<event>
      5   9999  3.19816E-02  2.14766E+01 -1.00000E+00  1.63856E-01
      21    -1     0     0   502   501  0.000000000E+00  0.000000000E+00  2.127590583E+02  2.127590583E+02  0.000000000E+00  0.00000E+00  9.000E+00
       1    -1     0     0   501     0  0.000000000E+00  0.000000000E+00 -5.026401919E+02  5.026401919E+02  0.000000000E+00  0.00000E+00  9.000E+00
      25     1     1     2     0     0  8.521583184E+01  8.302692384E+01 -1.476094497E+02  2.270875552E+02  1.250000000E+02  0.00000E+00  9.000E+00
      25     1     1     2     0     0 -1.037495157E+02 -7.217573590E+01  1.268219872E+02  2.183623487E+02  1.250000000E+02  0.00000E+00  9.000E+00
       1     1     1     2   502     0  1.853368389E+01 -1.085118794E+01 -2.690936712E+02  2.699493464E+02  3.814697266E-06  0.00000E+00  9.000E+00
#rwgt            1           1   2.5610635511703214E-002           9      189799           0
</event>
<event>
      5   9999  3.19816E-02  4.18004E+01 -1.00000E+00  1.43664E-01
      21    -1     0     0   502   511  0.000000000E+00  0.000000000E+00  3.035589832E+02  3.035589832E+02  0.000000000E+00  0.00000E+00  9.000E+00
      21    -1     0     0   501   502  0.000000000E+00  0.000000000E+00 -1.166764498E+03  1.166764498E+03  0.000000000E+00  0.00000E+00  9.000E+00
      25     1     1     2     0     0 -5.719574700E+02  9.152816723E+01 -4.377459287E+02  7.367219631E+02  1.250000000E+02  0.00000E+00  9.000E+00
      25     1     1     2     0     0  5.303276755E+02 -9.530070758E+01 -4.119258088E+02  6.896648028E+02  1.250000000E+02  0.00000E+00  9.000E+00
      21     1     1     2   501   511  4.162979448E+01  3.772540347E+00 -1.353377775E+01  4.393671573E+01  2.384185791E-07  0.00000E+00  9.000E+00
#rwgt            1           1   3.2985741696865890E-002           9      189926           0
</event>
<event>
      5   9999  3.19816E-02  9.38959E+01 -1.00000E+00  1.25071E-01
      21    -1     0     0   502   512  0.000000000E+00  0.000000000E+00  4.761438106E+02  4.761438106E+02  0.000000000E+00  0.00000E+00  9.000E+00
      21    -1     0     0   501   502  0.000000000E+00  0.000000000E+00 -5.007060286E+02  5.007060286E+02  0.000000000E+00  0.00000E+00  9.000E+00
      25     1     1     2     0     0 -2.308089374E+02 -3.169192348E+02  2.008366454E+02  4.578983785E+02  1.250000000E+02  0.00000E+00  9.000E+00
      25     1     1     2     0     0  1.372988480E+02  3.084165172E+02 -2.259954173E+02  4.250537030E+02  1.250000000E+02  0.00000E+00  9.000E+00
      21     1     1     2   501   512  9.351008938E+01  8.502717523E+00  5.965538959E-01  9.389775768E+01  7.800014215E-07  0.00000E+00  9.000E+00
#rwgt            1           1   2.8980084061162793E-002           9      190112           0
</event>
<event>
      5   9999  3.19816E-02  5.52181E+01 -1.00000E+00  1.36660E-01
      21    -1     0     0   511   501  0.000000000E+00  0.000000000E+00  5.278637217E+02  5.278637217E+02  0.000000000E+00  0.00000E+00  9.000E+00
      21    -1     0     0   501   502  0.000000000E+00  0.000000000E+00 -5.259979296E+02  5.259979296E+02  0.000000000E+00  0.00000E+00  9.000E+00
      25     1     1     2     0     0 -3.173172603E+02  2.968833738E+02 -2.659607933E+02  5.245856698E+02  1.250000000E+02  0.00000E+00  9.000E+00
      25     1     1     2     0     0  2.798648418E+02 -2.563080439E+02  2.496869613E+02  4.711546685E+02  1.250000000E+02  0.00000E+00  9.000E+00
      21     1     1     2   511   502  3.745241856E+01 -4.057532994E+01  1.813962416E+01  5.812131296E+01  9.233911863E-07  0.00000E+00  9.000E+00
#rwgt            1           1   3.0713164778185611E-002           9      190224           0
</event>
<event>
      5   9999  3.19816E-02  4.51345E+01 -1.00000E+00  1.41661E-01
      21    -1     0     0   502   512  0.000000000E+00  0.000000000E+00  1.959071710E+02  1.959071710E+02  0.000000000E+00  0.00000E+00  9.000E+00
      21    -1     0     0   501   502  0.000000000E+00  0.000000000E+00 -4.955481774E+02  4.955481774E+02  0.000000000E+00  0.00000E+00  9.000E+00
      25     1     1     2     0     0 -5.320619307E+01  2.298269029E+02 -1.165408995E+02  2.913041118E+02  1.250000000E+02  0.00000E+00  9.000E+00
      25     1     1     2     0     0  5.799877526E+01 -2.747062222E+02 -1.768616165E+02  3.545876448E+02  1.250000000E+02  0.00000E+00  9.000E+00
      21     1     1     2   501   512 -4.792582185E+00  4.487931926E+01 -6.238490463E+00  4.556359188E+01  1.004475328E-06  0.00000E+00  9.000E+00
#rwgt            1           1   2.8802304773919825E-002           9      190307           0
</event>
<event>
      5   9999  3.19816E-02  6.33125E+01 -1.00000E+00  1.33468E-01
      21    -1     0     0   502   501  0.000000000E+00  0.000000000E+00  2.879718443E+02  2.879718443E+02  0.000000000E+00  0.00000E+00  9.000E+00
      21    -1     0     0   501   511  0.000000000E+00  0.000000000E+00 -3.047222953E+02  3.047222953E+02  0.000000000E+00  0.00000E+00  9.000E+00
      25     1     1     2     0     0 -3.656128400E+01 -1.697079901E+02  1.045869444E+02  2.381196303E+02  1.250000000E+02  0.00000E+00  9.000E+00
      25     1     1     2     0     0  5.737967614E+01  2.294998587E+02 -1.140203356E+02  2.908405909E+02  1.250000000E+02  0.00000E+00  9.000E+00
      21     1     1     2   502   511 -2.081839214E+01 -5.979186861E+01 -7.317059779E+00  6.373391849E+01  6.690604782E-07  0.00000E+00  9.000E+00
#rwgt            1           1   3.0105071618412076E-002           9      190392           0
</event>
<event>
      5   9999  3.19816E-02  2.06914E+02 -1.00000E+00  1.11113E-01
       2    -1     0     0   502     0  0.000000000E+00  0.000000000E+00  2.466151345E+03  2.466151345E+03  0.000000000E+00  0.00000E+00  9.000E+00
      21    -1     0     0   501   502  0.000000000E+00  0.000000000E+00 -4.080375887E+02  4.080375887E+02  0.000000000E+00  0.00000E+00  9.000E+00
      25     1     1     2     0     0 -2.068722795E+02  7.337277848E+02  1.782368187E+03  1.942579203E+03  1.250000000E+02  0.00000E+00  9.000E+00
      25     1     1     2     0     0  9.200345578E+01 -5.616268787E+02 -5.187220363E+00  5.827017196E+02  1.250000000E+02  0.00000E+00  9.000E+00
       2     1     1     2   501     0  1.148688237E+02 -1.721009061E+02  2.809327896E+02  3.489080119E+02  5.394796609E-06  0.00000E+00  9.000E+00
#rwgt            1           1   2.6365505657417198E-002           9      190479           0
</event>
<event>
      5   9999  3.19816E-02  9.18726E+01 -1.00000E+00  1.25507E-01
      21    -1     0     0   511   501  0.000000000E+00  0.000000000E+00  4.070287822E+02  4.070287822E+02  0.000000000E+00  0.00000E+00  9.000E+00
      21    -1     0     0   501   502  0.000000000E+00  0.000000000E+00 -6.335214002E+02  6.335214002E+02  0.000000000E+00  0.00000E+00  9.000E+00
      25     1     1     2     0     0 -2.843830141E+02 -2.946730468E+02 -3.533559411E+02  5.551498215E+02  1.250000000E+02  0.00000E+00  9.000E+00
      25     1     1     2     0     0  1.930185675E+02  2.850231641E+02  5.846041679E+01  3.708598007E+02  1.250000000E+02  0.00000E+00  9.000E+00
      21     1     1     2   511   502  9.136444663E+01  9.649882694E+00  6.840290625E+01  1.145405602E+02  2.336015456E-06  0.00000E+00  9.000E+00
#rwgt            1           1   3.1099903708791999E-002           9      190532           0
</event>
<event>
      5   9999  3.19816E-02  6.13159E+01 -1.00000E+00  1.34202E-01
      21    -1     0     0   502   512  0.000000000E+00  0.000000000E+00  1.609114829E+03  1.609114829E+03  0.000000000E+00  0.00000E+00  9.000E+00
      21    -1     0     0   501   502  0.000000000E+00  0.000000000E+00 -6.951161408E+01  6.951161408E+01  0.000000000E+00  0.00000E+00  9.000E+00
      25     1     1     2     0     0 -1.830188732E+01  2.218667396E+02  3.165171593E+02  4.066545479E+02  1.250000000E+02  0.00000E+00  9.000E+00
      25     1     1     2     0     0  7.414875350E+01 -2.471801470E+02  1.044966252E+03  1.083593804E+03  1.250000000E+02  0.00000E+00  9.000E+00
      21     1     1     2   501   512 -5.584686618E+01  2.531340735E+01  1.781198036E+02  1.883780919E+02  2.697398305E-06  0.00000E+00  9.000E+00
#rwgt            1           1   2.9396641178279632E-002           9      190611           0
</event>
<event>
      5   9999  3.19816E-02  6.47149E+01 -1.00000E+00  1.32971E-01
      21    -1     0     0   511   501  0.000000000E+00  0.000000000E+00  8.455119007E+01  8.455119007E+01  0.000000000E+00  0.00000E+00  9.000E+00
      21    -1     0     0   501   502  0.000000000E+00  0.000000000E+00 -1.176476566E+03  1.176476566E+03  0.000000000E+00  0.00000E+00  9.000E+00
      25     1     1     2     0     0  8.997503466E+01 -6.009194298E+01 -9.253292838E+02  9.399818254E+02  1.250000000E+02  0.00000E+00  9.000E+00
      25     1     1     2     0     0 -7.089671030E+01  1.219307432E+02 -1.732419485E+02  2.559906685E+02  1.250000000E+02  0.00000E+00  9.000E+00
      21     1     1     2   511   502 -1.907832436E+01 -6.183880022E+01  6.645856773E+00  6.505526178E+01  5.331201500E-07  0.00000E+00  9.000E+00
#rwgt            1           1   3.0873211301165417E-002           9      190670           0
</event>
<event>
      5   9999  3.19816E-02  1.06183E+02 -1.00000E+00  1.22667E-01
      21    -1     0     0   502   501  0.000000000E+00  0.000000000E+00  8.789004097E+01  8.789004097E+01  0.000000000E+00  0.00000E+00  9.000E+00
       1    -1     0     0   501     0  0.000000000E+00  0.000000000E+00 -2.008550999E+03  2.008550999E+03  0.000000000E+00  0.00000E+00  9.000E+00
      25     1     1     2     0     0  2.833618559E+02  5.284743444E+01 -5.875453265E+02  6.662741954E+02  1.250000000E+02  0.00000E+00  9.000E+00
      25     1     1     2     0     0 -3.698384398E+02 -1.144648858E+02 -9.703928315E+02  1.052221426E+03  1.250000000E+02  0.00000E+00  9.000E+00
       1     1     1     2   502     0  8.647658391E+01  6.161745132E+01 -3.627227998E+02  3.779454185E+02  0.000000000E+00  0.00000E+00  9.000E+00
#rwgt            1           1   2.8630354267581173E-002           9      190730           0
</event>
<event>
      5   9999  3.19816E-02  2.28062E+02 -1.00000E+00  1.09611E-01
       2    -1     0     0   502     0  0.000000000E+00  0.000000000E+00  1.381098780E+03  1.381098780E+03  0.000000000E+00  0.00000E+00  9.000E+00
      21    -1     0     0   501   502  0.000000000E+00  0.000000000E+00 -2.235928238E+02  2.235928238E+02  0.000000000E+00  0.00000E+00  9.000E+00
      25     1     1     2     0     0  3.121609796E+02 -4.708805092E+01  3.698753776E+02  5.020901878E+02  1.250000000E+02  0.00000E+00  9.000E+00
      25     1     1     2     0     0 -5.147726919E+02 -5.760551065E+01  4.632333732E+02  7.060591174E+02  1.250000000E+02  0.00000E+00  9.000E+00
       2     1     1     2   501     0  2.026117123E+02  1.046935616E+02  3.243972056E+02  3.965422989E+02  3.814697266E-06  0.00000E+00  9.000E+00
#rwgt            1           1   2.7702206178742000E-002           9      190826           0
</event>
<event>
      5   9999  3.19816E-02  8.70575E+01 -1.00000E+00  1.26597E-01
      21    -1     0     0   502   511  0.000000000E+00  0.000000000E+00  4.131239041E+02  4.131239041E+02  0.000000000E+00  0.00000E+00  9.000E+00
      21    -1     0     0   501   502  0.000000000E+00  0.000000000E+00 -3.531545918E+02  3.531545918E+02  0.000000000E+00  0.00000E+00  9.000E+00
      25     1     1     2     0     0  8.968019731E+01  1.292369535E+01 -2.899371677E+02  3.284784938E+02  1.250000000E+02  0.00000E+00  9.000E+00
      25     1     1     2     0     0 -4.383688254E+01 -8.693311496E+01  2.950501410E+02  3.349009173E+02  1.250000000E+02  0.00000E+00  9.000E+00
      21     1     1     2   501   511 -4.584331476E+01  7.400941962E+01  5.485633903E+01  1.028990847E+02  1.784161275E-06  0.00000E+00  9.000E+00
#rwgt            1           1   2.8344057809195671E-002           9      190865           0
</event>
<event>
      5   9999  3.19816E-02  2.26063E+02 -1.00000E+00  1.09745E-01
      -2    -1     0     0     0   501  0.000000000E+00  0.000000000E+00  1.635949924E+03  1.635949924E+03  0.000000000E+00  0.00000E+00  9.000E+00
      21    -1     0     0   501   502  0.000000000E+00  0.000000000E+00 -2.603954106E+02  2.603954106E+02  0.000000000E+00  0.00000E+00  9.000E+00
      25     1     1     2     0     0  1.912889932E+02  4.831956503E+02  2.486093038E+02  5.894922403E+02  1.250000000E+02  0.00000E+00  9.000E+00
      25     1     1     2     0     0 -1.982729941E+02 -2.572408122E+02  3.341550049E+02  4.824620015E+02  1.250000000E+02  0.00000E+00  9.000E+00
      -2     1     1     2     0   502  6.984000874E+00 -2.259548382E+02  7.927902050E+02  8.243910931E+02  1.525878906E-05  0.00000E+00  9.000E+00
#rwgt            2           4   5.6213105997983650E-005           9      190997           0
</event>
<event>
      5   9999  3.19816E-02  6.39325E+01 -1.00000E+00  1.33246E-01
      21    -1     0     0   502   501  0.000000000E+00  0.000000000E+00  3.899672121E+02  3.899672121E+02  0.000000000E+00  0.00000E+00  9.000E+00
      -1    -1     0     0     0   502  0.000000000E+00  0.000000000E+00 -1.159769975E+03  1.159769975E+03  0.000000000E+00  0.00000E+00  9.000E+00
      25     1     1     2     0     0 -2.889776455E+02 -8.326077654E+01 -6.338570786E+01  3.317878606E+02  1.250000000E+02  0.00000E+00  9.000E+00
      25     1     1     2     0     0  2.718172838E+02  1.448472129E+02  1.460619356E+02  3.630763554E+02  1.250000000E+02  0.00000E+00  9.000E+00
      -1     1     1     2     0   501  1.716036167E+01 -6.158643632E+01 -8.524789903E+02  8.548729707E+02  0.000000000E+00  0.00000E+00  9.000E+00
#rwgt            1           1   2.7146829330656156E-002           9      191016           0
</event>
<event>
      5   9999  3.19816E-02  3.11394E+01 -1.00000E+00  1.51924E-01
      21    -1     0     0   502   511  0.000000000E+00  0.000000000E+00  2.558661874E+02  2.558661874E+02  0.000000000E+00  0.00000E+00  9.000E+00
      21    -1     0     0   501   502  0.000000000E+00  0.000000000E+00 -1.897093264E+02  1.897093264E+02  0.000000000E+00  0.00000E+00  9.000E+00
      25     1     1     2     0     0 -4.768158988E+01 -7.028882850E+01 -1.184712055E+02  1.920272896E+02  1.250000000E+02  0.00000E+00  9.000E+00
      25     1     1     2     0     0  2.077878346E+01  5.460752896E+01  1.705440574E+02  2.193718660E+02  1.250000000E+02  0.00000E+00  9.000E+00
      21     1     1     2   501   511  2.690280642E+01  1.568129954E+01  1.408400903E+01  3.417635818E+01  2.920019320E-07  0.00000E+00  9.000E+00
#rwgt            1           1   2.8119343804853109E-002           9      191083           0
</event>
<event>
      5   9999  3.19816E-02  8.71991E+01 -1.00000E+00  1.26564E-01
      21    -1     0     0   502   501  0.000000000E+00  0.000000000E+00  8.540358464E+01  8.540358464E+01  0.000000000E+00  0.00000E+00  9.000E+00
      -3    -1     0     0     0   502  0.000000000E+00  0.000000000E+00 -2.905199283E+03  2.905199283E+03  0.000000000E+00  0.00000E+00  9.000E+00
      25     1     1     2     0     0 -3.598542658E+02 -8.069798351E+01 -1.363613407E+03  1.418123331E+03  1.250000000E+02  0.00000E+00  9.000E+00
      25     1     1     2     0     0  3.004613474E+02  1.685314672E+01 -4.149740411E+02  5.276262926E+02  1.250000000E+02  0.00000E+00  9.000E+00
      -3     1     1     2     0   501  5.939291836E+01  6.384483679E+01 -1.041208250E+03  1.044853244E+03  0.000000000E+00  0.00000E+00  9.000E+00
#rwgt            2           8   2.2769315327715875E-006           9      191236           0
</event>
<event>
      5   9999  3.19816E-02  3.90858E+01 -1.00000E+00  1.45466E-01
      21    -1     0     0   511   501  0.000000000E+00  0.000000000E+00  9.760306371E+02  9.760306371E+02  0.000000000E+00  0.00000E+00  9.000E+00
      21    -1     0     0   501   502  0.000000000E+00  0.000000000E+00 -1.435831242E+02  1.435831242E+02  0.000000000E+00  0.00000E+00  9.000E+00
      25     1     1     2     0     0 -2.856104282E+02  4.173026837E+01  6.492176985E+02  7.214037372E+02  1.250000000E+02  0.00000E+00  9.000E+00
      25     1     1     2     0     0  2.475336754E+02 -5.055431569E+01  8.803411354E+01  2.953026659E+02  1.250000000E+02  0.00000E+00  9.000E+00
      21     1     1     2   511   502  3.807675279E+01  8.824047323E+00  9.519570085E+01  1.029073582E+02  1.348699152E-06  0.00000E+00  9.000E+00
#rwgt            1           1   2.9820567732915346E-002           9      191270           0
</event>
<event>
      5   9999  3.19816E-02  1.15164E+02 -1.00000E+00  1.21132E-01
      21    -1     0     0   502   501  0.000000000E+00  0.000000000E+00  5.431770465E+02  5.431770465E+02  0.000000000E+00  0.00000E+00  9.000E+00
       2    -1     0     0   501     0  0.000000000E+00  0.000000000E+00 -2.878863005E+03  2.878863005E+03  0.000000000E+00  0.00000E+00  9.000E+00
      25     1     1     2     0     0  3.362586180E+02  7.238131158E+02  2.032507951E-01  8.078368190E+02  1.250000000E+02  0.00000E+00  9.000E+00
      25     1     1     2     0     0 -4.415244308E+02 -7.705226247E+02 -1.344541073E+03  1.616188305E+03  1.250000000E+02  0.00000E+00  9.000E+00
       2     1     1     2   502     0  1.052658128E+02  4.670950885E+01 -9.913481357E+02  9.980149276E+02  1.525878906E-05  0.00000E+00  9.000E+00
#rwgt            2          13   1.5566240487478239E-003           9      191444           0
</event>
<event>
      5   9999  3.19816E-02  5.74718E+00 -1.00000E+00  2.28415E-01
      21    -1     0     0   502   511  0.000000000E+00  0.000000000E+00  2.677885081E+02  2.677885081E+02  0.000000000E+00  0.00000E+00  9.000E+00
      21    -1     0     0   501   502  0.000000000E+00  0.000000000E+00 -6.120945601E+02  6.120945601E+02  0.000000000E+00  0.00000E+00  9.000E+00
      25     1     1     2     0     0  1.932353015E+02  1.777562620E+02 -4.708096468E+02  5.533750030E+02  1.250000000E+02  0.00000E+00  9.000E+00
      25     1     1     2     0     0 -1.989822571E+02 -1.778073073E+02  1.266931784E+02  3.207577569E+02  1.250000000E+02  0.00000E+00  9.000E+00
      21     1     1     2   501   511  5.746955577E+00  5.104532201E-02 -1.895837090E-01  5.750308340E+00  5.704683375E-08  0.00000E+00  9.000E+00
#rwgt            1           1   2.9634060016049662E-002           9      191478           0
</event>
<event>
      5   9999  3.19816E-02  4.97484E+02 -1.00000E+00  9.89143E-02
      21    -1     0     0   502   501  0.000000000E+00  0.000000000E+00  7.584619774E+02  7.584619774E+02  0.000000000E+00  0.00000E+00  9.000E+00
      21    -1     0     0   501   512  0.000000000E+00  0.000000000E+00 -7.889099326E+02  7.889099326E+02  0.000000000E+00  0.00000E+00  9.000E+00
      25     1     1     2     0     0 -1.289789205E+02 -7.341750429E+01 -1.489831179E+02  2.446357727E+02  1.250000000E+02  0.00000E+00  9.000E+00
      25     1     1     2     0     0  5.960999399E+02 -9.772016188E+01  3.960804012E+02  7.330682455E+02  1.250000000E+02  0.00000E+00  9.000E+00
      21     1     1     2   502   512 -4.671210194E+02  1.711376662E+02 -2.775452385E+02  5.696678918E+02  7.629394531E-06  0.00000E+00  9.000E+00
#rwgt            2          11   2.3446107466789977E-003           9      192238           0
</event>
<event>
      5   9999  3.19816E-02  2.93929E+02 -1.00000E+00  1.05881E-01
      21    -1     0     0   502   501  0.000000000E+00  0.000000000E+00  1.652462883E+02  1.652462883E+02  0.000000000E+00  0.00000E+00  9.000E+00
       1    -1     0     0   501     0  0.000000000E+00  0.000000000E+00 -2.404982890E+03  2.404982890E+03  0.000000000E+00  0.00000E+00  9.000E+00
      25     1     1     2     0     0  1.371777739E+02 -5.908353588E+00  3.733140979E+01  1.893971606E+02  1.250000000E+02  0.00000E+00  9.000E+00
      25     1     1     2     0     0 -2.621886682E+02  2.719280729E+02 -1.424207167E+03  1.478742314E+03  1.250000000E+02  0.00000E+00  9.000E+00
       1     1     1     2   502     0  1.250108943E+02 -2.660197193E+02 -8.528608444E+02  9.020897043E+02  0.000000000E+00  0.00000E+00  9.000E+00
#rwgt            2          12   5.4132512776950380E-004           9      192288           0
</event>
<event>
      5   9999  3.19816E-02  7.35887E+01 -1.00000E+00  1.30130E-01
       1    -1     0     0   502     0  0.000000000E+00  0.000000000E+00  2.075987541E+03  2.075987541E+03  0.000000000E+00  0.00000E+00  9.000E+00
      21    -1     0     0   501   502  0.000000000E+00  0.000000000E+00 -4.484144452E+02  4.484144452E+02  0.000000000E+00  0.00000E+00  9.000E+00
      25     1     1     2     0     0 -2.697868592E+02  3.568462099E+02  6.050907057E+01  4.684127609E+02  1.250000000E+02  0.00000E+00  9.000E+00
      25     1     1     2     0     0  2.070197921E+02 -3.184328315E+02 -7.958618169E+01  4.076955026E+02  1.250000000E+02  0.00000E+00  9.000E+00
       1     1     1     2   501     0  6.276706708E+01 -3.841337839E+01  1.646650207E+03  1.648293723E+03  3.051757812E-05  0.00000E+00  9.000E+00
#rwgt            1           1   3.4189942758978020E-002           9      192307           0
</event>
<event>
      5   9999  3.19816E-02  1.10173E+02 -1.00000E+00  1.21965E-01
      21    -1     0     0   511   501  0.000000000E+00  0.000000000E+00  5.271727044E+02  5.271727044E+02  0.000000000E+00  0.00000E+00  9.000E+00
      21    -1     0     0   501   502  0.000000000E+00  0.000000000E+00 -6.718538710E+02  6.718538710E+02  0.000000000E+00  0.00000E+00  9.000E+00
      25     1     1     2     0     0  3.561623878E+02  2.409230358E+01  1.227437052E+02  3.976469574E+02  1.250000000E+02  0.00000E+00  9.000E+00
      25     1     1     2     0     0 -4.656960648E+02 -3.594571927E+01 -4.010470066E+02  6.281947318E+02  1.250000000E+02  0.00000E+00  9.000E+00
      21     1     1     2   511   502  1.095336770E+02  1.185341569E+01  1.336221348E+02  1.731848861E+02  3.303624740E-06  0.00000E+00  9.000E+00
#rwgt            1           1   2.8686778042904669E-002           9      192432           0
</event>
<event>
      5   9999  3.19816E-02  2.33452E+02 -1.00000E+00  1.09256E-01
      21    -1     0     0   502   512  0.000000000E+00  0.000000000E+00  2.955958765E+02  2.955958765E+02  0.000000000E+00  0.00000E+00  9.000E+00
      21    -1     0     0   501   502  0.000000000E+00  0.000000000E+00 -6.948038362E+02  6.948038362E+02  0.000000000E+00  0.00000E+00  9.000E+00
      25     1     1     2     0     0  1.629649968E+01  1.187230947E+02 -4.456600759E+02  4.781199142E+02  1.250000000E+02  0.00000E+00  9.000E+00
      25     1     1     2     0     0 -1.625872096E+02  6.320734350E+01 -9.993129937E+01  2.367298747E+02  1.250000000E+02  0.00000E+00  9.000E+00
      21     1     1     2   501   512  1.462907099E+02 -1.819304382E+02  1.463834155E+02  2.755499238E+02  3.303624740E-06  0.00000E+00  9.000E+00
#rwgt            1           1   3.3392037120366744E-002           9      192508           0
</event>
<event>
      5   9999  3.19816E-02  2.28507E+02 -1.00000E+00  1.09581E-01
      21    -1     0     0   502   501  0.000000000E+00  0.000000000E+00  1.049011413E+03  1.049011413E+03  0.000000000E+00  0.00000E+00  9.000E+00
       1    -1     0     0   501     0  0.000000000E+00  0.000000000E+00 -7.717940408E+02  7.717940408E+02  0.000000000E+00  0.00000E+00  9.000E+00
      25     1     1     2     0     0  5.994710856E+02 -1.024633600E+02 -1.929071470E+02  6.501557428E+02  1.250000000E+02  0.00000E+00  9.000E+00
      25     1     1     2     0     0 -6.227679994E+02  3.297791813E+02  5.761094392E+02  9.187607825E+02  1.250000000E+02  0.00000E+00  9.000E+00
       1     1     1     2   502     0  2.329691387E+01 -2.273158212E+02 -1.059849203E+02  2.518889281E+02  0.000000000E+00  0.00000E+00  9.000E+00
#rwgt            1           1   3.0672796282899636E-002           9      192591           0
</event>
<event>
      5   9999  3.46852E-02  3.09399E+01 -1.00000E+00  1.52115E-01
      21    -1     0     0   511   501  0.000000000E+00  0.000000000E+00  1.298686392E+03  1.298686392E+03  0.000000000E+00  0.00000E+00  9.000E+00
      21    -1     0     0   501   502  0.000000000E+00  0.000000000E+00 -2.263634787E+01  2.263634787E+01  0.000000000E+00  0.00000E+00  9.000E+00
      25     1     1     2     0     0  5.680605464E+01  9.193034020E+00  3.035550352E+02  3.332898125E+02  1.250000000E+02  0.00000E+00  9.000E+00
      25     1     1     2     0     0 -5.637193399E+01 -4.012987039E+01  8.312116411E+02  8.434014428E+02  1.250000000E+02  0.00000E+00  9.000E+00
      21     1     1     2   511   502 -4.341206509E-01  3.093683637E+01  1.412833683E+02  1.446314850E+02  1.907348633E-06  0.00000E+00  9.000E+00
#rwgt            1           1   9.8407976879873210E-002           9      192672           0
</event>
<event>
      5   9999  3.19816E-02  2.03017E+01 -1.00000E+00  1.65834E-01
      21    -1     0     0   502   512  0.000000000E+00  0.000000000E+00  1.696768137E+02  1.696768137E+02  0.000000000E+00  0.00000E+00  9.000E+00
      21    -1     0     0   501   502  0.000000000E+00  0.000000000E+00 -3.462623595E+02  3.462623595E+02  0.000000000E+00  0.00000E+00  9.000E+00
      25     1     1     2     0     0 -1.196508984E+02 -7.692227247E+01 -1.072865050E+02  2.176436713E+02  1.250000000E+02  0.00000E+00  9.000E+00
      25     1     1     2     0     0  1.331206067E+02  6.173257770E+01 -1.311839065E+02  2.331656587E+02  1.250000000E+02  0.00000E+00  9.000E+00
      21     1     1     2   501   512 -1.346970829E+01  1.518969477E+01  6.188486568E+01  6.512984315E+01  6.743495762E-07  0.00000E+00  9.000E+00
#rwgt            1           1   2.8418367213364822E-002           9      192773           0
</event>
<event>
      5   9999  3.19816E-02  8.58031E+00 -1.00000E+00  2.03772E-01
      21    -1     0     0   502   501  0.000000000E+00  0.000000000E+00  1.486145801E+01  1.486145801E+01  0.000000000E+00  0.00000E+00  9.000E+00
      21    -1     0     0   501   511  0.000000000E+00  0.000000000E+00 -4.653747054E+03  4.653747054E+03  0.000000000E+00  0.00000E+00  9.000E+00
      25     1     1     2     0     0  1.763463246E+02 -5.546109304E+01 -1.222004818E+03  1.242213643E+03  1.250000000E+02  0.00000E+00  9.000E+00
      25     1     1     2     0     0 -1.840369831E+02  5.165643452E+01 -2.752687350E+03  2.762146021E+03  1.250000000E+02  0.00000E+00  9.000E+00
      21     1     1     2   502   511  7.690658465E+00  3.804658521E+00 -6.641934283E+02  6.642488478E+02  1.078959322E-05  0.00000E+00  9.000E+00
#rwgt            1           1   6.1081212752813127E-003           9      192940           0
</event>
<event>
      5   9999  3.19816E-02  3.06181E+01 -1.00000E+00  1.52427E-01
      21    -1     0     0   502   501  0.000000000E+00  0.000000000E+00  1.271986500E+02  1.271986500E+02  0.000000000E+00  0.00000E+00  9.000E+00
      21    -1     0     0   512   502  0.000000000E+00  0.000000000E+00 -1.105854207E+03  1.105854207E+03  0.000000000E+00  0.00000E+00  9.000E+00
      25     1     1     2     0     0 -7.011425849E+01  2.630304793E+02 -2.803087689E+02  4.102426699E+02  1.250000000E+02  0.00000E+00  9.000E+00
      25     1     1     2     0     0  1.005989774E+02 -2.658851946E+02 -3.298197301E+02  4.530134053E+02  1.250000000E+02  0.00000E+00  9.000E+00
      21     1     1     2   512   501 -3.048471888E+01  2.854715376E+00 -3.685270583E+02  3.697967823E+02  5.394796609E-06  0.00000E+00  9.000E+00
#rwgt            1           1   3.5623540906154216E-002           9      193154           0
</event>
<event>
      5   9999  3.19816E-02  2.45631E+01 -1.00000E+00  1.59327E-01
      21    -1     0     0   511   501  0.000000000E+00  0.000000000E+00  1.220833057E+03  1.220833057E+03  0.000000000E+00  0.00000E+00  9.000E+00
      21    -1     0     0   501   502  0.000000000E+00  0.000000000E+00 -3.723446325E+02  3.723446325E+02  0.000000000E+00  0.00000E+00  9.000E+00
      25     1     1     2     0     0  2.111934205E+02 -2.895240427E+02  2.836759622E+02  4.738395126E+02  1.250000000E+02  0.00000E+00  9.000E+00
      25     1     1     2     0     0 -1.924071302E+02  3.053487088E+02 -1.454108994E+02  4.086901851E+02  1.250000000E+02  0.00000E+00  9.000E+00
      21     1     1     2   511   502 -1.878629032E+01 -1.582466602E+01  7.102233620E+02  7.106479921E+02  1.078959322E-05  0.00000E+00  9.000E+00
#rwgt            1           1   2.9347714482195739E-002           9      193280           0
</event>
<event>
      5   9999  3.19816E-02  5.63347E+01 -1.00000E+00  1.36183E-01
      21    -1     0     0   502   501  0.000000000E+00  0.000000000E+00  8.291806395E+02  8.291806395E+02  0.000000000E+00  0.00000E+00  9.000E+00
      21    -1     0     0   501   512  0.000000000E+00  0.000000000E+00 -7.866835075E+02  7.866835075E+02  0.000000000E+00  0.00000E+00  9.000E+00
      25     1     1     2     0     0 -4.472517847E+02 -4.539114598E+02 -4.067725620E+02  7.662628070E+02  1.250000000E+02  0.00000E+00  9.000E+00
      25     1     1     2     0     0  3.910421252E+02  4.501595501E+02  4.885387667E+02  7.809306569E+02  1.250000000E+02  0.00000E+00  9.000E+00
      21     1     1     2   502   512  5.620965945E+01  3.751909612E+00 -3.926907277E+01  6.867068310E+01  6.743495762E-07  0.00000E+00  9.000E+00
#rwgt            1           1   3.1229569900289664E-002           9      193409           0
</event>
<event>
      5   9999  3.19816E-02  5.12068E+02 -1.00000E+00  9.85586E-02
       2    -1     0     0   502     0  0.000000000E+00  0.000000000E+00  1.707294915E+03  1.707294915E+03  0.000000000E+00  0.00000E+00  9.000E+00
      21    -1     0     0   501   502  0.000000000E+00  0.000000000E+00 -7.035749833E+02  7.035749833E+02  0.000000000E+00  0.00000E+00  9.000E+00
      25     1     1     2     0     0  4.224209188E+02 -6.082649153E+02 -2.655259418E+02  7.965893958E+02  1.250000000E+02  0.00000E+00  9.000E+00
      25     1     1     2     0     0 -8.864685875E+01  2.199244487E+02  1.000878231E+03  1.036150212E+03  1.250000000E+02  0.00000E+00  9.000E+00
       2     1     1     2   501     0 -3.337740601E+02  3.883404665E+02  2.683676425E+02  5.781302904E+02  5.394796609E-06  0.00000E+00  9.000E+00
#rwgt            1           1   2.7132389869090948E-002           9      193550           0
</event>
<event>
      5   9999  3.19816E-02  1.70719E+01 -1.00000E+00  1.72249E-01
      21    -1     0     0   511   501  0.000000000E+00  0.000000000E+00  1.257234638E+03  1.257234638E+03  0.000000000E+00  0.00000E+00  9.000E+00
      21    -1     0     0   501   502  0.000000000E+00  0.000000000E+00 -1.296782940E+02  1.296782940E+02  0.000000000E+00  0.00000E+00  9.000E+00
      25     1     1     2     0     0  2.055902850E+02  7.936717107E+01  1.034109185E+03  1.064694003E+03  1.250000000E+02  0.00000E+00  9.000E+00
      25     1     1     2     0     0 -2.222493596E+02 -7.563541580E+01  4.358905982E+01  2.695190162E+02  1.250000000E+02  0.00000E+00  9.000E+00
      21     1     1     2   511   502  1.665907463E+01 -3.731755271E+00  4.985809936E+01  5.269991306E+01  6.743495762E-07  0.00000E+00  9.000E+00
#rwgt            1           1   1.4793933054262291E-002           9      193596           0
</event>
<event>
      5   9999  3.19816E-02  1.75826E+02 -1.00000E+00  1.13723E-01
      21    -1     0     0   502   501  0.000000000E+00  0.000000000E+00  1.426546650E+02  1.426546650E+02  0.000000000E+00  0.00000E+00  9.000E+00
       2    -1     0     0   501     0  0.000000000E+00  0.000000000E+00 -1.040052549E+03  1.040052549E+03  0.000000000E+00  0.00000E+00  9.000E+00
      25     1     1     2     0     0  1.288325451E+02  1.675364584E+02 -3.318387806E+02  4.128053608E+02  1.250000000E+02  0.00000E+00  9.000E+00
      25     1     1     2     0     0  6.634409444E+00 -2.796230209E+02 -4.913957459E+02  5.790749764E+02  1.250000000E+02  0.00000E+00  9.000E+00
       2     1     1     2   502     0 -1.354669546E+02  1.120865625E+02 -7.416335721E+01  1.908268765E+02  4.156969970E-06  0.00000E+00  9.000E+00
#rwgt            2          13   2.4634484392966374E-004           9      193828           0
</event>
<event>
      5   9999  3.19816E-02  2.13725E+01 -1.00000E+00  1.64025E-01
      21    -1     0     0   511   501  0.000000000E+00  0.000000000E+00  1.042828693E+03  1.042828693E+03  0.000000000E+00  0.00000E+00  9.000E+00
      21    -1     0     0   501   502  0.000000000E+00  0.000000000E+00 -4.468197892E+02  4.468197892E+02  0.000000000E+00  0.00000E+00  9.000E+00
      25     1     1     2     0     0 -5.379319725E+02  1.280942955E+02  2.589888076E+02  6.232809624E+02  1.250000000E+02  0.00000E+00  9.000E+00
      25     1     1     2     0     0  5.588496531E+02 -1.237084516E+02  6.045655014E+01  5.889793801E+02  1.250000000E+02  0.00000E+00  9.000E+00
      21     1     1     2   511   502 -2.091768058E+01 -4.385843914E+00  2.765635460E+02  2.773881395E+02  0.000000000E+00  0.00000E+00  9.000E+00
#rwgt            1           1   2.4823651735301374E-002           9      193847           0
</event>
<event>
      5   9999  3.19816E-02  9.46640E+01 -1.00000E+00  1.24909E-01
      21    -1     0     0   502   501  0.000000000E+00  0.000000000E+00  2.015448793E+02  2.015448793E+02  0.000000000E+00  0.00000E+00  9.000E+00
      21    -1     0     0   512   502  0.000000000E+00  0.000000000E+00 -1.476439628E+03  1.476439628E+03  0.000000000E+00  0.00000E+00  9.000E+00
      25     1     1     2     0     0 -3.083588374E+02 -2.607985883E+02 -8.553733032E+02  9.541433666E+02  1.250000000E+02  0.00000E+00  9.000E+00
      25     1     1     2     0     0  4.000956183E+02  2.374398183E+02 -2.862581567E+02  5.603774651E+02  1.250000000E+02  0.00000E+00  9.000E+00
      21     1     1     2   512   501 -9.173678090E+01  2.335876997E+01 -1.332632888E+02  1.634636756E+02  1.907348633E-06  0.00000E+00  9.000E+00
#rwgt            1           1   2.9350633339448828E-002           9      193993           0
</event>
<event>
      5   9999  3.19816E-02  1.22244E+02 -1.00000E+00  1.20028E-01
      21    -1     0     0   511   501  0.000000000E+00  0.000000000E+00  1.460402698E+03  1.460402698E+03  0.000000000E+00  0.00000E+00  9.000E+00
      21    -1     0     0   501   502  0.000000000E+00  0.000000000E+00 -6.424825211E+02  6.424825211E+02  0.000000000E+00  0.00000E+00  9.000E+00
      25     1     1     2     0     0 -4.398217877E+02  7.900803053E+02  1.329653653E+02  9.224829983E+02  1.250000000E+02  0.00000E+00  9.000E+00
      25     1     1     2     0     0  3.210483060E+02 -7.611586105E+02  5.613951130E+02  1.006590243E+03  1.250000000E+02  0.00000E+00  9.000E+00
      21     1     1     2   511   502  1.187734817E+02 -2.892169477E+01  1.235596984E+02  1.738119773E+02  2.336015456E-06  0.00000E+00  9.000E+00
#rwgt            1           1   3.1814834584295230E-002           9      194050           0
</event>
<event>
      5   9999  3.19816E-02  7.39253E+01 -1.00000E+00  1.30032E-01
      21    -1     0     0   502   501  0.000000000E+00  0.000000000E+00  1.726112170E+02  1.726112170E+02  0.000000000E+00  0.00000E+00  9.000E+00
      21    -1     0     0   512   502  0.000000000E+00  0.000000000E+00 -9.906136481E+02  9.906136481E+02  0.000000000E+00  0.00000E+00  9.000E+00
      25     1     1     2     0     0  3.095809867E+02 -6.280899319E+00 -8.788314663E+01  3.452944895E+02  1.250000000E+02  0.00000E+00  9.000E+00
      25     1     1     2     0     0 -2.369195320E+02 -7.330328329E+00 -4.130821685E+02  4.923885420E+02  1.250000000E+02  0.00000E+00  9.000E+00
      21     1     1     2   512   501 -7.266145467E+01  1.361122765E+01 -3.170371160E+02  3.255418336E+02  5.394796609E-06  0.00000E+00  9.000E+00
#rwgt            1           1   2.8470504603685953E-002           9      194136           0
</event>
<event>
      5   9999  3.19816E-02  1.13192E+02 -1.00000E+00  1.21455E-01
      21    -1     0     0   502   501  0.000000000E+00  0.000000000E+00  1.890298994E+02  1.890298994E+02  0.000000000E+00  0.00000E+00  9.000E+00
       2    -1     0     0   501     0  0.000000000E+00  0.000000000E+00 -2.594271237E+03  2.594271237E+03  0.000000000E+00  0.00000E+00  9.000E+00
      25     1     1     2     0     0 -1.301549248E+02 -1.179270643E+02 -2.226058405E+01  2.167201665E+02  1.250000000E+02  0.00000E+00  9.000E+00
      25     1     1     2     0     0  2.284268831E+02  6.175734763E+01 -1.076797832E+02  2.884661966E+02  1.250000000E+02  0.00000E+00  9.000E+00
       2     1     1     2   502     0 -9.827195823E+01  5.616971664E+01 -2.275300970E+03  2.278114773E+03  4.315837288E-05  0.00000E+00  9.000E+00
#rwgt            1           1   3.1096495128634681E-002           9      194255           0
</event>
<event>
      5   9999  3.19816E-02  2.58006E+01 -1.00000E+00  1.57732E-01
      21    -1     0     0   502   511  0.000000000E+00  0.000000000E+00  1.107785468E+03  1.107785468E+03  0.000000000E+00  0.00000E+00  9.000E+00
      21    -1     0     0   501   502  0.000000000E+00  0.000000000E+00 -5.267368707E+01  5.267368707E+01  0.000000000E+00  0.00000E+00  9.000E+00
      25     1     1     2     0     0 -1.324474867E+02 -9.532278507E+01  2.941048480E+02  3.588194974E+02  1.250000000E+02  0.00000E+00  9.000E+00
      25     1     1     2     0     0  1.452532797E+02  1.177210814E+02  6.549357056E+02  6.924756651E+02  1.250000000E+02  0.00000E+00  9.000E+00
      21     1     1     2   501   511 -1.280579309E+01 -2.239829631E+01  1.060712273E+02  1.091639926E+02  0.000000000E+00  0.00000E+00  9.000E+00
#rwgt            1           1   2.5088854467747730E-002           9      194344           0
</event>
<event>
      5   9999  3.19816E-02  7.34789E+01 -1.00000E+00  1.30163E-01
      21    -1     0     0   502   512  0.000000000E+00  0.000000000E+00  4.302552604E+02  4.302552604E+02  0.000000000E+00  0.00000E+00  9.000E+00
      21    -1     0     0   501   502  0.000000000E+00  0.000000000E+00 -4.612693992E+02  4.612693992E+02  0.000000000E+00  0.00000E+00  9.000E+00
      25     1     1     2     0     0 -4.534218038E+01 -5.079264240E+01  3.376428724E+02  3.664198618E+02  1.250000000E+02  0.00000E+00  9.000E+00
      25     1     1     2     0     0  4.990381673E+01  1.241297886E+02 -4.040107750E+02  4.435631879E+02  1.250000000E+02  0.00000E+00  9.000E+00
      21     1     1     2   501   512 -4.561636355E+00 -7.333714616E+01  3.535376380E+01  8.154160992E+01  1.966049969E-06  0.00000E+00  9.000E+00
#rwgt            1           1   2.6287612032535636E-002           9      194486           0
</event>
<event>
      5   9999  3.19816E-02  5.91179E+01 -1.00000E+00  1.35048E-01
      21    -1     0     0   511   501  0.000000000E+00  0.000000000E+00  1.226377464E+03  1.226377464E+03  0.000000000E+00  0.00000E+00  9.000E+00
      21    -1     0     0   501   502  0.000000000E+00  0.000000000E+00 -1.415535238E+02  1.415535238E+02  0.000000000E+00  0.00000E+00  9.000E+00
      25     1     1     2     0     0 -9.951989211E+01 -1.207932758E+02  6.980855869E+02  7.262532004E+02  1.250000000E+02  0.00000E+00  9.000E+00
      25     1     1     2     0     0  5.009382933E+01  8.835891577E+01 -7.393742356E+01  1.772242431E+02  1.250000000E+02  0.00000E+00  9.000E+00
      21     1     1     2   511   502  4.942606278E+01  3.243436003E+01  4.606757773E+02  4.644535447E+02  5.394796609E-06  0.00000E+00  9.000E+00
#rwgt            1           1   2.8875822116547468E-002           9      194548           0
</event>
<event>
      5   9999  3.19816E-02  1.64132E+01 -1.00000E+00  1.73777E-01
      21    -1     0     0   502   501  0.000000000E+00  0.000000000E+00  6.734734320E+01  6.734734320E+01  0.000000000E+00  0.00000E+00  9.000E+00
      21    -1     0     0   512   502  0.000000000E+00  0.000000000E+00 -1.039411407E+03  1.039411407E+03  0.000000000E+00  0.00000E+00  9.000E+00
      25     1     1     2     0     0 -1.657407065E+02 -9.440959504E+01 -5.941111771E+02  6.363774385E+02  1.250000000E+02  0.00000E+00  9.000E+00
      25     1     1     2     0     0  1.793050779E+02  1.036507931E+02 -2.755423429E+02  3.666638523E+02  1.250000000E+02  0.00000E+00  9.000E+00
      21     1     1     2   512   501 -1.356437136E+01 -9.241198035E+00 -1.024105435E+02  1.037174591E+02  1.348699152E-06  0.00000E+00  9.000E+00
#rwgt            1           1   2.7132046743293014E-002           9      194632           0
</event>
<event>
      5   9999  3.19816E-02  2.82686E+01 -1.00000E+00  1.54855E-01
      21    -1     0     0   502   511  0.000000000E+00  0.000000000E+00  1.848808649E+03  1.848808649E+03  0.000000000E+00  0.00000E+00  9.000E+00
      21    -1     0     0   501   502  0.000000000E+00  0.000000000E+00 -4.205131097E+01  4.205131097E+01  0.000000000E+00  0.00000E+00  9.000E+00
      25     1     1     2     0     0 -3.589116529E+00  4.355744340E+01  1.001130870E+02  1.660053096E+02  1.250000000E+02  0.00000E+00  9.000E+00
      25     1     1     2     0     0  7.728557870E+00 -7.152131220E+01  5.734484338E+02  5.913062954E+02  1.250000000E+02  0.00000E+00  9.000E+00
      21     1     1     2   501   511 -4.139441341E+00  2.796386880E+01  1.133195817E+03  1.133548355E+03  2.157918644E-05  0.00000E+00  9.000E+00
#rwgt            1           1   2.7896759242185664E-002           9      194761           0
</event>
<event>
      5   9999  3.19816E-02  2.11380E+02 -1.00000E+00  1.10780E-01
      21    -1     0     0   502   512  0.000000000E+00  0.000000000E+00  7.848183732E+02  7.848183732E+02  0.000000000E+00  0.00000E+00  9.000E+00
      21    -1     0     0   501   502  0.000000000E+00  0.000000000E+00 -6.573742105E+02  6.573742105E+02  0.000000000E+00  0.00000E+00  9.000E+00
      25     1     1     2     0     0  1.217193727E+02  4.504726033E+02  3.514261855E+02  5.973830730E+02  1.250000000E+02  0.00000E+00  9.000E+00
      25     1     1     2     0     0 -3.315437017E+02 -4.248763405E+02 -2.883208489E+02  6.238549854E+02  1.250000000E+02  0.00000E+00  9.000E+00
      21     1     1     2   501   512  2.098243291E+02 -2.559626280E+01  6.433882602E+01  2.209545254E+02  2.132480600E-06  0.00000E+00  9.000E+00
#rwgt            1           1   2.5005011155432622E-002           9      194911           0
</event>
<event>
      5   9999  3.19816E-02  1.35745E+02 -1.00000E+00  1.18139E-01
      21    -1     0     0   511   501  0.000000000E+00  0.000000000E+00  1.171932256E+03  1.171932256E+03  0.000000000E+00  0.00000E+00  9.000E+00
      21    -1     0     0   501   502  0.000000000E+00  0.000000000E+00 -3.435692185E+02  3.435692185E+02  0.000000000E+00  0.00000E+00  9.000E+00
      25     1     1     2     0     0  1.812904097E+02  1.389025086E+02 -2.462610516E+02  3.583707927E+02  1.250000000E+02  0.00000E+00  9.000E+00
      25     1     1     2     0     0 -1.069174423E+02 -2.534429679E+01  1.546316287E+02  2.271774933E+02  1.250000000E+02  0.00000E+00  9.000E+00
      21     1     1     2   511   502 -7.437296740E+01 -1.135582118E+02  9.199924605E+02  9.299531887E+02  1.078959322E-05  0.00000E+00  9.000E+00
#rwgt            1           1   3.3895079128548361E-002           9      194983           0
</event>
<event>
      5   9999  3.19816E-02  4.60416E+00 -1.00000E+00  2.49860E-01
      21    -1     0     0   502   512  0.000000000E+00  0.000000000E+00  6.952942785E+02  6.952942785E+02  0.000000000E+00  0.00000E+00  9.000E+00
      21    -1     0     0   501   502  0.000000000E+00  0.000000000E+00 -5.365189418E+01  5.365189418E+01  0.000000000E+00  0.00000E+00  9.000E+00
      25     1     1     2     0     0 -6.291857969E+01 -1.086992171E+02  1.840200717E+02  2.554655637E+02  1.250000000E+02  0.00000E+00  9.000E+00
      25     1     1     2     0     0  6.737933681E+01  1.075590544E+02  4.294005690E+02  4.648857643E+02  1.250000000E+02  0.00000E+00  9.000E+00
      21     1     1     2   501   512 -4.460757124E+00  1.140162669E+00  2.822174358E+01  2.859484457E+01  4.768371582E-07  0.00000E+00  9.000E+00
#rwgt            1           1   3.0387915714028022E-002           9      195051           0
</event>
<event>
      5   9999  3.19816E-02  6.15112E+01 -1.00000E+00  1.34129E-01
      21    -1     0     0   502   511  0.000000000E+00  0.000000000E+00  1.547674356E+03  1.547674356E+03  0.000000000E+00  0.00000E+00  9.000E+00
      21    -1     0     0   501   502  0.000000000E+00  0.000000000E+00 -4.889381168E+02  4.889381168E+02  0.000000000E+00  0.00000E+00  9.000E+00
      25     1     1     2     0     0 -4.197068110E+02 -4.522930409E+01  6.191139494E+02  7.596884753E+02  1.250000000E+02  0.00000E+00  9.000E+00
      25     1     1     2     0     0  4.023416304E+02  1.042384157E+02 -3.045539651E+02  5.302099137E+02  1.250000000E+02  0.00000E+00  9.000E+00
      21     1     1     2   501   511  1.736518056E+01 -5.900911160E+01  7.441762551E+02  7.467140841E+02  1.078959322E-05  0.00000E+00  9.000E+00
#rwgt            1           1   3.0524558176324167E-002           9      195380           0
</event>
<event>
      5   9999  3.19816E-02  1.17724E+02 -1.00000E+00  1.20722E-01
      21    -1     0     0   512   501  0.000000000E+00  0.000000000E+00  5.350966824E+01  5.350966824E+01  0.000000000E+00  0.00000E+00  9.000E+00
      21    -1     0     0   501   502  0.000000000E+00  0.000000000E+00 -3.073078797E+03  3.073078797E+03  0.000000000E+00  0.00000E+00  9.000E+00
      25     1     1     2     0     0 -2.300481423E+02  1.556067209E+02 -1.964631885E+03  1.988099354E+03  1.250000000E+02  0.00000E+00  9.000E+00
      25     1     1     2     0     0  1.462344677E+02 -2.382763923E+02 -8.283009388E+02  8.831011289E+02  1.250000000E+02  0.00000E+00  9.000E+00
      21     1     1     2   512   502  8.381367457E+01  8.266967138E+01 -2.266363051E+02  2.553879821E+02  3.814697266E-06  0.00000E+00  9.000E+00
#rwgt            1           1   3.4175621064923577E-002           9      195469           0
</event>
<event>
      5   9999  3.19816E-02  3.37279E+02 -1.00000E+00  1.03965E-01
      21    -1     0     0   502   501  0.000000000E+00  0.000000000E+00  3.627464838E+02  3.627464838E+02  0.000000000E+00  0.00000E+00  9.000E+00
      21    -1     0     0   511   502  0.000000000E+00  0.000000000E+00 -1.896750084E+03  1.896750084E+03  0.000000000E+00  0.00000E+00  9.000E+00
      25     1     1     2     0     0  1.296965605E+01 -4.390321496E+02  1.515729105E+02  4.811619140E+02  1.250000000E+02  0.00000E+00  9.000E+00
      25     1     1     2     0     0 -7.895684124E+01  1.082711475E+02 -2.937402446E+02  3.462154754E+02  1.250000000E+02  0.00000E+00  9.000E+00
      21     1     1     2   511   501  6.598718519E+01  3.307610021E+02 -1.391836266E+03  1.432119179E+03  2.157918644E-05  0.00000E+00  9.000E+00
#rwgt            1           1   2.8089536212190385E-002           9      195516           0
</event>
<event>
      5   9999  3.19816E-02  4.61038E+01 -1.00000E+00  1.41116E-01
      21    -1     0     0   512   501  0.000000000E+00  0.000000000E+00  4.125073501E+02  4.125073501E+02  0.000000000E+00  0.00000E+00  9.000E+00
      21    -1     0     0   501   502  0.000000000E+00  0.000000000E+00 -2.875305327E+02  2.875305327E+02  0.000000000E+00  0.00000E+00  9.000E+00
      25     1     1     2     0     0 -8.147844899E+01  2.322844883E+02 -1.062488409E+02  2.958185886E+02  1.250000000E+02  0.00000E+00  9.000E+00
      25     1     1     2     0     0  1.198934428E+02 -2.067924485E+02  1.445254078E+02  3.060231166E+02  1.250000000E+02  0.00000E+00  9.000E+00
      21     1     1     2   512   502 -3.841499381E+01 -2.549203983E+01  8.670025059E+01  9.819617761E+01  9.536743164E-07  0.00000E+00  9.000E+00
#rwgt            1           1   2.4983029646742611E-002           9      195558           0
</event>
<event>
      5   9999  3.19816E-02  1.12576E+01 -1.00000E+00  1.89992E-01
      21    -1     0     0   511   501  0.000000000E+00  0.000000000E+00  6.377675437E+02  6.377675437E+02  0.000000000E+00  0.00000E+00  9.000E+00
      21    -1     0     0   501   502  0.000000000E+00  0.000000000E+00 -1.645800369E+02  1.645800369E+02  0.000000000E+00  0.00000E+00  9.000E+00
      25     1     1     2     0     0 -4.686239484E+01  7.453471280E+01  5.624545899E+02  5.828650557E+02  1.250000000E+02  0.00000E+00  9.000E+00
      25     1     1     2     0     0  5.648210617E+01 -8.038225123E+01 -1.117551071E+02  1.943340901E+02  1.250000000E+02  0.00000E+00  9.000E+00
      21     1     1     2   511   502 -9.619711330E+00  5.847538436E+00  2.248802397E+01  2.514843482E+01  2.384185791E-07  0.00000E+00  9.000E+00
#rwgt            1           1   2.7361565603234782E-002           9      195650           0
</event>
<event>
      5   9999  3.19816E-02  5.42285E+01 -1.00000E+00  1.37093E-01
      21    -1     0     0   502   512  0.000000000E+00  0.000000000E+00  7.057582304E+02  7.057582304E+02  0.000000000E+00  0.00000E+00  9.000E+00
      21    -1     0     0   501   502  0.000000000E+00  0.000000000E+00 -5.795515292E+02  5.795515292E+02  0.000000000E+00  0.00000E+00  9.000E+00
      25     1     1     2     0     0  7.344944563E+01 -4.646300412E+02 -3.138133487E+02  5.791197752E+02  1.250000000E+02  0.00000E+00  9.000E+00
      25     1     1     2     0     0 -2.134413488E+01  4.796554536E+02  4.133317496E+02  6.457499992E+02  1.250000000E+02  0.00000E+00  9.000E+00
      21     1     1     2   501   512 -5.210531075E+01 -1.502541244E+01  2.668830042E+01  6.043998516E+01  5.840038640E-07  0.00000E+00  9.000E+00
#rwgt            1           1   2.6337838453716213E-002           9      195916           0
</event>
<event>
      5   9999  3.19816E-02  5.15343E+01 -1.00000E+00  1.38331E-01
      21    -1     0     0   502   501  0.000000000E+00  0.000000000E+00  5.968472592E+02  5.968472592E+02  0.000000000E+00  0.00000E+00  9.000E+00
      21    -1     0     0   511   502  0.000000000E+00  0.000000000E+00 -5.352460312E+01  5.352460312E+01  0.000000000E+00  0.00000E+00  9.000E+00
      25     1     1     2     0     0 -6.161301951E+01 -1.549966082E+01  2.230527707E+02  2.634652580E+02  1.250000000E+02  0.00000E+00  9.000E+00
      25     1     1     2     0     0  9.212656235E+01  5.702923122E+01  2.496559332E+02  2.994874316E+02  1.250000000E+02  0.00000E+00  9.000E+00
      21     1     1     2   511   501 -3.051354284E+01 -4.152957040E+01  7.061395218E+01  8.741917271E+01  9.536743164E-07  0.00000E+00  9.000E+00
#rwgt            1           1   4.8783850188348687E-002           9      196010           0
</event>
<event>
      5   9999  3.19816E-02  9.67809E+01 -1.00000E+00  1.24470E-01
      21    -1     0     0   502   512  0.000000000E+00  0.000000000E+00  2.386121622E+02  2.386121622E+02  0.000000000E+00  0.00000E+00  9.000E+00
      21    -1     0     0   501   502  0.000000000E+00  0.000000000E+00 -3.922783997E+02  3.922783997E+02  0.000000000E+00  0.00000E+00  9.000E+00
      25     1     1     2     0     0 -2.309566225E+02  3.306531821E+01 -5.538275968E+01  2.704191687E+02  1.250000000E+02  0.00000E+00  9.000E+00
      25     1     1     2     0     0  2.054016945E+02  6.028070014E+01 -8.843496865E+01  2.631907342E+02  1.250000000E+02  0.00000E+00  9.000E+00
      21     1     1     2   501   512  2.555492800E+01 -9.334601835E+01 -9.848509126E+00  9.728065902E+01  1.221531721E-06  0.00000E+00  9.000E+00
#rwgt            1           1   2.7225237427319214E-002           9      196092           0
</event>
<event>
      5   9999  3.19816E-02  2.44005E+01 -1.00000E+00  1.59544E-01
      21    -1     0     0   502   501  0.000000000E+00  0.000000000E+00  3.788177230E+01  3.788177230E+01  0.000000000E+00  0.00000E+00  9.000E+00
      21    -1     0     0   501   511  0.000000000E+00  0.000000000E+00 -1.495181460E+03  1.495181460E+03  0.000000000E+00  0.00000E+00  9.000E+00
      25     1     1     2     0     0 -9.742467265E+01 -1.340860925E+02 -6.933555389E+02  7.237662263E+02  1.250000000E+02  0.00000E+00  9.000E+00
      25     1     1     2     0     0  1.200833610E+02  1.431398332E+02 -5.529766787E+02  5.969231379E+02  1.250000000E+02  0.00000E+00  9.000E+00
      21     1     1     2   502   511 -2.265868833E+01 -9.053740696E+00 -2.109674703E+02  2.123738682E+02  2.697398305E-06  0.00000E+00  9.000E+00
#rwgt            1           1   2.8597943772529204E-002           9      196175           0
</event>
<event>
      5   9999  3.19816E-02  7.27769E+02 -1.00000E+00  9.44312E-02
      21    -1     0     0   502   501  0.000000000E+00  0.000000000E+00  5.704205347E+02  5.704205347E+02  0.000000000E+00  0.00000E+00  9.000E+00
      21    -1     0     0   512   502  0.000000000E+00  0.000000000E+00 -2.381239340E+03  2.381239340E+03  0.000000000E+00  0.00000E+00  9.000E+00
      25     1     1     2     0     0 -1.392116204E+02  8.523265186E+02 -3.199298248E+02  9.294194222E+02  1.250000000E+02  0.00000E+00  9.000E+00
      25     1     1     2     0     0  2.357350086E+02 -1.309863610E+02  6.525830198E+01  3.043223078E+02  1.250000000E+02  0.00000E+00  9.000E+00
      21     1     1     2   512   501 -9.652338816E+01 -7.213401576E+02 -1.556147283E+03  1.717918145E+03  2.157918644E-05  0.00000E+00  9.000E+00
#rwgt            2          11   6.9088269420983261E-004           9      196448           0
</event>
<event>
      5   9999  3.19816E-02  1.51729E+02 -1.00000E+00  1.16197E-01
      21    -1     0     0   502   501  0.000000000E+00  0.000000000E+00  4.895167087E+02  4.895167087E+02  0.000000000E+00  0.00000E+00  9.000E+00
      21    -1     0     0   501   511  0.000000000E+00  0.000000000E+00 -8.808923535E+02  8.808923535E+02  0.000000000E+00  0.00000E+00  9.000E+00
      25     1     1     2     0     0  2.114649895E+02  4.581400091E+01  3.255861261E+02  4.104237931E+02  1.250000000E+02  0.00000E+00  9.000E+00
      25     1     1     2     0     0 -2.822203347E+02  8.840693769E+01 -1.179477867E+02  3.420537740E+02  1.250000000E+02  0.00000E+00  9.000E+00
      21     1     1     2   502   511  7.075534515E+01 -1.342209386E+02 -5.990139843E+02  6.179314951E+02  0.000000000E+00  0.00000E+00  9.000E+00
#rwgt            1           1   2.9352677141707795E-002           9      196468           0
</event>
<event>
      5   9999  3.19816E-02  4.45184E+01 -1.00000E+00  1.42015E-01
      21    -1     0     0   502   501  0.000000000E+00  0.000000000E+00  1.131548966E+03  1.131548966E+03  0.000000000E+00  0.00000E+00  9.000E+00
      21    -1     0     0   501   512  0.000000000E+00  0.000000000E+00 -1.083127775E+03  1.083127775E+03  0.000000000E+00  0.00000E+00  9.000E+00
      25     1     1     2     0     0  4.410544862E+02  1.666131309E+02  9.742316013E+02  1.089514207E+03  1.250000000E+02  0.00000E+00  9.000E+00
      25     1     1     2     0     0 -4.374585707E+02 -2.109860256E+02 -5.406446243E+02  7.374325148E+02  1.250000000E+02  0.00000E+00  9.000E+00
      21     1     1     2   502   512 -3.595915526E+00  4.437289470E+01 -3.851657866E+02  3.877300189E+02  5.394796609E-06  0.00000E+00  9.000E+00
#rwgt            1           1   2.8957004381204705E-002           9      196523           0
</event>
<event>
      5   9999  3.19816E-02  3.58416E+01 -1.00000E+00  1.47860E-01
      21    -1     0     0   502   501  0.000000000E+00  0.000000000E+00  1.314301851E+02  1.314301851E+02  0.000000000E+00  0.00000E+00  9.000E+00
       1    -1     0     0   501     0  0.000000000E+00  0.000000000E+00 -1.219485068E+03  1.219485068E+03  0.000000000E+00  0.00000E+00  9.000E+00
      25     1     1     2     0     0 -8.399121792E+01  2.141076264E+02 -8.367586342E+02  8.767477472E+02  1.250000000E+02  0.00000E+00  9.000E+00
      25     1     1     2     0     0  5.587531635E+01 -2.363363325E+02 -6.013474996E+01  2.796749921E+02  1.250000000E+02  0.00000E+00  9.000E+00
       1     1     1     2   502     0  2.811590157E+01  2.222870610E+01 -1.911614984E+02  1.944925134E+02  3.814697266E-06  0.00000E+00  9.000E+00
#rwgt            1           1   3.0122774963724924E-002           9      196723           0
</event>
<event>
      5   9999  3.19816E-02  5.96279E+01 -1.00000E+00  1.34848E-01
      21    -1     0     0   502   501  0.000000000E+00  0.000000000E+00  3.226027315E+01  3.226027315E+01  0.000000000E+00  0.00000E+00  9.000E+00
      21    -1     0     0   511   502  0.000000000E+00  0.000000000E+00 -2.432315328E+03  2.432315328E+03  0.000000000E+00  0.00000E+00  9.000E+00
      25     1     1     2     0     0  1.557053734E+02 -5.953213094E+01 -1.012322160E+03  1.033542158E+03  1.250000000E+02  0.00000E+00  9.000E+00
      25     1     1     2     0     0 -1.082142354E+02  2.347556587E+01 -3.139785130E+02  3.556247032E+02  1.250000000E+02  0.00000E+00  9.000E+00
      21     1     1     2   511   501 -4.749113797E+01  3.605656507E+01 -1.073754382E+03  1.075408739E+03  1.525878906E-05  0.00000E+00  9.000E+00
#rwgt            1           1   3.2547688462838065E-002           9      196852           0
</event>
<event>
      5   9999  3.19816E-02  1.25412E+02 -1.00000E+00  1.19561E-01
      21    -1     0     0   512   501  0.000000000E+00  0.000000000E+00  1.275866087E+03  1.275866087E+03  0.000000000E+00  0.00000E+00  9.000E+00
      21    -1     0     0   501   502  0.000000000E+00  0.000000000E+00 -4.093557030E+02  4.093557030E+02  0.000000000E+00  0.00000E+00  9.000E+00
      25     1     1     2     0     0 -5.316208988E+02  2.132295524E+02  7.078960163E+02  9.191460123E+02  1.250000000E+02  0.00000E+00  9.000E+00
      25     1     1     2     0     0  4.179267497E+02 -2.661618532E+02 -5.951601056E+01  5.144628808E+02  1.250000000E+02  0.00000E+00  9.000E+00
      21     1     1     2   512   502  1.136941491E+02  5.293230081E+01  2.181303782E+02  2.516128969E+02  2.697398305E-06  0.00000E+00  9.000E+00
#rwgt            1           1   3.2680602463711836E-002           9      196894           0
</event>
<event>
      5   9999  3.19816E-02  9.34908E+01 -1.00000E+00  1.25157E-01
      21    -1     0     0   511   501  0.000000000E+00  0.000000000E+00  3.222584347E+03  3.222584347E+03  0.000000000E+00  0.00000E+00  9.000E+00
      21    -1     0     0   501   502  0.000000000E+00  0.000000000E+00 -7.199051546E+02  7.199051546E+02  0.000000000E+00  0.00000E+00  9.000E+00
      25     1     1     2     0     0 -2.401246365E+02  1.427701745E+03  1.111295690E+03  1.829370171E+03  1.250000000E+02  0.00000E+00  9.000E+00
      25     1     1     2     0     0  1.634785479E+02 -1.481235989E+03  1.287255497E+03  1.973179416E+03  1.250000000E+02  0.00000E+00  9.000E+00
      21     1     1     2   511   502  7.664608856E+01  5.353424446E+01  1.041280060E+02  1.399399151E+02  2.336015456E-06  0.00000E+00  9.000E+00
#rwgt            1           1   3.8407810449907834E-002           9      196941           0
</event>
<event>
      5   9999  3.19816E-02  1.25368E+01 -1.00000E+00  1.85052E-01
      21    -1     0     0   502   512  0.000000000E+00  0.000000000E+00  1.820073686E+02  1.820073686E+02  0.000000000E+00  0.00000E+00  9.000E+00
      21    -1     0     0   501   502  0.000000000E+00  0.000000000E+00 -2.280905861E+02  2.280905861E+02  0.000000000E+00  0.00000E+00  9.000E+00
      25     1     1     2     0     0 -1.124950447E+02 -4.572495791E+01  3.902041421E+01  1.785875124E+02  1.250000000E+02  0.00000E+00  9.000E+00
      25     1     1     2     0     0  1.029844194E+02  3.755676295E+01 -1.129344241E+02  2.009862812E+02  1.250000000E+02  0.00000E+00  9.000E+00
      21     1     1     2   501   512  9.510625310E+00  8.168194961E+00  2.783079239E+01  3.052416105E+01  5.840038640E-07  0.00000E+00  9.000E+00
#rwgt            1           1   2.9234248604048808E-002           9      197060           0
</event>
<event>
      5   9999  3.19816E-02  3.84605E+01 -1.00000E+00  1.45905E-01
      21    -1     0     0   502   501  0.000000000E+00  0.000000000E+00  4.104431664E+02  4.104431664E+02  0.000000000E+00  0.00000E+00  9.000E+00
      21    -1     0     0   501   511  0.000000000E+00  0.000000000E+00 -8.689613159E+02  8.689613159E+02  0.000000000E+00  0.00000E+00  9.000E+00
      25     1     1     2     0     0 -2.163362052E+02 -2.204097727E+02 -2.380531914E+02  4.094827756E+02  1.250000000E+02  0.00000E+00  9.000E+00
      25     1     1     2     0     0  2.399969627E+02  1.900885203E+02  2.395259761E+02  4.083257044E+02  1.250000000E+02  0.00000E+00  9.000E+00
      21     1     1     2   502   511 -2.366075755E+01  3.032125240E+01 -4.599909342E+02  4.615960023E+02  0.000000000E+00  0.00000E+00  9.000E+00
#rwgt            1           1   2.6833466263919272E-002           9      197204           0
</event>
<event>
      5   9999  3.19816E-02  5.24287E+01 -1.00000E+00  1.37910E-01
      21    -1     0     0   512   501  0.000000000E+00  0.000000000E+00  3.024065923E+02  3.024065923E+02  0.000000000E+00  0.00000E+00  9.000E+00
      21    -1     0     0   501   502  0.000000000E+00  0.000000000E+00 -4.816477275E+02  4.816477275E+02  0.000000000E+00  0.00000E+00  9.000E+00
      25     1     1     2     0     0 -2.796649946E+02 -1.744856759E+01  5.704502052E+01  3.120834762E+02  1.250000000E+02  0.00000E+00  9.000E+00
      25     1     1     2     0     0  2.748290790E+02 -3.475662954E+01 -2.725481823E+02  4.082236613E+02  1.250000000E+02  0.00000E+00  9.000E+00
      21     1     1     2   512   502  4.835915600E+00  5.220519712E+01  3.626202653E+01  6.374718233E+01  6.743495762E-07  0.00000E+00  9.000E+00
#rwgt            1           1   2.9163724181705583E-002           9      197345           0
</event>
<event>
      5   9999  3.19816E-02  4.89864E+01 -1.00000E+00  1.39585E-01
      21    -1     0     0   502   511  0.000000000E+00  0.000000000E+00  1.876632856E+03  1.876632856E+03  0.000000000E+00  0.00000E+00  9.000E+00
      21    -1     0     0   501   502  0.000000000E+00  0.000000000E+00 -3.989244350E+02  3.989244350E+02  0.000000000E+00  0.00000E+00  9.000E+00
      25     1     1     2     0     0  7.387674773E+01  3.102533955E+02  3.984925896E+02  5.254867146E+02  1.250000000E+02  0.00000E+00  9.000E+00
      25     1     1     2     0     0 -8.660954661E+01 -3.575560680E+02 -2.222892730E+02  4.476439168E+02  1.250000000E+02  0.00000E+00  9.000E+00
      21     1     1     2   501   511  1.273279889E+01  4.730267253E+01  1.301505104E+03  1.302426660E+03  1.525878906E-05  0.00000E+00  9.000E+00
#rwgt            1           1   2.7607155331256961E-002           9      197419           0
</event>
<event>
      5   9999  3.19816E-02  1.30175E+02 -1.00000E+00  1.18887E-01
      21    -1     0     0   502   501  0.000000000E+00  0.000000000E+00  2.413207190E+02  2.413207190E+02  0.000000000E+00  0.00000E+00  9.000E+00
      21    -1     0     0   512   502  0.000000000E+00  0.000000000E+00 -3.859727003E+03  3.859727003E+03  0.000000000E+00  0.00000E+00  9.000E+00
      25     1     1     2     0     0  2.015619438E+02 -2.942878093E+02 -1.077502699E+03  1.141871096E+03  1.250000000E+02  0.00000E+00  9.000E+00
      25     1     1     2     0     0 -2.715772194E+02  4.040296741E+02 -9.709671668E+01  5.119052022E+02  1.250000000E+02  0.00000E+00  9.000E+00
      21     1     1     2   512   501  7.001527563E+01 -1.097418648E+02 -2.443806868E+03  2.447271424E+03  4.315837288E-05  0.00000E+00  9.000E+00
#rwgt            1           1   2.7102504905435278E-002           9      197591           0
</event>
<event>
      5   9999  3.19816E-02  3.08341E+02 -1.00000E+00  1.05206E-01
       2    -1     0     0   502     0  0.000000000E+00  0.000000000E+00  4.492504662E+03  4.492504662E+03  0.000000000E+00  0.00000E+00  9.000E+00
      21    -1     0     0   501   502  0.000000000E+00  0.000000000E+00 -4.107148518E+02  4.107148518E+02  0.000000000E+00  0.00000E+00  9.000E+00
      25     1     1     2     0     0 -8.824805208E+02  5.190453947E+02  7.218517634E+02  1.258918170E+03  1.250000000E+02  0.00000E+00  9.000E+00
      25     1     1     2     0     0  7.267165061E+02 -7.851496489E+02  2.287374424E+03  2.528296582E+03  1.250000000E+02  0.00000E+00  9.000E+00
       2     1     1     2   501     0  1.557640147E+02  2.661042542E+02  1.072563623E+03  1.116004761E+03  0.000000000E+00  0.00000E+00  9.000E+00
#rwgt            1           1   1.4982824780712023E-002           9      197670           0
</event>
<event>
      5   9999  3.19816E-02  4.52411E+01 -1.00000E+00  1.41600E-01
      21    -1     0     0   502   501  0.000000000E+00  0.000000000E+00  4.758976707E+02  4.758976707E+02  0.000000000E+00  0.00000E+00  9.000E+00
      21    -1     0     0   501   511  0.000000000E+00  0.000000000E+00 -1.552421371E+02  1.552421371E+02  0.000000000E+00  0.00000E+00  9.000E+00
      25     1     1     2     0     0  4.913922042E+01  1.868398404E+02  1.924967309E+01  2.309098068E+02  1.250000000E+02  0.00000E+00  9.000E+00
      25     1     1     2     0     0 -1.220299544E+01 -1.607157133E+02  2.882463787E+02  3.531139029E+02  1.250000000E+02  0.00000E+00  9.000E+00
      21     1     1     2   502   511 -3.693622498E+01 -2.612412712E+01  1.315948179E+01  4.711609804E+01  7.348554138E-07  0.00000E+00  9.000E+00
#rwgt            1           1   2.8166580963330658E-002           9      197723           0
</event>
<event>
      5   9999  3.19816E-02  1.90809E+01 -1.00000E+00  1.68073E-01
      21    -1     0     0   502   501  0.000000000E+00  0.000000000E+00  1.887194767E+02  1.887194767E+02  0.000000000E+00  0.00000E+00  9.000E+00
      -2    -1     0     0     0   502  0.000000000E+00  0.000000000E+00 -5.933542514E+02  5.933542514E+02  0.000000000E+00  0.00000E+00  9.000E+00
      25     1     1     2     0     0  3.012532350E+01  2.057135015E+02 -1.084921567E+02  2.657463600E+02  1.250000000E+02  0.00000E+00  9.000E+00
      25     1     1     2     0     0 -1.222457740E+01 -2.123198058E+02 -2.886478732E+01  2.483693141E+02  1.250000000E+02  0.00000E+00  9.000E+00
      -2     1     1     2     0   501 -1.790074610E+01  6.606304315E+00 -2.672778307E+02  2.679580541E+02  3.814697266E-06  0.00000E+00  9.000E+00
#rwgt            1           1   2.5498934927871909E-002           9      197863           0
</event>
<event>
      5   9999  3.19816E-02  1.08383E+02 -1.00000E+00  1.22276E-01
      21    -1     0     0   502   511  0.000000000E+00  0.000000000E+00  1.163551194E+03  1.163551194E+03  0.000000000E+00  0.00000E+00  9.000E+00
      21    -1     0     0   501   502  0.000000000E+00  0.000000000E+00 -1.026774475E+02  1.026774475E+02  0.000000000E+00  0.00000E+00  9.000E+00
      25     1     1     2     0     0  3.502107087E+00 -3.163580688E+01  6.407422616E+02  6.535967678E+02  1.250000000E+02  0.00000E+00  9.000E+00
      25     1     1     2     0     0  5.465217285E+01  1.230961106E+02  5.249075437E+00  1.838261821E+02  1.250000000E+02  0.00000E+00  9.000E+00
      21     1     1     2   501   511 -5.815427993E+01 -9.146030370E+01  4.148824096E+02  4.288056917E+02  0.000000000E+00  0.00000E+00  9.000E+00
#rwgt            1           1   2.8831303493767148E-002           9      197951           0
</event>
<event>
      5   9999  3.19816E-02  3.93014E+01 -1.00000E+00  1.45316E-01
       2    -1     0     0   502     0  0.000000000E+00  0.000000000E+00  1.321829694E+03  1.321829694E+03  0.000000000E+00  0.00000E+00  9.000E+00
      21    -1     0     0   501   502  0.000000000E+00  0.000000000E+00 -6.920023628E+02  6.920023628E+02  0.000000000E+00  0.00000E+00  9.000E+00
      25     1     1     2     0     0  6.949938715E+02  2.951584394E+02 -2.013219422E+01  7.656143226E+02  1.250000000E+02  0.00000E+00  9.000E+00
      25     1     1     2     0     0 -7.177015953E+02 -3.272358161E+02  2.365192684E+02  8.329136951E+02  1.250000000E+02  0.00000E+00  9.000E+00
       2     1     1     2   501     0  2.270772383E+01  3.207737670E+01  4.134402570E+02  4.153040392E+02  0.000000000E+00  0.00000E+00  9.000E+00
#rwgt            1           1   3.3314873691385471E-002           9      198038           0
</event>
<event>
      5   9999  3.19816E-02  1.61634E+01 -1.00000E+00  1.74381E-01
      21    -1     0     0   502   501  0.000000000E+00  0.000000000E+00  4.472378541E+02  4.472378541E+02  0.000000000E+00  0.00000E+00  9.000E+00
      21    -1     0     0   501   511  0.000000000E+00  0.000000000E+00 -1.253813892E+02  1.253813892E+02  0.000000000E+00  0.00000E+00  9.000E+00
      25     1     1     2     0     0  9.325839462E+01 -1.463666234E+02  2.199277015E+02  3.067792537E+02  1.250000000E+02  0.00000E+00  9.000E+00
      25     1     1     2     0     0 -9.966684117E+01  1.612052913E+02  1.036647621E+02  2.495836695E+02  1.250000000E+02  0.00000E+00  9.000E+00
      21     1     1     2   502   511  6.408446551E+00 -1.483866788E+01 -1.735998698E+00  1.625632010E+01  1.562846971E-07  0.00000E+00  9.000E+00
#rwgt            1           1   2.8558957955115784E-002           9      198186           0
</event>
<event>
      5   9999  3.19816E-02  1.30773E+02 -1.00000E+00  1.18805E-01
       2    -1     0     0   502     0  0.000000000E+00  0.000000000E+00  2.819167534E+02  2.819167534E+02  0.000000000E+00  0.00000E+00  9.000E+00
      21    -1     0     0   501   502  0.000000000E+00  0.000000000E+00 -1.390534976E+03  1.390534976E+03  0.000000000E+00  0.00000E+00  9.000E+00
      25     1     1     2     0     0  3.630422741E+02 -2.444144012E+02 -5.266253443E+02  6.960584354E+02  1.250000000E+02  0.00000E+00  9.000E+00
      25     1     1     2     0     0 -2.355357589E+02  2.734608814E+02 -7.018215394E+02  7.990221653E+02  1.250000000E+02  0.00000E+00  9.000E+00
       2     1     1     2   501     0 -1.275065152E+02 -2.904648023E+01  1.198286609E+02  1.773711290E+02  4.672030912E-06  0.00000E+00  9.000E+00
#rwgt            1           1   1.3690796834692241E-002           9      198332           0
</event>
<event>
      5   9999  3.19816E-02  1.81762E+01 -1.00000E+00  1.69870E-01
      21    -1     0     0   511   501  0.000000000E+00  0.000000000E+00  1.081610863E+03  1.081610863E+03  0.000000000E+00  0.00000E+00  9.000E+00
      21    -1     0     0   501   502  0.000000000E+00  0.000000000E+00 -4.124524891E+02  4.124524891E+02  0.000000000E+00  0.00000E+00  9.000E+00
      25     1     1     2     0     0 -1.460758180E+01  3.614295371E+02  5.647363124E+02  6.821999665E+02  1.250000000E+02  0.00000E+00  9.000E+00
      25     1     1     2     0     0 -1.432974840E+00 -3.699779488E+02 -2.456225887E+02  4.613471493E+02  1.250000000E+02  0.00000E+00  9.000E+00
      21     1     1     2   511   502  1.604055664E+01  8.548411757E+00  3.500446503E+02  3.505162365E+02  0.000000000E+00  0.00000E+00  9.000E+00
#rwgt            1           1   3.2710631109333553E-002           9      198373           0
</event>
<event>
      5   9999  3.19816E-02  3.78680E+02 -1.00000E+00  1.02406E-01
      21    -1     0     0   502   501  0.000000000E+00  0.000000000E+00  5.822730794E+02  5.822730794E+02  0.000000000E+00  0.00000E+00  9.000E+00
      -3    -1     0     0     0   502  0.000000000E+00  0.000000000E+00 -1.091821706E+03  1.091821706E+03  0.000000000E+00  0.00000E+00  9.000E+00
      25     1     1     2     0     0  4.566005697E+02 -2.267578703E+02  2.343058746E+02  5.748281959E+02  1.250000000E+02  0.00000E+00  9.000E+00
      25     1     1     2     0     0 -2.234023828E+02 -7.159943294E+01 -6.598507907E+02  7.113811703E+02  1.250000000E+02  0.00000E+00  9.000E+00
      -3     1     1     2     0   501 -2.331981868E+02  2.983573033E+02 -8.400371010E+01  3.878854187E+02  9.097473158E-06  0.00000E+00  9.000E+00
#rwgt            2           8   2.2797605654084436E-005           9      198671           0
</event>
<event>
      5   9999  3.19816E-02  1.01601E+02 -1.00000E+00  1.23518E-01
      21    -1     0     0   502   501  0.000000000E+00  0.000000000E+00  1.239286171E+03  1.239286171E+03  0.000000000E+00  0.00000E+00  9.000E+00
       1    -1     0     0   501     0  0.000000000E+00  0.000000000E+00 -6.381026567E+02  6.381026567E+02  0.000000000E+00  0.00000E+00  9.000E+00
      25     1     1     2     0     0  2.540152780E+02  6.260094754E+01  9.299288173E+02  9.740817446E+02  1.250000000E+02  0.00000E+00  9.000E+00
      25     1     1     2     0     0 -1.743012339E+02 -1.255966152E+02  2.280465272E+02  3.373212837E+02  1.250000000E+02  0.00000E+00  9.000E+00
       1     1     1     2   502     0 -7.971404413E+01  6.299566764E+01 -5.567918301E+02  5.659857994E+02  7.629394531E-06  0.00000E+00  9.000E+00
#rwgt            1           1   2.9271797100189859E-002           9      198705           0
</event>
<event>
      5   9999  3.19816E-02  3.03013E+01 -1.00000E+00  1.52739E-01
      21    -1     0     0   502   511  0.000000000E+00  0.000000000E+00  8.923968082E+02  8.923968082E+02  0.000000000E+00  0.00000E+00  9.000E+00
      21    -1     0     0   501   502  0.000000000E+00  0.000000000E+00 -1.112020640E+02  1.112020640E+02  0.000000000E+00  0.00000E+00  9.000E+00
      25     1     1     2     0     0 -2.378664218E+01  2.502117343E+02  2.583699131E+02  3.815124223E+02  1.250000000E+02  0.00000E+00  9.000E+00
      25     1     1     2     0     0  5.068455922E+01 -2.641641349E+02  4.150991232E+02  5.101802592E+02  1.250000000E+02  0.00000E+00  9.000E+00
      21     1     1     2   501   511 -2.689791704E+01  1.395240063E+01  1.077257078E+02  1.119061908E+02  1.907348633E-06  0.00000E+00  9.000E+00
#rwgt            1           1   2.1955443933523285E-002           9      198748           0
</event>
<event>
      5   9999  3.19816E-02  9.79882E+01 -1.00000E+00  1.24226E-01
      21    -1     0     0   512   501  0.000000000E+00  0.000000000E+00  6.094466224E+02  6.094466224E+02  0.000000000E+00  0.00000E+00  9.000E+00
      21    -1     0     0   501   502  0.000000000E+00  0.000000000E+00 -1.141439530E+03  1.141439530E+03  0.000000000E+00  0.00000E+00  9.000E+00
      25     1     1     2     0     0 -6.819369780E+01  5.873595159E+02 -7.196773878E+02  9.397883399E+02  1.250000000E+02  0.00000E+00  9.000E+00
      25     1     1     2     0     0  1.326381220E+02 -6.611741957E+02  1.320960668E+02  6.984400900E+02  1.250000000E+02  0.00000E+00  9.000E+00
      21     1     1     2   512   502 -6.444442423E+01  7.381467978E+01  5.558841329E+01  1.126577226E+02  2.023048729E-06  0.00000E+00  9.000E+00
#rwgt            1           1   2.6909096664675277E-002           9      198898           0
</event>
<event>
      5   9999  3.19816E-02  7.38380E+02 -1.00000E+00  9.42688E-02
      21    -1     0     0   502   501  0.000000000E+00  0.000000000E+00  2.778863170E+03  2.778863170E+03  0.000000000E+00  0.00000E+00  9.000E+00
      21    -1     0     0   501   511  0.000000000E+00  0.000000000E+00 -4.870907998E+02  4.870907998E+02  0.000000000E+00  0.00000E+00  9.000E+00
      25     1     1     2     0     0  1.619961607E+02  4.688646333E+02  1.007718840E+02  5.213988617E+02  1.250000000E+02  0.00000E+00  9.000E+00
      25     1     1     2     0     0 -5.101021861E+02  1.823089118E+02  1.849091023E+03  1.930855611E+03  1.250000000E+02  0.00000E+00  9.000E+00
      21     1     1     2   502   511  3.481060255E+02 -6.511735450E+02  3.419094636E+02  8.136994973E+02  1.662787988E-05  0.00000E+00  9.000E+00
#rwgt            2          11   1.2981834421474834E-003           9      199120           0
</event>
<event>
      5   9999  3.19816E-02  6.44828E+01 -1.00000E+00  1.33052E-01
      21    -1     0     0   502   501  0.000000000E+00  0.000000000E+00  4.273557748E+01  4.273557748E+01  0.000000000E+00  0.00000E+00  9.000E+00
       1    -1     0     0   501     0  0.000000000E+00  0.000000000E+00 -3.908155245E+03  3.908155245E+03  0.000000000E+00  0.00000E+00  9.000E+00
      25     1     1     2     0     0  2.963852948E+02  1.277928409E+01 -2.863600902E+03  2.881638887E+03  1.250000000E+02  0.00000E+00  9.000E+00
      25     1     1     2     0     0 -2.558852042E+02 -6.295665846E+01 -6.624796558E+02  7.238405024E+02  1.250000000E+02  0.00000E+00  9.000E+00
       1     1     1     2   502     0 -4.050009064E+01  5.017737436E+01 -3.393391104E+02  3.454114330E+02  0.000000000E+00  0.00000E+00  9.000E+00
#rwgt            1           1   1.5496567056065761E-002           9      199140           0
</event>
<event>
      5   9999  3.19816E-02  7.18987E+00 -1.00000E+00  2.13924E-01
      21    -1     0     0   502   501  0.000000000E+00  0.000000000E+00  4.355762302E+02  4.355762302E+02  0.000000000E+00  0.00000E+00  9.000E+00
      21    -1     0     0   511   502  0.000000000E+00  0.000000000E+00 -3.106621279E+02  3.106621279E+02  0.000000000E+00  0.00000E+00  9.000E+00
      25     1     1     2     0     0  1.605108798E+02 -4.967237857E+01 -2.310961997E+02  3.118678265E+02  1.250000000E+02  0.00000E+00  9.000E+00
      25     1     1     2     0     0 -1.672148458E+02  4.707408571E+01  3.648438160E+02  4.229808320E+02  1.250000000E+02  0.00000E+00  9.000E+00
      21     1     1     2   511   501  6.703966080E+00  2.598292856E+00 -8.833513966E+00  1.138969956E+01  0.000000000E+00  0.00000E+00  9.000E+00
#rwgt            1           1   3.1033902611866709E-002           9      199224           0
</event>
<event>
      5   9999  3.19816E-02  1.91691E+01 -1.00000E+00  1.67904E-01
      21    -1     0     0   502   501  0.000000000E+00  0.000000000E+00  1.300588720E+03  1.300588720E+03  0.000000000E+00  0.00000E+00  9.000E+00
      21    -1     0     0   501   512  0.000000000E+00  0.000000000E+00 -3.107942605E+01  3.107942605E+01  0.000000000E+00  0.00000E+00  9.000E+00
      25     1     1     2     0     0 -1.279984035E+02 -2.256856266E+01  4.503267102E+02  4.850897620E+02  1.250000000E+02  0.00000E+00  9.000E+00
      25     1     1     2     0     0  1.462659158E+02  1.675888032E+01  7.683721942E+02  7.922723061E+02  1.250000000E+02  0.00000E+00  9.000E+00
      21     1     1     2   502   512 -1.826751224E+01  5.809682336E+00  5.081038977E+01  5.430607812E+01  6.743495762E-07  0.00000E+00  9.000E+00
#rwgt            1           1   2.3012924008101159E-002           9      199512           0
</event>
<event>
      5   9999  3.19816E-02  6.47907E+01 -1.00000E+00  1.32945E-01
      21    -1     0     0   502   501  0.000000000E+00  0.000000000E+00  2.810064548E+02  2.810064548E+02  0.000000000E+00  0.00000E+00  9.000E+00
      21    -1     0     0   511   502  0.000000000E+00  0.000000000E+00 -1.537363951E+03  1.537363951E+03  0.000000000E+00  0.00000E+00  9.000E+00
      25     1     1     2     0     0 -3.959052734E+02 -3.103879290E+01 -5.871198684E+01  4.204479630E+02  1.250000000E+02  0.00000E+00  9.000E+00
      25     1     1     2     0     0  4.049012733E+02 -3.312431493E+01 -3.578441786E+02  5.556255191E+02  1.250000000E+02  0.00000E+00  9.000E+00
      21     1     1     2   511   501 -8.995999853E+00  6.416310782E+01 -8.398013312E+02  8.422969241E+02  1.078959322E-05  0.00000E+00  9.000E+00
#rwgt            1           1   2.2912599785796080E-002           9      199624           0
</event>
<event>
      5   9999  3.19816E-02  2.03948E+01 -1.00000E+00  1.65672E-01
      21    -1     0     0   502   501  0.000000000E+00  0.000000000E+00  5.610663166E+02  5.610663166E+02  0.000000000E+00  0.00000E+00  9.000E+00
      21    -1     0     0   501   512  0.000000000E+00  0.000000000E+00 -4.382340239E+02  4.382340239E+02  0.000000000E+00  0.00000E+00  9.000E+00
      25     1     1     2     0     0  3.536656024E+02 -8.034660337E+01  1.218067307E+02  4.024882788E+02  1.250000000E+02  0.00000E+00  9.000E+00
      25     1     1     2     0     0 -3.729321528E+02  8.703602403E+01  1.622627961E+02  4.342900817E+02  1.250000000E+02  0.00000E+00  9.000E+00
      21     1     1     2   502   512  1.926655044E+01 -6.689420654E+00 -1.612372341E+02  1.625219799E+02  1.907348633E-06  0.00000E+00  9.000E+00
#rwgt            1           1   2.4699075092682345E-002           9      199740           0
</event>
<event>
      5   9999  3.19816E-02  8.31173E+01 -1.00000E+00  1.27551E-01
      21    -1     0     0   502   501  0.000000000E+00  0.000000000E+00  1.529000615E+03  1.529000615E+03  0.000000000E+00  0.00000E+00  9.000E+00
      21    -1     0     0   511   502  0.000000000E+00  0.000000000E+00 -3.658637439E+02  3.658637439E+02  0.000000000E+00  0.00000E+00  9.000E+00
      25     1     1     2     0     0  3.496592033E+02  2.257916163E+02  1.463491534E+02  4.585700461E+02  1.250000000E+02  0.00000E+00  9.000E+00
      25     1     1     2     0     0 -4.308772533E+02 -2.081248687E+02  1.165410505E+03  1.266008615E+03  1.250000000E+02  0.00000E+00  9.000E+00
      21     1     1     2   511   501  8.121805003E+01 -1.766674760E+01 -1.486227878E+02  1.702856972E+02  1.907348633E-06  0.00000E+00  9.000E+00
#rwgt            1           1   3.5591150135715316E-002           9      199918           0
</event>
<event>
      5   9999  3.19816E-02  4.61217E+01 -1.00000E+00  1.41106E-01
      21    -1     0     0   502   512  0.000000000E+00  0.000000000E+00  2.253025631E+03  2.253025631E+03  0.000000000E+00  0.00000E+00  9.000E+00
      21    -1     0     0   501   502  0.000000000E+00  0.000000000E+00 -1.957740644E+02  1.957740644E+02  0.000000000E+00  0.00000E+00  9.000E+00
      25     1     1     2     0     0  3.539149989E+02 -1.659640009E+01  1.793599055E+03  1.832526627E+03  1.250000000E+02  0.00000E+00  9.000E+00
      25     1     1     2     0     0 -3.096359120E+02  3.690182367E+00 -1.457025681E+01  3.342533587E+02  1.250000000E+02  0.00000E+00  9.000E+00
      21     1     1     2   501   512 -4.427908699E+01  1.290621772E+01  2.782227682E+02  2.820197099E+02  3.814697266E-06  0.00000E+00  9.000E+00
#rwgt            1           1   2.9938287009214588E-002           9      200032           0
</event>
<event>
      5   9999  3.19816E-02  4.18482E+01 -1.00000E+00  1.43634E-01
      21    -1     0     0   511   501  0.000000000E+00  0.000000000E+00  2.689352347E+02  2.689352347E+02  0.000000000E+00  0.00000E+00  9.000E+00
      21    -1     0     0   501   502  0.000000000E+00  0.000000000E+00 -2.585151856E+02  2.585151856E+02  0.000000000E+00  0.00000E+00  9.000E+00
      25     1     1     2     0     0  3.201493572E+01 -1.907552514E+02 -2.350728872E+00  2.303107639E+02  1.250000000E+02  0.00000E+00  9.000E+00
      25     1     1     2     0     0 -7.168337721E+01  2.040851519E+02 -8.953149440E+00  2.499888291E+02  1.250000000E+02  0.00000E+00  9.000E+00
      21     1     1     2   511   502  3.966844149E+01 -1.332990047E+01  2.172392745E+01  4.715082736E+01  1.011524364E-06  0.00000E+00  9.000E+00
#rwgt            1           1   3.1901797758896566E-002           9      200175           0
</event>
<event>
      5   9999  3.19816E-02  6.61297E+01 -1.00000E+00  1.32484E-01
      21    -1     0     0   502   512  0.000000000E+00  0.000000000E+00  1.731433735E+02  1.731433735E+02  0.000000000E+00  0.00000E+00  9.000E+00
      21    -1     0     0   501   502  0.000000000E+00  0.000000000E+00 -2.708193971E+02  2.708193971E+02  0.000000000E+00  0.00000E+00  9.000E+00
      25     1     1     2     0     0  3.567439959E+01 -7.411958079E+01 -6.601339187E+00  1.497830188E+02  1.250000000E+02  0.00000E+00  9.000E+00
      25     1     1     2     0     0 -1.008873768E+02  6.314648246E+01 -1.312215678E+02  2.168175290E+02  1.250000000E+02  0.00000E+00  9.000E+00
      21     1     1     2   501   512  6.521297720E+01  1.097309833E+01  4.014688333E+01  7.736222284E+01  9.536743164E-07  0.00000E+00  9.000E+00
#rwgt            1           1   3.1492906874840298E-002           9      200322           0
</event>
<event>
      5   9999  3.19816E-02  5.67882E+01 -1.00000E+00  1.35993E-01
      21    -1     0     0   502   501  0.000000000E+00  0.000000000E+00  8.037853880E+02  8.037853880E+02  0.000000000E+00  0.00000E+00  9.000E+00
      21    -1     0     0   511   502  0.000000000E+00  0.000000000E+00 -6.948330119E+02  6.948330119E+02  0.000000000E+00  0.00000E+00  9.000E+00
      25     1     1     2     0     0 -3.721533932E+02  5.119916776E+02  3.351609079E+02  7.270429562E+02  1.250000000E+02  0.00000E+00  9.000E+00
      25     1     1     2     0     0  3.559061166E+02 -5.664060237E+02 -2.022497109E+02  7.099400630E+02  1.250000000E+02  0.00000E+00  9.000E+00
      21     1     1     2   511   501  1.624727659E+01  5.441434611E+01 -2.395882096E+01  6.163538076E+01  0.000000000E+00  0.00000E+00  9.000E+00
#rwgt            1           1   3.1896224860507159E-002           9      200360           0
</event>
<event>
      5   9999  3.19816E-02  1.43275E+01 -1.00000E+00  1.79281E-01
      21    -1     0     0   502   501  0.000000000E+00  0.000000000E+00  2.795012194E+01  2.795012194E+01  0.000000000E+00  0.00000E+00  9.000E+00
      21    -1     0     0   512   502  0.000000000E+00  0.000000000E+00 -3.226869201E+03  3.226869201E+03  0.000000000E+00  0.00000E+00  9.000E+00
      25     1     1     2     0     0 -1.426131369E+01  1.038743403E+02 -2.779478311E+02  3.222937487E+02  1.250000000E+02  0.00000E+00  9.000E+00
      25     1     1     2     0     0  1.923811948E+01 -1.173096784E+02 -1.288986581E+03  1.300478016E+03  1.250000000E+02  0.00000E+00  9.000E+00
      21     1     1     2   512   501 -4.976805784E+00  1.343533817E+01 -1.631984667E+03  1.632047558E+03  3.051757812E-05  0.00000E+00  9.000E+00
#rwgt            1           1   2.5804739565004873E-002           9      200492           0
</event>
<event>
      5   9999  3.19816E-02  2.28122E+01 -1.00000E+00  1.61789E-01
      21    -1     0     0   502   511  0.000000000E+00  0.000000000E+00  1.886531258E+02  1.886531258E+02  0.000000000E+00  0.00000E+00  9.000E+00
      21    -1     0     0   501   502  0.000000000E+00  0.000000000E+00 -1.991814435E+02  1.991814435E+02  0.000000000E+00  0.00000E+00  9.000E+00
      25     1     1     2     0     0  4.483615296E+01 -1.078796873E+02  2.817264056E+01  1.733984003E+02  1.250000000E+02  0.00000E+00  9.000E+00
      25     1     1     2     0     0 -4.968671554E+01  1.301702017E+02 -4.062747894E+01  1.915427972E+02  1.250000000E+02  0.00000E+00  9.000E+00
      21     1     1     2   501   511  4.850562582E+00 -2.229051435E+01  1.926520704E+00  2.289337174E+01  2.138718977E-07  0.00000E+00  9.000E+00
#rwgt            1           1   2.1809088975043890E-002           9      200676           0
</event>
<event>
      5   9999  3.19816E-02  6.48937E+01 -1.00000E+00  1.32909E-01
      21    -1     0     0   502   501  0.000000000E+00  0.000000000E+00  2.202105359E+03  2.202105359E+03  0.000000000E+00  0.00000E+00  9.000E+00
      21    -1     0     0   512   502  0.000000000E+00  0.000000000E+00 -2.401918304E+01  2.401918304E+01  0.000000000E+00  0.00000E+00  9.000E+00
      25     1     1     2     0     0 -1.560476757E+02  2.727880577E+01  1.440651516E+03  1.454715367E+03  1.250000000E+02  0.00000E+00  9.000E+00
      25     1     1     2     0     0  9.266435618E+01 -4.119822470E+01  5.492301836E+02  5.723309980E+02  1.250000000E+02  0.00000E+00  9.000E+00
      21     1     1     2   512   501  6.338331951E+01  1.391941894E+01  1.882044764E+02  1.990781765E+02  0.000000000E+00  0.00000E+00  9.000E+00
#rwgt            1           1   7.3520591142928943E-002           9      200808           0
</event>
<event>
      5   9999  3.19816E-02  7.90209E+01 -1.00000E+00  1.28609E-01
      21    -1     0     0   502   501  0.000000000E+00  0.000000000E+00  1.054505999E+03  1.054505999E+03  0.000000000E+00  0.00000E+00  9.000E+00
       2    -1     0     0   501     0  0.000000000E+00  0.000000000E+00 -2.853244235E+02  2.853244235E+02  0.000000000E+00  0.00000E+00  9.000E+00
      25     1     1     2     0     0  1.397856935E+00 -2.949526502E+01  9.251381761E+02  9.340115468E+02  1.250000000E+02  0.00000E+00  9.000E+00
      25     1     1     2     0     0  6.613763953E+01 -1.153224173E+01  7.586705011E+01  1.608974495E+02  1.250000000E+02  0.00000E+00  9.000E+00
       2     1     1     2   502     0 -6.753549647E+01  4.102750676E+01 -2.318236511E+02  2.449214258E+02  5.394796609E-06  0.00000E+00  9.000E+00
#rwgt            1           1   2.7449167758290635E-002           9      200892           0
</event>
<event>
      5   9999  3.19816E-02  1.07991E+02 -1.00000E+00  1.22345E-01
      21    -1     0     0   502   501  0.000000000E+00  0.000000000E+00  2.382752229E+03  2.382752229E+03  0.000000000E+00  0.00000E+00  9.000E+00
      21    -1     0     0   511   502  0.000000000E+00  0.000000000E+00 -1.947101338E+02  1.947101338E+02  0.000000000E+00  0.00000E+00  9.000E+00
      25     1     1     2     0     0 -4.729846468E+02  5.409704476E+00  4.653185310E+02  6.751963243E+02  1.250000000E+02  0.00000E+00  9.000E+00
      25     1     1     2     0     0  3.662285141E+02 -2.169709797E+01  1.748747583E+03  1.791183184E+03  1.250000000E+02  0.00000E+00  9.000E+00
      21     1     1     2   511   501  1.067561327E+02  1.628739349E+01 -2.602401897E+01  1.110828547E+02  3.144957056E-06  0.00000E+00  9.000E+00
#rwgt            1           1   2.9222131352761308E-002           9      200961           0
</event>
<event>
      5   9999  3.19816E-02  9.03773E+01 -1.00000E+00  1.25837E-01
      21    -1     0     0   502   512  0.000000000E+00  0.000000000E+00  2.164337791E+02  2.164337791E+02  0.000000000E+00  0.00000E+00  9.000E+00
      21    -1     0     0   501   502  0.000000000E+00  0.000000000E+00 -4.141699987E+02  4.141699987E+02  0.000000000E+00  0.00000E+00  9.000E+00
      25     1     1     2     0     0 -7.893130825E+01 -1.647758754E+01 -2.335432071E+02  2.768918415E+02  1.250000000E+02  0.00000E+00  9.000E+00
      25     1     1     2     0     0  1.571177769E+02 -2.885380431E+01 -6.998409719E+01  2.145723927E+02  1.250000000E+02  0.00000E+00  9.000E+00
      21     1     1     2   501   512 -7.818646864E+01  4.533139185E+01  1.057910847E+02  1.391395435E+02  1.907348633E-06  0.00000E+00  9.000E+00
#rwgt            1           1   2.4317268574519296E-002           9      201035           0
</event>
<event>
      5   9999  3.19816E-02  3.95028E+01 -1.00000E+00  1.45178E-01
       2    -1     0     0   502     0  0.000000000E+00  0.000000000E+00  1.768065624E+03  1.768065624E+03  0.000000000E+00  0.00000E+00  9.000E+00
      21    -1     0     0   501   502  0.000000000E+00  0.000000000E+00 -3.558332009E+01  3.558332009E+01  0.000000000E+00  0.00000E+00  9.000E+00
      25     1     1     2     0     0 -1.183685330E+02 -1.431748835E+02  6.886723317E+02  7.241579505E+02  1.250000000E+02  0.00000E+00  9.000E+00
      25     1     1     2     0     0  9.526221985E+01  1.752149624E+02  8.730605669E+02  9.042316778E+02  1.250000000E+02  0.00000E+00  9.000E+00
       2     1     1     2   501     0  2.310631316E+01 -3.204007894E+01  1.707494054E+02  1.752593159E+02  1.907348633E-06  0.00000E+00  9.000E+00
#rwgt            1           1   3.0530664272589922E-002           9      201102           0
</event>
<event>
      5   9999  3.19816E-02  6.29644E+01 -1.00000E+00  1.33594E-01
      21    -1     0     0   511   501  0.000000000E+00  0.000000000E+00  1.030443668E+02  1.030443668E+02  0.000000000E+00  0.00000E+00  9.000E+00
      21    -1     0     0   501   502  0.000000000E+00  0.000000000E+00 -2.104948620E+03  2.104948620E+03  0.000000000E+00  0.00000E+00  9.000E+00
      25     1     1     2     0     0 -7.474585506E+01 -4.311928964E+02 -9.926922214E+02  1.092051786E+03  1.250000000E+02  0.00000E+00  9.000E+00
      25     1     1     2     0     0  6.292179261E+01  3.693486957E+02 -9.527246826E+02  1.031351992E+03  1.250000000E+02  0.00000E+00  9.000E+00
      21     1     1     2   511   502  1.182406246E+01  6.184420072E+01 -5.648734913E+01  8.458920870E+01  1.907348633E-06  0.00000E+00  9.000E+00
#rwgt            1           1   2.9545044750446604E-002           9      201165           0
</event>
<event>
      5   9999  3.19816E-02  1.07277E+02 -1.00000E+00  1.22471E-01
      21    -1     0     0   502   501  0.000000000E+00  0.000000000E+00  1.880390917E+03  1.880390917E+03  0.000000000E+00  0.00000E+00  9.000E+00
      21    -1     0     0   501   512  0.000000000E+00  0.000000000E+00 -5.520064395E+02  5.520064395E+02  0.000000000E+00  0.00000E+00  9.000E+00
      25     1     1     2     0     0 -6.013306893E+02 -6.292100288E+02  7.013085594E+02  1.124705541E+03  1.250000000E+02  0.00000E+00  9.000E+00
      25     1     1     2     0     0  5.210947285E+02  7.004178311E+02  7.405088989E+02  1.151565579E+03  1.250000000E+02  0.00000E+00  9.000E+00
      21     1     1     2   502   512  8.023596082E+01 -7.120780229E+01 -1.134329808E+02  1.561262362E+02  1.907348633E-06  0.00000E+00  9.000E+00
#rwgt            1           1   3.2946851637276502E-002           9      201289           0
</event>
<event>
      5   9999  3.19816E-02  3.92176E+01 -1.00000E+00  1.45374E-01
      21    -1     0     0   502   511  0.000000000E+00  0.000000000E+00  2.895643374E+02  2.895643374E+02  0.000000000E+00  0.00000E+00  9.000E+00
      21    -1     0     0   501   502  0.000000000E+00  0.000000000E+00 -2.552659000E+02  2.552659000E+02  0.000000000E+00  0.00000E+00  9.000E+00
      25     1     1     2     0     0  4.980668099E+01  1.787868236E+02 -6.790250593E+01  2.338400823E+02  1.250000000E+02  0.00000E+00  9.000E+00
      25     1     1     2     0     0 -1.061189321E+01 -1.774481591E+02  1.794455533E+01  2.180538202E+02  1.250000000E+02  0.00000E+00  9.000E+00
      21     1     1     2   501   511 -3.919478778E+01 -1.338664559E+00  8.425638799E+01  9.293633482E+01  9.536743164E-07  0.00000E+00  9.000E+00
#rwgt            1           1   2.6805076338659653E-002           9      201392           0
</event>
<event>
      5   9999  3.19816E-02  1.29442E+01 -1.00000E+00  1.83635E-01
      21    -1     0     0   502   501  0.000000000E+00  0.000000000E+00  8.618438825E+01  8.618438825E+01  0.000000000E+00  0.00000E+00  9.000E+00
      21    -1     0     0   501   512  0.000000000E+00  0.000000000E+00 -1.209221275E+03  1.209221275E+03  0.000000000E+00  0.00000E+00  9.000E+00
      25     1     1     2     0     0  1.856858561E+02 -9.801313878E+01 -2.554340778E+02  3.534931125E+02  1.250000000E+02  0.00000E+00  9.000E+00
      25     1     1     2     0     0 -1.898745239E+02  8.576535865E+01 -3.610228588E+02  4.351672508E+02  1.250000000E+02  0.00000E+00  9.000E+00
      21     1     1     2   502   512  4.188667843E+00  1.224778013E+01 -5.065799498E+02  5.067452995E+02  5.394796609E-06  0.00000E+00  9.000E+00
#rwgt            1           1   3.2871559199048557E-002           9      201486           0
</event>
<event>
      5   9999  3.19816E-02  1.89071E+02 -1.00000E+00  1.12544E-01
      21    -1     0     0   502   501  0.000000000E+00  0.000000000E+00  2.315196627E+03  2.315196627E+03  0.000000000E+00  0.00000E+00  9.000E+00
      21    -1     0     0   511   502  0.000000000E+00  0.000000000E+00 -1.051566150E+02  1.051566150E+02  0.000000000E+00  0.00000E+00  9.000E+00
      25     1     1     2     0     0  7.021706673E+01 -1.880507580E+02  3.705254273E+02  4.395538833E+02  1.250000000E+02  0.00000E+00  9.000E+00
      25     1     1     2     0     0 -1.648697826E+02  3.517233644E+02  1.693334403E+03  1.741808765E+03  1.250000000E+02  0.00000E+00  9.000E+00
      21     1     1     2   511   501  9.465271590E+01 -1.636726064E+02  1.461801814E+02  2.389905942E+02  1.907348633E-06  0.00000E+00  9.000E+00
#rwgt            2          11   1.5337410919095032E-002           9      201710           0
</event>
<event>
      5   9999  3.19816E-02  1.11027E+02 -1.00000E+00  1.21819E-01
      21    -1     0     0   502   512  0.000000000E+00  0.000000000E+00  2.612258651E+02  2.612258651E+02  0.000000000E+00  0.00000E+00  9.000E+00
      21    -1     0     0   501   502  0.000000000E+00  0.000000000E+00 -1.116910277E+03  1.116910277E+03  0.000000000E+00  0.00000E+00  9.000E+00
      25     1     1     2     0     0 -3.902295755E+02 -2.414765815E+02 -1.805121585E+02  5.087235992E+02  1.250000000E+02  0.00000E+00  9.000E+00
      25     1     1     2     0     0  3.622587727E+02  1.340310598E+02 -6.301464162E+02  7.496033946E+02  1.250000000E+02  0.00000E+00  9.000E+00
      21     1     1     2   501   512  2.797080279E+01  1.074455217E+02 -4.502583695E+01  1.198091480E+02  9.536743164E-07  0.00000E+00  9.000E+00
#rwgt            2          11   5.9041697196707092E-003           9      201760           0
</event>
<event>
      5   9999  3.19816E-02  2.39531E+01 -1.00000E+00  1.60155E-01
      21    -1     0     0   502   501  0.000000000E+00  0.000000000E+00  2.895484264E+02  2.895484264E+02  0.000000000E+00  0.00000E+00  9.000E+00
      21    -1     0     0   511   502  0.000000000E+00  0.000000000E+00 -1.217798028E+03  1.217798028E+03  0.000000000E+00  0.00000E+00  9.000E+00
      25     1     1     2     0     0  8.739027677E+01 -3.876538904E+02 -1.754162173E+02  4.520049208E+02  1.250000000E+02  0.00000E+00  9.000E+00
      25     1     1     2     0     0 -9.379713709E+01  4.107343049E+02 -1.687174749E+02  4.707347007E+02  1.250000000E+02  0.00000E+00  9.000E+00
      21     1     1     2   511   501  6.406860316E+00 -2.308041452E+01 -5.841159089E+02  5.846068324E+02  7.629394531E-06  0.00000E+00  9.000E+00
#rwgt            1           1   2.6299728895170651E-002           9      201825           0
</event>
<event>
      5   9999  3.19816E-02  5.91267E+01 -1.00000E+00  1.35045E-01
       1    -1     0     0   502     0  0.000000000E+00  0.000000000E+00  1.843415393E+03  1.843415393E+03  0.000000000E+00  0.00000E+00  9.000E+00
      21    -1     0     0   501   502  0.000000000E+00  0.000000000E+00 -2.255163548E+02  2.255163548E+02  0.000000000E+00  0.00000E+00  9.000E+00
      25     1     1     2     0     0  1.423050093E+02  4.466329960E+01  9.000532515E+01  2.144096187E+02  1.250000000E+02  0.00000E+00  9.000E+00
      25     1     1     2     0     0 -2.007369760E+02 -3.562603507E+01 -7.493065782E+01  2.506075645E+02  1.250000000E+02  0.00000E+00  9.000E+00
       1     1     1     2   501     0  5.843196668E+01 -9.037264537E+00  1.602824371E+03  1.603914565E+03  2.157918644E-05  0.00000E+00  9.000E+00
#rwgt            1           1   2.6208193130374466E-002           9      202041           0
</event>
<event>
      5   9999  3.19816E-02  4.23865E+01 -1.00000E+00  1.43296E-01
      21    -1     0     0   502   501  0.000000000E+00  0.000000000E+00  5.600623120E+02  5.600623120E+02  0.000000000E+00  0.00000E+00  9.000E+00
      21    -1     0     0   501   511  0.000000000E+00  0.000000000E+00 -2.267283465E+02  2.267283465E+02  0.000000000E+00  0.00000E+00  9.000E+00
      25     1     1     2     0     0 -1.566192958E+02  2.187099556E+02 -2.198771923E+01  2.974426135E+02  1.250000000E+02  0.00000E+00  9.000E+00
      25     1     1     2     0     0  1.142354123E+02 -2.182370011E+02  3.511225522E+02  4.467540315E+02  1.250000000E+02  0.00000E+00  9.000E+00
      21     1     1     2   502   511  4.238388354E+01 -4.729545808E-01  4.199132590E+00  4.259401349E+01  7.275674114E-07  0.00000E+00  9.000E+00
#rwgt            1           1   2.9054581965901931E-002           9      202106           0
</event>
<event>
      5   9999  3.19816E-02  8.60777E+01 -1.00000E+00  1.26829E-01
      21    -1     0     0   502   501  0.000000000E+00  0.000000000E+00  3.248591839E+02  3.248591839E+02  0.000000000E+00  0.00000E+00  9.000E+00
      21    -1     0     0   501   512  0.000000000E+00  0.000000000E+00 -2.231247723E+03  2.231247723E+03  0.000000000E+00  0.00000E+00  9.000E+00
      25     1     1     2     0     0  2.344091166E+02 -2.656264488E+02 -1.907890873E+03  1.944525039E+03  1.250000000E+02  0.00000E+00  9.000E+00
      25     1     1     2     0     0 -3.176614476E+02  2.437536586E+02  1.453618610E+02  4.439366080E+02  1.250000000E+02  0.00000E+00  9.000E+00
      21     1     1     2   502   512  8.325233097E+01  2.187279020E+01 -1.438595264E+02  1.676452591E+02  2.697398305E-06  0.00000E+00  9.000E+00
#rwgt            1           1   3.0781877726971222E-002           9      202261           0
</event>
<event>
      5   9999  3.19816E-02  7.21965E+00 -1.00000E+00  2.13675E-01
      21    -1     0     0   511   501  0.000000000E+00  0.000000000E+00  7.280585424E+02  7.280585424E+02  0.000000000E+00  0.00000E+00  9.000E+00
      21    -1     0     0   501   502  0.000000000E+00  0.000000000E+00 -6.732852300E+01  6.732852300E+01  0.000000000E+00  0.00000E+00  9.000E+00
      25     1     1     2     0     0  2.138983209E+01  9.844396359E+01  5.458886282E+02  5.690062683E+02  1.250000000E+02  0.00000E+00  9.000E+00
      25     1     1     2     0     0 -1.442972446E+01 -9.652557095E+01  5.766025573E+01  1.687456900E+02  1.250000000E+02  0.00000E+00  9.000E+00
      21     1     1     2   511   502 -6.960107629E+00 -1.918392638E+00  5.718113540E+01  5.763510713E+01  6.743495762E-07  0.00000E+00  9.000E+00
#rwgt            1           1   2.5478654122176141E-002           9      202325           0
</event>
<event>
      5   9999  3.19816E-02  3.84517E+01 -1.00000E+00  1.45912E-01
      21    -1     0     0   502   501  0.000000000E+00  0.000000000E+00  2.625127443E+03  2.625127443E+03  0.000000000E+00  0.00000E+00  9.000E+00
      21    -1     0     0   501   512  0.000000000E+00  0.000000000E+00 -6.114724592E+02  6.114724592E+02  0.000000000E+00  0.00000E+00  9.000E+00
      25     1     1     2     0     0 -1.811330286E+01 -5.140955892E+02  2.458882385E+03  2.515223638E+03  1.250000000E+02  0.00000E+00  9.000E+00
      25     1     1     2     0     0  3.649284162E+01  4.803209895E+02 -4.623465913E+02  6.792859125E+02  1.250000000E+02  0.00000E+00  9.000E+00
      21     1     1     2   502   512 -1.837953876E+01  3.377459976E+01  1.711919028E+01  4.209035174E+01  7.152557373E-07  0.00000E+00  9.000E+00
#rwgt            1           1   6.6012602163369766E-002           9      202585           0
</event>
<event>
      5   9999  3.19816E-02  1.17595E+02 -1.00000E+00  1.20743E-01
      21    -1     0     0   502   501  0.000000000E+00  0.000000000E+00  2.402767660E+02  2.402767660E+02  0.000000000E+00  0.00000E+00  9.000E+00
      21    -1     0     0   511   502  0.000000000E+00  0.000000000E+00 -1.443092203E+03  1.443092203E+03  0.000000000E+00  0.00000E+00  9.000E+00
      25     1     1     2     0     0  1.005776625E+02  2.377756347E+01 -2.551397372E+02  3.023285038E+02  1.250000000E+02  0.00000E+00  9.000E+00
      25     1     1     2     0     0 -1.338987938E+01 -1.026888052E+02  1.827976179E+02  2.444672753E+02  1.250000000E+02  0.00000E+00  9.000E+00
      21     1     1     2   511   501 -8.718778313E+01  7.891124174E+01 -1.130473318E+03  1.136573190E+03  1.525878906E-05  0.00000E+00  9.000E+00
#rwgt            1           1   2.6176436291014921E-002           9      202701           0
</event>
<event>
      5   9999  3.19816E-02  8.67639E+01 -1.00000E+00  1.26666E-01
      21    -1     0     0   512   501  0.000000000E+00  0.000000000E+00  6.088456560E+02  6.088456560E+02  0.000000000E+00  0.00000E+00  9.000E+00
      21    -1     0     0   501   502  0.000000000E+00  0.000000000E+00 -1.202199235E+03  1.202199235E+03  0.000000000E+00  0.00000E+00  9.000E+00
      25     1     1     2     0     0 -5.224235010E+02  2.178240842E+02 -8.964028839E+02  1.067490879E+03  1.250000000E+02  0.00000E+00  9.000E+00
      25     1     1     2     0     0  5.380653147E+02 -1.324817681E+02  3.244559827E+02  6.541883418E+02  1.250000000E+02  0.00000E+00  9.000E+00
      21     1     1     2   512   502 -1.564181377E+01 -8.534231616E+01 -2.140667815E+01  8.936567090E+01  7.152557373E-07  0.00000E+00  9.000E+00
#rwgt            1           1   2.8189993111636093E-002           9      202743           0
</event>
<event>
      5   9999  3.19816E-02  4.59117E+01 -1.00000E+00  1.41223E-01
      21    -1     0     0   502   501  0.000000000E+00  0.000000000E+00  1.712267299E+03  1.712267299E+03  0.000000000E+00  0.00000E+00  9.000E+00
      21    -1     0     0   511   502  0.000000000E+00  0.000000000E+00 -4.907072625E+01  4.907072625E+01  0.000000000E+00  0.00000E+00  9.000E+00
      25     1     1     2     0     0 -5.938320268E+01 -2.315242753E+02  1.039181906E+03  1.073617199E+03  1.250000000E+02  0.00000E+00  9.000E+00
      25     1     1     2     0     0  7.027980594E+01  1.869243911E+02  5.703702311E+02  6.171119669E+02  1.250000000E+02  0.00000E+00  9.000E+00
      21     1     1     2   511   501 -1.089660327E+01  4.459988412E+01  5.364443519E+01  7.060885959E+01  0.000000000E+00  0.00000E+00  9.000E+00
#rwgt            1           1   3.4381747982960766E-002           9      202866           0
</event>
<event>
      5   9999  3.19816E-02  1.42750E+02 -1.00000E+00  1.17253E-01
      21    -1     0     0   502   501  0.000000000E+00  0.000000000E+00  1.498522492E+03  1.498522492E+03  0.000000000E+00  0.00000E+00  9.000E+00
      21    -1     0     0   512   502  0.000000000E+00  0.000000000E+00 -1.856815123E+03  1.856815123E+03  0.000000000E+00  0.00000E+00  9.000E+00
      25     1     1     2     0     0  1.537589609E+03  3.024111097E+02 -3.420943485E+02  1.608815660E+03  1.250000000E+02  0.00000E+00  9.000E+00
      25     1     1     2     0     0 -1.583986946E+03 -1.674114302E+02  2.514822042E+01  1.597904460E+03  1.250000000E+02  0.00000E+00  9.000E+00
      21     1     1     2   512   501  4.639733710E+01 -1.349996794E+02 -4.134650341E+01  1.486174945E+02  3.053247565E-06  0.00000E+00  9.000E+00
#rwgt            1           1   3.8821378426565925E-002           9      202984           0
</event>
<event>
      5   9999  3.19816E-02  5.31592E+01 -1.00000E+00  1.37574E-01
      21    -1     0     0   502   511  0.000000000E+00  0.000000000E+00  1.093739477E+02  1.093739477E+02  0.000000000E+00  0.00000E+00  9.000E+00
      21    -1     0     0   501   502  0.000000000E+00  0.000000000E+00 -6.580945025E+02  6.580945025E+02  0.000000000E+00  0.00000E+00  9.000E+00
      25     1     1     2     0     0 -1.436512549E+02 -1.353903669E+02 -3.255061903E+02  4.006813128E+02  1.250000000E+02  0.00000E+00  9.000E+00
      25     1     1     2     0     0  1.004716436E+02  1.043835066E+02 -2.436740657E+02  3.098265933E+02  1.250000000E+02  0.00000E+00  9.000E+00
      21     1     1     2   501   511  4.317961135E+01  3.100686037E+01  2.045970115E+01  5.696054422E+01  1.430511475E-06  0.00000E+00  9.000E+00
#rwgt            1           1   3.2258523697997629E-002           9      203113           0
</event>
<event>
      5   9999  3.19816E-02  7.27753E+01 -1.00000E+00  1.30371E-01
      21    -1     0     0   502   501  0.000000000E+00  0.000000000E+00  2.548061979E+03  2.548061979E+03  0.000000000E+00  0.00000E+00  9.000E+00
      21    -1     0     0   512   502  0.000000000E+00  0.000000000E+00 -5.853096984E+02  5.853096984E+02  0.000000000E+00  0.00000E+00  9.000E+00
      25     1     1     2     0     0  6.904010057E+02 -2.341211186E+02  1.951074637E+03  2.086572186E+03  1.250000000E+02  0.00000E+00  9.000E+00
      25     1     1     2     0     0 -6.752623346E+02  1.629377947E+02  2.870754332E+02  7.619483249E+02  1.250000000E+02  0.00000E+00  9.000E+00
      21     1     1     2   512   501 -1.513867108E+01  7.118332387E+01 -2.753977894E+02  2.848511670E+02  0.000000000E+00  0.00000E+00  9.000E+00
#rwgt            2          11   1.0248333694448272E-002           9      203437           0
</event>
<event>
      5   9999  3.19816E-02  5.10276E+01 -1.00000E+00  1.38573E-01
       1    -1     0     0   502     0  0.000000000E+00  0.000000000E+00  9.071053860E+02  9.071053860E+02  0.000000000E+00  0.00000E+00  9.000E+00
      21    -1     0     0   501   502  0.000000000E+00  0.000000000E+00 -3.770125830E+02  3.770125830E+02  0.000000000E+00  0.00000E+00  9.000E+00
      25     1     1     2     0     0 -7.080663170E+01 -2.178118188E+02 -2.212919378E+02  3.421267152E+02  1.250000000E+02  0.00000E+00  9.000E+00
      25     1     1     2     0     0  8.889996204E+01  1.700997421E+02  4.457655568E+01  2.333435125E+02  1.250000000E+02  0.00000E+00  9.000E+00
       1     1     1     2   501     0 -1.809333034E+01  4.771207666E+01  7.068081850E+02  7.086477413E+02  7.629394531E-06  0.00000E+00  9.000E+00
#rwgt            1           1   2.9566794090862415E-002           9      203457           0
</event>
<event>
      5   9999  3.19816E-02  2.41232E+01 -1.00000E+00  1.59921E-01
      21    -1     0     0   511   501  0.000000000E+00  0.000000000E+00  2.050360413E+02  2.050360413E+02  0.000000000E+00  0.00000E+00  9.000E+00
      21    -1     0     0   501   502  0.000000000E+00  0.000000000E+00 -5.031419906E+02  5.031419906E+02  0.000000000E+00  0.00000E+00  9.000E+00
      25     1     1     2     0     0 -6.015163960E+01 -1.092580952E+02 -1.746329903E+02  2.483490133E+02  1.250000000E+02  0.00000E+00  9.000E+00
      25     1     1     2     0     0  6.276102374E+01  8.527642482E+01 -2.675654284E+02  3.137312118E+02  1.250000000E+02  0.00000E+00  9.000E+00
      21     1     1     2   511   502 -2.609384146E+00  2.398167042E+01  1.440924694E+02  1.460978068E+02  1.907348633E-06  0.00000E+00  9.000E+00
#rwgt            1           1   2.6395183094994258E-002           9      203559           0
</event>
<event>
      5   9999  3.19816E-02  2.10815E+01 -1.00000E+00  1.64504E-01
      21    -1     0     0   502   501  0.000000000E+00  0.000000000E+00  1.446628579E+03  1.446628579E+03  0.000000000E+00  0.00000E+00  9.000E+00
      21    -1     0     0   512   502  0.000000000E+00  0.000000000E+00 -4.023306348E+01  4.023306348E+01  0.000000000E+00  0.00000E+00  9.000E+00
      25     1     1     2     0     0 -2.636079542E+01 -1.856226230E+02  7.451465994E+02  7.784722888E+02  1.250000000E+02  0.00000E+00  9.000E+00
      25     1     1     2     0     0  2.856104836E+01  1.646562275E+02  6.533598005E+02  6.858800447E+02  1.250000000E+02  0.00000E+00  9.000E+00
      21     1     1     2   512   501 -2.200252939E+00  2.096639547E+01  7.889115657E+00  2.250930914E+01  1.884864366E-07  0.00000E+00  9.000E+00
#rwgt            1           1   4.3010788831838620E-002           9      203649           0
</event>
<event>
      5   9999  3.19816E-02  1.16259E+01 -1.00000E+00  1.88486E-01
      21    -1     0     0   502   501  0.000000000E+00  0.000000000E+00  3.520256164E+02  3.520256164E+02  0.000000000E+00  0.00000E+00  9.000E+00
      21    -1     0     0   501   511  0.000000000E+00  0.000000000E+00 -1.470516205E+03  1.470516205E+03  0.000000000E+00  0.00000E+00  9.000E+00
      25     1     1     2     0     0 -2.140511717E+02 -1.040350962E+02 -1.399616318E+02  3.030766631E+02  1.250000000E+02  0.00000E+00  9.000E+00
      25     1     1     2     0     0  2.233073119E+02  1.110697448E+02  1.984938426E+02  3.423849432E+02  1.250000000E+02  0.00000E+00  9.000E+00
      21     1     1     2   502   511 -9.256140271E+00 -7.034648583E+00 -1.177022800E+03  1.177080215E+03  2.157918644E-05  0.00000E+00  9.000E+00
#rwgt            1           1   2.5120694569862351E-002           9      203784           0
</event>
<event>
      5   9999  4.07557E-02  8.15311E+01 -1.00000E+00  1.27952E-01
      21    -1     0     0   512   501  0.000000000E+00  0.000000000E+00  2.456112866E+03  2.456112866E+03  0.000000000E+00  0.00000E+00  9.000E+00
      21    -1     0     0   501   502  0.000000000E+00  0.000000000E+00 -5.042607952E+01  5.042607952E+01  0.000000000E+00  0.00000E+00  9.000E+00
      25     1     1     2     0     0  1.444629873E+02 -1.210324874E+02  1.979403493E+03  1.992280504E+03  1.250000000E+02  0.00000E+00  9.000E+00
      25     1     1     2     0     0 -8.493944823E+01  6.531652935E+01  1.384940018E+02  2.151430859E+02  1.250000000E+02  0.00000E+00  9.000E+00
      21     1     1     2   512   502 -5.952353907E+01  5.571595809E+01  2.877892916E+02  2.991153558E+02  3.814697266E-06  0.00000E+00  9.000E+00
#rwgt            1           1  0.11642322689160391                9      203967           0
</event>
<event>
      5   9999  3.19816E-02  3.24209E+01 -1.00000E+00  1.50735E-01
      21    -1     0     0   502   501  0.000000000E+00  0.000000000E+00  7.850630657E+02  7.850630657E+02  0.000000000E+00  0.00000E+00  9.000E+00
      21    -1     0     0   501   511  0.000000000E+00  0.000000000E+00 -9.359672564E+01  9.359672564E+01  0.000000000E+00  0.00000E+00  9.000E+00
      25     1     1     2     0     0  1.848758725E+02 -2.302198160E+01  3.655075251E+02  4.288704358E+02  1.250000000E+02  0.00000E+00  9.000E+00
      25     1     1     2     0     0 -2.157234614E+02  1.304511340E+01  3.334072200E+02  4.165239022E+02  1.250000000E+02  0.00000E+00  9.000E+00
      21     1     1     2   502   511  3.084758892E+01  9.976868202E+00 -7.448405019E+00  3.326545323E+01  7.396741894E-07  0.00000E+00  9.000E+00
#rwgt            1           1   2.9411860575162607E-002           9      204033           0
</event>
<event>
      5   9999  3.19816E-02  2.56579E+01 -1.00000E+00  1.57910E-01
      21    -1     0     0   512   501  0.000000000E+00  0.000000000E+00  8.239925166E+01  8.239925166E+01  0.000000000E+00  0.00000E+00  9.000E+00
      21    -1     0     0   501   502  0.000000000E+00  0.000000000E+00 -1.242206712E+03  1.242206712E+03  0.000000000E+00  0.00000E+00  9.000E+00
      25     1     1     2     0     0  1.823932673E+02  1.958850801E+02 -3.941936130E+02  4.925970697E+02  1.250000000E+02  0.00000E+00  9.000E+00
      25     1     1     2     0     0 -2.026241410E+02 -1.801040126E+02 -7.238531264E+02  7.829957513E+02  1.250000000E+02  0.00000E+00  9.000E+00
      21     1     1     2   512   502  2.023087368E+01 -1.578106752E+01 -4.176072099E+01  4.901314273E+01  8.259061849E-07  0.00000E+00  9.000E+00
#rwgt            1           1   2.7156905737597058E-002           9      204165           0
</event>
<event>
      5   9999  3.19816E-02  1.56646E+02 -1.00000E+00  1.15652E-01
      21    -1     0     0   502   501  0.000000000E+00  0.000000000E+00  1.152546494E+03  1.152546494E+03  0.000000000E+00  0.00000E+00  9.000E+00
      21    -1     0     0   501   511  0.000000000E+00  0.000000000E+00 -2.071728490E+02  2.071728490E+02  0.000000000E+00  0.00000E+00  9.000E+00
      25     1     1     2     0     0 -2.456855642E+01 -6.916232784E+00  9.925205016E+02  1.000686462E+03  1.250000000E+02  0.00000E+00  9.000E+00
      25     1     1     2     0     0 -9.696488625E+01  1.057475008E+02  1.416574057E+01  1.908150709E+02  1.250000000E+02  0.00000E+00  9.000E+00
      21     1     1     2   502   511  1.215334427E+02 -9.883126801E+01 -6.131259718E+01  1.682178106E+02  1.348699152E-06  0.00000E+00  9.000E+00
#rwgt            1           1   3.2011705722069260E-002           9      204278           0
</event>
<event>
      5   9999  3.19816E-02  6.04357E+02 -1.00000E+00  9.65682E-02
      -2    -1     0     0     0   501  0.000000000E+00  0.000000000E+00  4.476828426E+02  4.476828426E+02  0.000000000E+00  0.00000E+00  9.000E+00
      21    -1     0     0   501   502  0.000000000E+00  0.000000000E+00 -1.129251691E+03  1.129251691E+03  0.000000000E+00  0.00000E+00  9.000E+00
      25     1     1     2     0     0 -1.848182539E+01 -1.866633894E+00 -1.748342413E+02  2.157245330E+02  1.250000000E+02  0.00000E+00  9.000E+00
      25     1     1     2     0     0  1.559389312E+02 -5.866513087E+02 -4.246931182E+02  7.513094921E+02  1.250000000E+02  0.00000E+00  9.000E+00
      -2     1     1     2     0   502 -1.374571058E+02  5.885179425E+02 -8.204148895E+01  6.099005087E+02  8.259061849E-06  0.00000E+00  9.000E+00
#rwgt            2           4   9.7246417223338205E-005           9      204338           0
</event>
<event>
      5   9999  3.19816E-02  2.30303E+02 -1.00000E+00  1.09462E-01
      21    -1     0     0   502   501  0.000000000E+00  0.000000000E+00  1.317078891E+03  1.317078891E+03  0.000000000E+00  0.00000E+00  9.000E+00
      21    -1     0     0   511   502  0.000000000E+00  0.000000000E+00 -2.291114844E+03  2.291114844E+03  0.000000000E+00  0.00000E+00  9.000E+00
      25     1     1     2     0     0  3.229568687E+02  3.069240209E+02 -1.566519647E+03  1.633435734E+03  1.250000000E+02  0.00000E+00  9.000E+00
      25     1     1     2     0     0 -9.268670143E+01 -3.030315070E+02  1.240820332E+03  1.286731913E+03  1.250000000E+02  0.00000E+00  9.000E+00
      21     1     1     2   511   501 -2.302701672E+02 -3.892513820E+00 -6.483366379E+02  6.880260879E+02  7.629394531E-06  0.00000E+00  9.000E+00
#rwgt            2          11   7.1946305353967344E-003           9      204372           0
</event>
<event>
      5   9999  3.19816E-02  2.71618E+01 -1.00000E+00  1.56099E-01
      21    -1     0     0   502   512  0.000000000E+00  0.000000000E+00  9.318104292E+02  9.318104292E+02  0.000000000E+00  0.00000E+00  9.000E+00
      21    -1     0     0   501   502  0.000000000E+00  0.000000000E+00 -6.508596815E+01  6.508596815E+01  0.000000000E+00  0.00000E+00  9.000E+00
      25     1     1     2     0     0 -2.720269923E+01 -1.582331479E+02  3.826433351E+02  4.333804770E+02  1.250000000E+02  0.00000E+00  9.000E+00
      25     1     1     2     0     0  1.806756025E+01  1.326536019E+02  1.752658787E+02  2.535084674E+02  1.250000000E+02  0.00000E+00  9.000E+00
      21     1     1     2   501   512  9.135138979E+00  2.557954607E+01  3.088152472E+02  3.100074529E+02  5.394796609E-06  0.00000E+00  9.000E+00
#rwgt            1           1   2.7397201803649990E-002           9      204407           0
</event>
<event>
      5   9999  3.19816E-02  3.72543E+01 -1.00000E+00  1.46782E-01
      21    -1     0     0   502   501  0.000000000E+00  0.000000000E+00  3.054405716E+02  3.054405716E+02  0.000000000E+00  0.00000E+00  9.000E+00
      21    -1     0     0   511   502  0.000000000E+00  0.000000000E+00 -1.062285074E+03  1.062285074E+03  0.000000000E+00  0.00000E+00  9.000E+00
      25     1     1     2     0     0  1.986331960E+01 -2.621995104E+02 -2.582446283E+02  3.891765958E+02  1.250000000E+02  0.00000E+00  9.000E+00
      25     1     1     2     0     0  1.593192358E+01  2.518755644E+02  1.566289926E+02  3.222619547E+02  1.250000000E+02  0.00000E+00  9.000E+00
      21     1     1     2   511   501 -3.579524318E+01  1.032394599E+01 -6.552288668E+02  6.562870951E+02  7.629394531E-06  0.00000E+00  9.000E+00
#rwgt            1           1   2.7684286649456439E-002           9      204574           0
</event>
<event>
      5   9999  3.19816E-02  1.68765E+01 -1.00000E+00  1.72693E-01
      21    -1     0     0   502   501  0.000000000E+00  0.000000000E+00  3.638308763E+02  3.638308763E+02  0.000000000E+00  0.00000E+00  9.000E+00
      21    -1     0     0   501   512  0.000000000E+00  0.000000000E+00 -4.362190683E+02  4.362190683E+02  0.000000000E+00  0.00000E+00  9.000E+00
      25     1     1     2     0     0  2.970362393E+01  3.214256393E+01  3.317022580E+02  3.571650006E+02  1.250000000E+02  0.00000E+00  9.000E+00
      25     1     1     2     0     0 -3.361958675E+01 -1.572664668E+01 -2.041870226E+02  2.422703948E+02  1.250000000E+02  0.00000E+00  9.000E+00
      21     1     1     2   502   512  3.915962818E+00 -1.641591725E+01 -1.999034273E+02  2.006145492E+02  2.697398305E-06  0.00000E+00  9.000E+00
#rwgt            1           1   2.7384470308098711E-002           9      204698           0
</event>
<event>
      5   9999  3.19816E-02  1.44085E+01 -1.00000E+00  1.79046E-01
      21    -1     0     0   502   501  0.000000000E+00  0.000000000E+00  4.989588419E+02  4.989588419E+02  0.000000000E+00  0.00000E+00  9.000E+00
      21    -1     0     0   501   511  0.000000000E+00  0.000000000E+00 -2.339168355E+02  2.339168355E+02  0.000000000E+00  0.00000E+00  9.000E+00
      25     1     1     2     0     0  2.047784205E+02 -1.085433407E+02  2.239220052E+02  3.456615725E+02  1.250000000E+02  0.00000E+00  9.000E+00
      25     1     1     2     0     0 -2.146241221E+02  1.190631585E+02  1.247377040E+02  3.023640923E+02  1.250000000E+02  0.00000E+00  9.000E+00
      21     1     1     2   502   511  9.845701594E+00 -1.051981781E+01 -8.361770280E+01  8.485001254E+01  9.536743164E-07  0.00000E+00  9.000E+00
#rwgt            1           1   2.4030399628834444E-002           9      204891           0
</event>
<event>
      5   9999  3.19816E-02  1.57528E+02 -1.00000E+00  1.15557E-01
       1    -1     0     0   502     0  0.000000000E+00  0.000000000E+00  2.408708597E+03  2.408708597E+03  0.000000000E+00  0.00000E+00  9.000E+00
      21    -1     0     0   501   502  0.000000000E+00  0.000000000E+00 -7.615847360E+02  7.615847360E+02  0.000000000E+00  0.00000E+00  9.000E+00
      25     1     1     2     0     0  1.161341291E+02 -8.409214171E+02  1.524232737E+00  8.580578587E+02  1.250000000E+02  0.00000E+00  9.000E+00
      25     1     1     2     0     0 -1.308243710E+02  6.840803798E+02  5.053172529E+01  7.094078075E+02  1.250000000E+02  0.00000E+00  9.000E+00
       1     1     1     2   501     0  1.469024192E+01  1.568410373E+02  1.595067903E+03  1.602827667E+03  3.051757812E-05  0.00000E+00  9.000E+00
#rwgt            1           1   2.2909577231308108E-002           9      205057           0
</event>
<event>
      5   9999  3.19816E-02  1.10579E+02 -1.00000E+00  1.21895E-01
      21    -1     0     0   511   501  0.000000000E+00  0.000000000E+00  6.125111495E+02  6.125111495E+02  0.000000000E+00  0.00000E+00  9.000E+00
      21    -1     0     0   501   502  0.000000000E+00  0.000000000E+00 -2.285657416E+02  2.285657416E+02  0.000000000E+00  0.00000E+00  9.000E+00
      25     1     1     2     0     0  1.805529254E+02  1.222781615E+02  7.276496194E+00  2.514542802E+02  1.250000000E+02  0.00000E+00  9.000E+00
      25     1     1     2     0     0 -1.541763146E+02 -2.296653282E+02  1.525864021E+02  3.397412384E+02  1.250000000E+02  0.00000E+00  9.000E+00
      21     1     1     2   511   502 -2.637661077E+01  1.073871667E+02  2.240825097E+02  2.498813725E+02  0.000000000E+00  0.00000E+00  9.000E+00
#rwgt            1           1   2.6634107874493010E-002           9      205124           0
</event>
<event>
      5   9999  3.19816E-02  1.41570E+02 -1.00000E+00  1.17398E-01
      21    -1     0     0   502   501  0.000000000E+00  0.000000000E+00  7.487136467E+02  7.487136467E+02  0.000000000E+00  0.00000E+00  9.000E+00
      21    -1     0     0   512   502  0.000000000E+00  0.000000000E+00 -6.288937781E+02  6.288937781E+02  0.000000000E+00  0.00000E+00  9.000E+00
      25     1     1     2     0     0 -1.969498500E+02 -2.356057155E+02  3.099533063E+02  4.538671047E+02  1.250000000E+02  0.00000E+00  9.000E+00
      25     1     1     2     0     0  1.943296672E+02  3.771513762E+02  2.170202468E+02  4.926763315E+02  1.250000000E+02  0.00000E+00  9.000E+00
      21     1     1     2   512   501  2.620182813E+00 -1.415456607E+02 -4.071536846E+02  4.310639886E+02  5.394796609E-06  0.00000E+00  9.000E+00
#rwgt            1           1   2.8516820780749224E-002           9      205170           0
</event>
<event>
      5   9999  3.19816E-02  5.90980E+01 -1.00000E+00  1.35056E-01
       2    -1     0     0   502     0  0.000000000E+00  0.000000000E+00  1.549292827E+03  1.549292827E+03  0.000000000E+00  0.00000E+00  9.000E+00
      21    -1     0     0   501   502  0.000000000E+00  0.000000000E+00 -6.950953249E+02  6.950953249E+02  0.000000000E+00  0.00000E+00  9.000E+00
      25     1     1     2     0     0 -8.800630158E+01 -8.695089001E+02 -1.398125133E+02  8.938475123E+02  1.250000000E+02  0.00000E+00  9.000E+00
      25     1     1     2     0     0  4.082192344E+01  8.339250100E+02  8.652993877E+02  1.208910825E+03  1.250000000E+02  0.00000E+00  9.000E+00
       2     1     1     2   501     0  4.718437814E+01  3.558389002E+01  1.287106273E+02  1.416298145E+02  0.000000000E+00  0.00000E+00  9.000E+00
#rwgt            1           1   3.5739362018660750E-002           9      205248           0
</event>
<event>
      5   9999  3.19816E-02  1.16814E+02 -1.00000E+00  1.20866E-01
       1    -1     0     0   502     0  0.000000000E+00  0.000000000E+00  9.780014843E+02  9.780014843E+02  0.000000000E+00  0.00000E+00  9.000E+00
      21    -1     0     0   501   502  0.000000000E+00  0.000000000E+00 -1.682575439E+02  1.682575439E+02  0.000000000E+00  0.00000E+00  9.000E+00
      25     1     1     2     0     0 -2.663655399E+02 -1.717260635E+02  1.390292261E+02  3.679600080E+02  1.250000000E+02  0.00000E+00  9.000E+00
      25     1     1     2     0     0  1.546449905E+02  1.376075908E+02  5.861970645E+02  6.341158573E+02  1.250000000E+02  0.00000E+00  9.000E+00
       1     1     1     2   501     0  1.117205495E+02  3.411847270E+01  8.451764984E+01  1.441831630E+02  2.523185073E-06  0.00000E+00  9.000E+00
#rwgt            1           1   2.7110698842812170E-002           9      205449           0
</event>
<event>
      5   9999  3.19816E-02  1.06434E+02 -1.00000E+00  1.22622E-01
      21    -1     0     0   502   511  0.000000000E+00  0.000000000E+00  6.466932355E+02  6.466932355E+02  0.000000000E+00  0.00000E+00  9.000E+00
      21    -1     0     0   501   502  0.000000000E+00  0.000000000E+00 -5.778944751E+02  5.778944751E+02  0.000000000E+00  0.00000E+00  9.000E+00
      25     1     1     2     0     0  1.993045038E+02 -1.813705936E+02 -3.259164644E+02  4.409808603E+02  1.250000000E+02  0.00000E+00  9.000E+00
      25     1     1     2     0     0 -2.103193055E+02  2.872328230E+02  2.614940808E+00  3.773178273E+02  1.250000000E+02  0.00000E+00  9.000E+00
      21     1     1     2   501   511  1.101480173E+01 -1.058622294E+02  3.921002840E+02  4.062890229E+02  0.000000000E+00  0.00000E+00  9.000E+00
#rwgt            1           1   2.5272668989758818E-002           9      205516           0
</event>
<event>
      5   9999  3.19816E-02  4.90120E+02 -1.00000E+00  9.90989E-02
      21    -1     0     0   502   501  0.000000000E+00  0.000000000E+00  8.814237224E+02  8.814237224E+02  0.000000000E+00  0.00000E+00  9.000E+00
      21    -1     0     0   501   512  0.000000000E+00  0.000000000E+00 -1.294785698E+03  1.294785698E+03  0.000000000E+00  0.00000E+00  9.000E+00
      25     1     1     2     0     0  4.419215289E+02  4.486905074E+02  5.833900330E+02  8.675175732E+02  1.250000000E+02  0.00000E+00  9.000E+00
      25     1     1     2     0     0 -1.611057124E+01 -2.059917542E+02 -6.886763782E+02  7.297892211E+02  1.250000000E+02  0.00000E+00  9.000E+00
      21     1     1     2   502   512 -4.258109577E+02 -2.426987533E+02 -3.080756306E+02  5.789026263E+02  1.078959322E-05  0.00000E+00  9.000E+00
#rwgt            1           1   2.6497829008800353E-002           9      205563           0
</event>
<event>
      5   9999  3.19816E-02  4.76047E+01 -1.00000E+00  1.40303E-01
      21    -1     0     0   511   501  0.000000000E+00  0.000000000E+00  2.440635630E+03  2.440635630E+03  0.000000000E+00  0.00000E+00  9.000E+00
      21    -1     0     0   501   502  0.000000000E+00  0.000000000E+00 -1.818211408E+02  1.818211408E+02  0.000000000E+00  0.00000E+00  9.000E+00
      25     1     1     2     0     0 -4.610633010E+02 -3.955361893E+01  2.427095726E+02  5.372865091E+02  1.250000000E+02  0.00000E+00  9.000E+00
      25     1     1     2     0     0  4.570600270E+02 -7.882420383E+00  1.923807401E+03  1.981319237E+03  1.250000000E+02  0.00000E+00  9.000E+00
      21     1     1     2   511   502  4.003273964E+00  4.743603931E+01  9.229751518E+01  1.038510247E+02  0.000000000E+00  0.00000E+00  9.000E+00
#rwgt            1           1   3.4804040703252562E-002           9      205613           0
</event>
<event>
      5   9999  3.19816E-02  7.78560E+01 -1.00000E+00  1.28923E-01
      21    -1     0     0   512   501  0.000000000E+00  0.000000000E+00  3.069259663E+02  3.069259663E+02  0.000000000E+00  0.00000E+00  9.000E+00
      21    -1     0     0   501   502  0.000000000E+00  0.000000000E+00 -7.605926760E+02  7.605926760E+02  0.000000000E+00  0.00000E+00  9.000E+00
      25     1     1     2     0     0  3.967657567E+01 -2.873290775E+02 -4.723291443E+02  5.682007128E+02  1.250000000E+02  0.00000E+00  9.000E+00
      25     1     1     2     0     0 -1.004678355E+02  2.386877041E+02 -1.420562602E+02  3.207344495E+02  1.250000000E+02  0.00000E+00  9.000E+00
      21     1     1     2   512   502  6.079125983E+01  4.864137346E+01  1.607186948E+02  1.785834800E+02  1.907348633E-06  0.00000E+00  9.000E+00
#rwgt            1           1   3.0809430108872531E-002           9      205744           0
</event>
<event>
      5   9999  3.19816E-02  2.35172E+01 -1.00000E+00  1.60766E-01
      21    -1     0     0   502   501  0.000000000E+00  0.000000000E+00  2.131053789E+02  2.131053789E+02  0.000000000E+00  0.00000E+00  9.000E+00
      21    -1     0     0   511   502  0.000000000E+00  0.000000000E+00 -1.377073819E+03  1.377073819E+03  0.000000000E+00  0.00000E+00  9.000E+00
      25     1     1     2     0     0 -2.502248581E+02  9.668300650E+01 -1.099845915E+03  1.138967128E+03  1.250000000E+02  0.00000E+00  9.000E+00
      25     1     1     2     0     0  2.658460768E+02 -7.910353855E+01  7.236029404E+01  3.127179536E+02  1.250000000E+02  0.00000E+00  9.000E+00
      21     1     1     2   511   501 -1.562121866E+01 -1.757946795E+01 -1.364828199E+02  1.384941164E+02  2.697398305E-06  0.00000E+00  9.000E+00
#rwgt            1           1   3.0701025706540711E-002           9      205815           0
</event>
<event>
      5   9999  3.19816E-02  1.04664E+02 -1.00000E+00  1.22944E-01
      21    -1     0     0   502   512  0.000000000E+00  0.000000000E+00  1.651083912E+02  1.651083912E+02  0.000000000E+00  0.00000E+00  9.000E+00
      21    -1     0     0   501   502  0.000000000E+00  0.000000000E+00 -2.970057968E+03  2.970057968E+03  0.000000000E+00  0.00000E+00  9.000E+00
      25     1     1     2     0     0  5.355928398E+02  2.787762509E+02 -1.713615126E+03  1.821174810E+03  1.250000000E+02  0.00000E+00  9.000E+00
      25     1     1     2     0     0 -4.758386410E+02 -3.647068829E+02 -1.011112234E+03  1.182119483E+03  1.250000000E+02  0.00000E+00  9.000E+00
      21     1     1     2   501   512 -5.975419881E+01  8.593063199E+01 -8.022221684E+01  1.318720663E+02  9.536743164E-07  0.00000E+00  9.000E+00
#rwgt            1           1   9.3110883022019850E-002           9      206098           0
</event>
<event>
      5   9999  3.23229E-02  4.87255E+01 -1.00000E+00  1.39718E-01
      21    -1     0     0   511   501  0.000000000E+00  0.000000000E+00  6.637228423E+02  6.637228423E+02  0.000000000E+00  0.00000E+00  9.000E+00
      21    -1     0     0   501   502  0.000000000E+00  0.000000000E+00 -4.074684250E+02  4.074684250E+02  0.000000000E+00  0.00000E+00  9.000E+00
      25     1     1     2     0     0 -4.331241076E+02 -1.621243653E+02  1.167915709E+02  4.930984420E+02  1.250000000E+02  0.00000E+00  9.000E+00
      25     1     1     2     0     0  4.396132149E+02  2.104158015E+02  9.481571482E+01  5.120054765E+02  1.250000000E+02  0.00000E+00  9.000E+00
      21     1     1     2   511   502 -6.489107242E+00 -4.829143613E+01  4.464713155E+01  6.608734881E+01  9.536743164E-07  0.00000E+00  9.000E+00
#rwgt            1           1   3.1851304115036436E-002           9      206188           0
</event>
<event>
      5   9999  3.19816E-02  2.04797E+01 -1.00000E+00  1.65524E-01
      21    -1     0     0   502   501  0.000000000E+00  0.000000000E+00  5.908690349E+02  5.908690349E+02  0.000000000E+00  0.00000E+00  9.000E+00
      21    -1     0     0   512   502  0.000000000E+00  0.000000000E+00 -1.386592353E+02  1.386592353E+02  0.000000000E+00  0.00000E+00  9.000E+00
      25     1     1     2     0     0 -2.270384945E+02 -4.730765947E+01  2.665978737E+02  3.748118446E+02  1.250000000E+02  0.00000E+00  9.000E+00
      25     1     1     2     0     0  2.429829005E+02  6.016048639E+01  1.823699126E+02  3.339816748E+02  1.250000000E+02  0.00000E+00  9.000E+00
      21     1     1     2   512   501 -1.594440596E+01 -1.285282692E+01  3.242013300E+00  2.073475082E+01  3.885747436E-07  0.00000E+00  9.000E+00
#rwgt            1           1   2.8062049755570511E-002           9      206314           0
</event>
<event>
      5   9999  3.19816E-02  1.74619E+02 -1.00000E+00  1.13837E-01
      21    -1     0     0   502   501  0.000000000E+00  0.000000000E+00  1.531672285E+03  1.531672285E+03  0.000000000E+00  0.00000E+00  9.000E+00
      21    -1     0     0   501   511  0.000000000E+00  0.000000000E+00 -1.567557890E+02  1.567557890E+02  0.000000000E+00  0.00000E+00  9.000E+00
      25     1     1     2     0     0 -1.322569300E+02 -3.076483227E+02  5.011549197E+02  6.155653008E+02  1.250000000E+02  0.00000E+00  9.000E+00
      25     1     1     2     0     0  9.774019681E+01  1.364750029E+02  8.735207166E+02  8.982438504E+02  1.250000000E+02  0.00000E+00  9.000E+00
      21     1     1     2   502   511  3.451673315E+01  1.711733199E+02  2.408599715E-01  1.746189232E+02  2.239993235E-06  0.00000E+00  9.000E+00
#rwgt            1           1   3.0324047059201217E-002           9      206493           0
</event>
<event>
      5   9999  3.19816E-02  1.20580E+02 -1.00000E+00  1.20279E-01
      21    -1     0     0   502   501  0.000000000E+00  0.000000000E+00  8.210661577E+02  8.210661577E+02  0.000000000E+00  0.00000E+00  9.000E+00
       1    -1     0     0   501     0  0.000000000E+00  0.000000000E+00 -5.597737246E+02  5.597737246E+02  0.000000000E+00  0.00000E+00  9.000E+00
      25     1     1     2     0     0  1.818860381E+02 -2.124029069E+02  1.018258958E+02  3.227863671E+02  1.250000000E+02  0.00000E+00  9.000E+00
      25     1     1     2     0     0 -6.130628775E+01  2.126682495E+02  5.732398493E+02  6.270687124E+02  1.250000000E+02  0.00000E+00  9.000E+00
       1     1     1     2   502     0 -1.205797503E+02 -2.653425712E-01 -4.137733120E+02  4.309848029E+02  0.000000000E+00  0.00000E+00  9.000E+00
#rwgt            1           1   2.6465005079393231E-002           9      206575           0
</event>
<event>
      5   9999  3.19816E-02  1.29514E+02 -1.00000E+00  1.18978E-01
       4    -1     0     0   502     0  0.000000000E+00  0.000000000E+00  1.689338449E+02  1.689338449E+02  0.000000000E+00  0.00000E+00  9.000E+00
      21    -1     0     0   501   502  0.000000000E+00  0.000000000E+00 -1.203006005E+03  1.203006005E+03  0.000000000E+00  0.00000E+00  9.000E+00
      25     1     1     2     0     0  1.028097814E+02 -1.168696151E+02 -9.183379915E+02  9.397861590E+02  1.250000000E+02  0.00000E+00  9.000E+00
      25     1     1     2     0     0 -2.321358365E+02  1.098995402E+02 -6.421176286E+01  2.927680071E+02  1.250000000E+02  0.00000E+00  9.000E+00
       4     1     1     2   501     0  1.293260551E+02  6.970074871E+00 -5.152240548E+01  1.393856834E+02  0.000000000E+00  0.00000E+00  9.000E+00
#rwgt            2          20   2.1793183344020416E-005           9      206624           0
</event>
<event>
      5   9999  3.19816E-02  4.99370E+01 -1.00000E+00  1.39107E-01
      21    -1     0     0   502   501  0.000000000E+00  0.000000000E+00  4.537326442E+02  4.537326442E+02  0.000000000E+00  0.00000E+00  9.000E+00
      21    -1     0     0   511   502  0.000000000E+00  0.000000000E+00 -3.363357423E+02  3.363357423E+02  0.000000000E+00  0.00000E+00  9.000E+00
      25     1     1     2     0     0  1.509139588E+02  3.202157251E+02  1.614025485E+02  4.086427734E+02  1.250000000E+02  0.00000E+00  9.000E+00
      25     1     1     2     0     0 -1.261988641E+02 -2.768236478E+02 -3.656497459E+01  3.309372790E+02  1.250000000E+02  0.00000E+00  9.000E+00
      21     1     1     2   511   501 -2.471509471E+01 -4.339207727E+01 -7.440672034E+00  5.048833406E+01  7.152557373E-07  0.00000E+00  9.000E+00
#rwgt            1           1   2.7551635229930951E-002           9      206643           0
</event>
<event>
      5   9999  3.19816E-02  1.64428E+01 -1.00000E+00  1.73707E-01
      21    -1     0     0   502   512  0.000000000E+00  0.000000000E+00  4.895301518E+02  4.895301518E+02  0.000000000E+00  0.00000E+00  9.000E+00
      21    -1     0     0   501   502  0.000000000E+00  0.000000000E+00 -1.256326048E+02  1.256326048E+02  0.000000000E+00  0.00000E+00  9.000E+00
      25     1     1     2     0     0 -1.297405130E+02  1.409612481E+02  2.647692250E+02  3.499005812E+02  1.250000000E+02  0.00000E+00  9.000E+00
      25     1     1     2     0     0  1.413404530E+02 -1.293076075E+02  8.658142008E+01  2.445790738E+02  1.250000000E+02  0.00000E+00  9.000E+00
      21     1     1     2   501   512 -1.159994006E+01 -1.165364057E+01  1.254690186E+01  2.068310166E+01  2.384185791E-07  0.00000E+00  9.000E+00
#rwgt            1           1   3.0050987951786717E-002           9      206735           0
</event>
<event>
      5   9999  3.19816E-02  6.10278E+01 -1.00000E+00  1.34310E-01
      21    -1     0     0   511   501  0.000000000E+00  0.000000000E+00  4.332198730E+02  4.332198730E+02  0.000000000E+00  0.00000E+00  9.000E+00
      21    -1     0     0   501   502  0.000000000E+00  0.000000000E+00 -3.828707627E+02  3.828707627E+02  0.000000000E+00  0.00000E+00  9.000E+00
      25     1     1     2     0     0  5.302255902E+01  7.277299934E+01 -8.415407126E+01  1.755397645E+02  1.250000000E+02  0.00000E+00  9.000E+00
      25     1     1     2     0     0 -3.897543086E-01 -4.188325808E+01 -2.331645363E+02  2.678526837E+02  1.250000000E+02  0.00000E+00  9.000E+00
      21     1     1     2   511   502 -5.263280471E+01 -3.088974126E+01  3.676677178E+02  3.726981875E+02  0.000000000E+00  0.00000E+00  9.000E+00
#rwgt            1           1   5.4149283405190540E-002           9      206915           0
</event>
<event>
      5   9999  3.19816E-02  2.26793E+01 -1.00000E+00  1.61987E-01
       2    -1     0     0   502     0  0.000000000E+00  0.000000000E+00  1.248441801E+03  1.248441801E+03  0.000000000E+00  0.00000E+00  9.000E+00
      21    -1     0     0   501   502  0.000000000E+00  0.000000000E+00 -8.373157863E+01  8.373157863E+01  0.000000000E+00  0.00000E+00  9.000E+00
      25     1     1     2     0     0 -1.604972649E+02  1.424151472E+02  1.982159309E+02  3.177357416E+02  1.250000000E+02  0.00000E+00  9.000E+00
      25     1     1     2     0     0  1.726573648E+02 -1.615588803E+02  7.407664767E+02  7.875733683E+02  1.250000000E+02  0.00000E+00  9.000E+00
       2     1     1     2   501     0 -1.216009990E+01  1.914373312E+01  2.257278147E+02  2.268642697E+02  0.000000000E+00  0.00000E+00  9.000E+00
#rwgt            1           1   2.6352230719688733E-002           9      206995           0
</event>
<event>
      5   9999  3.19816E-02  1.06579E+02 -1.00000E+00  1.22596E-01
      -2    -1     0     0     0   501  0.000000000E+00  0.000000000E+00  3.772549843E+02  3.772549843E+02  0.000000000E+00  0.00000E+00  9.000E+00
      21    -1     0     0   501   502  0.000000000E+00  0.000000000E+00 -3.829030297E+02  3.829030297E+02  0.000000000E+00  0.00000E+00  9.000E+00
      25     1     1     2     0     0  3.356396027E+00 -3.977575424E+01 -2.417902479E+02  2.751016176E+02  1.250000000E+02  0.00000E+00  9.000E+00
      25     1     1     2     0     0  5.994714259E+01  1.255182285E+02 -3.808106553E+01  1.908498183E+02  1.250000000E+02  0.00000E+00  9.000E+00
      -2     1     1     2     0   502 -6.330353862E+01 -8.574247423E+01  2.742232680E+02  2.942065781E+02  6.607249480E-06  0.00000E+00  9.000E+00
#rwgt            2           4   1.5846262031214654E-004           9      207345           0
</event>
<event>
      5   9999  3.19816E-02  6.32427E+01 -1.00000E+00  1.33493E-01
      21    -1     0     0   502   501  0.000000000E+00  0.000000000E+00  1.567932046E+03  1.567932046E+03  0.000000000E+00  0.00000E+00  9.000E+00
       2    -1     0     0   501     0  0.000000000E+00  0.000000000E+00 -1.563335882E+03  1.563335882E+03  0.000000000E+00  0.00000E+00  9.000E+00
      25     1     1     2     0     0 -3.396444113E+02 -6.825612296E+02  8.376530232E+02  1.139533126E+03  1.250000000E+02  0.00000E+00  9.000E+00
      25     1     1     2     0     0  4.028871243E+02  6.825274801E+02  3.002229975E+02  8.566916857E+02  1.250000000E+02  0.00000E+00  9.000E+00
       2     1     1     2   502     0 -6.324271296E+01  3.374944102E-02 -1.133279856E+03  1.135043116E+03  1.525878906E-05  0.00000E+00  9.000E+00
#rwgt            1           1   3.2119739598202905E-002           9      207364           0
</event>
<event>
      5   9999  3.19816E-02  5.94004E+01 -1.00000E+00  1.34937E-01
      21    -1     0     0   511   501  0.000000000E+00  0.000000000E+00  3.600639907E+02  3.600639907E+02  0.000000000E+00  0.00000E+00  9.000E+00
      21    -1     0     0   501   502  0.000000000E+00  0.000000000E+00 -1.770517025E+03  1.770517025E+03  0.000000000E+00  0.00000E+00  9.000E+00
      25     1     1     2     0     0 -1.632823199E+02 -5.234203270E+02 -9.213541026E+02  1.079420371E+03  1.250000000E+02  0.00000E+00  9.000E+00
      25     1     1     2     0     0  2.226775795E+02  5.226409343E+02 -6.543716076E+02  8.755375785E+02  1.250000000E+02  0.00000E+00  9.000E+00
      21     1     1     2   511   502 -5.939525963E+01  7.793926246E-01  1.652726754E+02  1.756230667E+02  4.264961200E-06  0.00000E+00  9.000E+00
#rwgt            1           1   3.0086393174291969E-002           9      207514           0
</event>
<event>
      5   9999  3.19816E-02  3.62362E+01 -1.00000E+00  1.47553E-01
      21    -1     0     0   502   501  0.000000000E+00  0.000000000E+00  3.604783107E+02  3.604783107E+02  0.000000000E+00  0.00000E+00  9.000E+00
      21    -1     0     0   512   502  0.000000000E+00  0.000000000E+00 -6.531342942E+02  6.531342942E+02  0.000000000E+00  0.00000E+00  9.000E+00
      25     1     1     2     0     0 -8.595208754E+01  3.794276535E+01 -2.731065142E+02  3.147055495E+02  1.250000000E+02  0.00000E+00  9.000E+00
      25     1     1     2     0     0  5.261898617E+01 -2.373126525E+01  3.247366863E+02  3.527192171E+02  1.250000000E+02  0.00000E+00  9.000E+00
      21     1     1     2   512   501  3.333310138E+01 -1.421150010E+01 -3.442861556E+02  3.461878382E+02  0.000000000E+00  0.00000E+00  9.000E+00
#rwgt            1           1   2.5874853337983415E-002           9      207628           0
</event>
<event>
      5   9999  3.19816E-02  8.92609E+01 -1.00000E+00  1.26088E-01
       1    -1     0     0   502     0  0.000000000E+00  0.000000000E+00  3.398259700E+03  3.398259700E+03  0.000000000E+00  0.00000E+00  9.000E+00
      21    -1     0     0   501   502  0.000000000E+00  0.000000000E+00 -1.120094964E+03  1.120094964E+03  0.000000000E+00  0.00000E+00  9.000E+00
      25     1     1     2     0     0 -1.073795127E+03  2.708684762E+02  6.097381740E+02  1.270358748E+03  1.250000000E+02  0.00000E+00  9.000E+00
      25     1     1     2     0     0  1.162238965E+03 -2.588190108E+02 -3.344839390E+02  1.243097420E+03  1.250000000E+02  0.00000E+00  9.000E+00
       1     1     1     2   501     0 -8.844383733E+01 -1.204946545E+01  2.002910501E+03  2.004898495E+03  2.157918644E-05  0.00000E+00  9.000E+00
#rwgt            1           1   6.6218543381669603E-002           9      207812           0
</event>
<event>
      5   9999  3.19816E-02  1.21876E+01 -1.00000E+00  1.86323E-01
      21    -1     0     0   502   501  0.000000000E+00  0.000000000E+00  3.949323588E+02  3.949323588E+02  0.000000000E+00  0.00000E+00  9.000E+00
      21    -1     0     0   511   502  0.000000000E+00  0.000000000E+00 -1.358626612E+03  1.358626612E+03  0.000000000E+00  0.00000E+00  9.000E+00
      25     1     1     2     0     0  2.616786455E+02  8.484517263E+01 -1.262239440E+03  1.297901314E+03  1.250000000E+02  0.00000E+00  9.000E+00
      25     1     1     2     0     0 -2.525911179E+02 -7.672401000E+01  3.185770091E+02  4.322096219E+02  1.250000000E+02  0.00000E+00  9.000E+00
      21     1     1     2   511   501 -9.087527668E+00 -8.121162634E+00 -2.003182295E+01  2.344803558E+01  3.371747881E-07  0.00000E+00  9.000E+00
#rwgt            1           1   2.8180775158615924E-002           9      207932           0
</event>
<event>
      5   9999  3.19816E-02  4.28381E+01 -1.00000E+00  1.43018E-01
      21    -1     0     0   502   501  0.000000000E+00  0.000000000E+00  2.141722226E+02  2.141722226E+02  0.000000000E+00  0.00000E+00  9.000E+00
      21    -1     0     0   512   502  0.000000000E+00  0.000000000E+00 -2.630631510E+02  2.630631510E+02  0.000000000E+00  0.00000E+00  9.000E+00
      25     1     1     2     0     0  1.645039633E+02 -8.046217919E+01  4.260805453E+01  2.257790126E+02  1.250000000E+02  0.00000E+00  9.000E+00
      25     1     1     2     0     0 -1.219814901E+02  7.527194711E+01 -6.452281011E+01  2.008321263E+02  1.250000000E+02  0.00000E+00  9.000E+00
      21     1     1     2   512   501 -4.252247321E+01  5.190232073E+00 -2.697617280E+01  5.062423467E+01  4.768371582E-07  0.00000E+00  9.000E+00
#rwgt            1           1   2.5465291258608316E-002           9      208279           0
</event>
<event>
      5   9999  3.19816E-02  5.10678E+01 -1.00000E+00  1.38554E-01
      21    -1     0     0   502   511  0.000000000E+00  0.000000000E+00  3.041730055E+02  3.041730055E+02  0.000000000E+00  0.00000E+00  9.000E+00
      21    -1     0     0   501   502  0.000000000E+00  0.000000000E+00 -1.165065341E+03  1.165065341E+03  0.000000000E+00  0.00000E+00  9.000E+00
      25     1     1     2     0     0  2.320446138E+02 -2.306743107E+02 -9.964873702E+02  1.056251589E+03  1.250000000E+02  0.00000E+00  9.000E+00
      25     1     1     2     0     0 -2.550351352E+02  1.850743246E+02  1.194255012E+02  3.594201944E+02  1.250000000E+02  0.00000E+00  9.000E+00
      21     1     1     2   501   511  2.299052132E+01  4.559998607E+01  1.616953402E+01  5.356656262E+01  2.384185791E-07  0.00000E+00  9.000E+00
#rwgt            1           1   2.7984523772865720E-002           9      208353           0
</event>
<event>
      5   9999  3.19816E-02  6.06399E+01 -1.00000E+00  1.34458E-01
      21    -1     0     0   512   501  0.000000000E+00  0.000000000E+00  2.026105945E+02  2.026105945E+02  0.000000000E+00  0.00000E+00  9.000E+00
      21    -1     0     0   501   502  0.000000000E+00  0.000000000E+00 -3.710237292E+02  3.710237292E+02  0.000000000E+00  0.00000E+00  9.000E+00
      25     1     1     2     0     0 -5.981501183E+01 -1.130535227E+02  7.948847301E+01  1.957098669E+02  1.250000000E+02  0.00000E+00  9.000E+00
      25     1     1     2     0     0  2.493917990E+01  1.626606785E+02 -2.400978348E+02  3.167845156E+02  1.250000000E+02  0.00000E+00  9.000E+00
      21     1     1     2   512   502  3.487583193E+01 -4.960715571E+01 -7.803772913E+00  6.113994130E+01  7.348554138E-07  0.00000E+00  9.000E+00
#rwgt            1           1   3.0828769902311173E-002           9      208473           0
</event>
<event>
      5   9999  3.19816E-02  4.34356E+01 -1.00000E+00  1.42655E-01
      21    -1     0     0   511   501  0.000000000E+00  0.000000000E+00  8.107168160E+02  8.107168160E+02  0.000000000E+00  0.00000E+00  9.000E+00
      21    -1     0     0   501   502  0.000000000E+00  0.000000000E+00 -1.198098445E+02  1.198098445E+02  0.000000000E+00  0.00000E+00  9.000E+00
      25     1     1     2     0     0 -2.180496909E+02  1.085678424E+02  3.812797578E+02  4.693952469E+02  1.250000000E+02  0.00000E+00  9.000E+00
      25     1     1     2     0     0  2.553517936E+02 -8.631463250E+01  2.565990741E+02  3.925848177E+02  1.250000000E+02  0.00000E+00  9.000E+00
      21     1     1     2   511   502 -3.730210264E+01 -2.225320992E+01  5.302813953E+01  6.854659579E+01  1.348699152E-06  0.00000E+00  9.000E+00
#rwgt            1           1   2.8642037887479106E-002           9      208597           0
</event>
<event>
      5   9999  3.19816E-02  1.71021E+02 -1.00000E+00  1.14180E-01
      21    -1     0     0   512   501  0.000000000E+00  0.000000000E+00  7.934456925E+02  7.934456925E+02  0.000000000E+00  0.00000E+00  9.000E+00
      21    -1     0     0   501   502  0.000000000E+00  0.000000000E+00 -9.081327194E+02  9.081327194E+02  0.000000000E+00  0.00000E+00  9.000E+00
      25     1     1     2     0     0  3.117571220E+02  4.346007029E+02  1.178329135E+02  5.617649594E+02  1.250000000E+02  0.00000E+00  9.000E+00
      25     1     1     2     0     0 -4.759431830E+02 -4.824675184E+02 -4.793941975E+02  8.394883063E+02  1.250000000E+02  0.00000E+00  9.000E+00
      21     1     1     2   512   502  1.641860610E+02  4.786681558E+01  2.468742571E+02  3.003251463E+02  0.000000000E+00  0.00000E+00  9.000E+00
#rwgt            2          11   4.0500887496175021E-003           9      208702           0
</event>
<event>
      5   9999  3.19816E-02  4.28187E+01 -1.00000E+00  1.43030E-01
      21    -1     0     0   502   501  0.000000000E+00  0.000000000E+00  3.929087582E+02  3.929087582E+02  0.000000000E+00  0.00000E+00  9.000E+00
      21    -1     0     0   501   511  0.000000000E+00  0.000000000E+00 -9.726049362E+01  9.726049362E+01  0.000000000E+00  0.00000E+00  9.000E+00
      25     1     1     2     0     0  1.041549338E+02 -3.275630905E+01  1.460277446E+02  2.210663434E+02  1.250000000E+02  0.00000E+00  9.000E+00
      25     1     1     2     0     0 -1.061890430E+02  7.552662974E+01  1.261805653E+02  2.202882650E+02  1.250000000E+02  0.00000E+00  9.000E+00
      21     1     1     2   502   511  2.034109194E+00 -4.277032069E+01  2.343995473E+01  4.881464339E+01  6.743495762E-07  0.00000E+00  9.000E+00
#rwgt            1           1   2.8502258073167249E-002           9      208722           0
</event>
<event>
      5   9999  3.19816E-02  5.36805E+01 -1.00000E+00  1.37338E-01
      21    -1     0     0   502   501  0.000000000E+00  0.000000000E+00  2.603391162E+03  2.603391162E+03  0.000000000E+00  0.00000E+00  9.000E+00
      21    -1     0     0   512   502  0.000000000E+00  0.000000000E+00 -8.272584023E+02  8.272584023E+02  0.000000000E+00  0.00000E+00  9.000E+00
      25     1     1     2     0     0  5.559831409E+02 -1.022362907E+03  1.442837957E+03  1.857888462E+03  1.250000000E+02  0.00000E+00  9.000E+00
      25     1     1     2     0     0 -5.909793222E+02  1.063067451E+03  5.563597221E+02  1.343327996E+03  1.250000000E+02  0.00000E+00  9.000E+00
      21     1     1     2   512   501  3.499618130E+01 -4.070454338E+01 -2.230649189E+02  2.294331070E+02  0.000000000E+00  0.00000E+00  9.000E+00
#rwgt            1           1   6.3012008662661850E-002           9      208798           0
</event>
<event>
      5   9999  3.19816E-02  1.89622E+02 -1.00000E+00  1.12497E-01
      21    -1     0     0   502   511  0.000000000E+00  0.000000000E+00  7.323924362E+02  7.323924362E+02  0.000000000E+00  0.00000E+00  9.000E+00
      21    -1     0     0   501   502  0.000000000E+00  0.000000000E+00 -5.306620405E+02  5.306620405E+02  0.000000000E+00  0.00000E+00  9.000E+00
      25     1     1     2     0     0 -4.587601618E+02  2.319091419E+02 -7.991326474E+01  5.350269769E+02  1.250000000E+02  0.00000E+00  9.000E+00
      25     1     1     2     0     0  2.878501002E+02 -3.140454356E+02  7.979623285E+01  4.510816496E+02  1.250000000E+02  0.00000E+00  9.000E+00
      21     1     1     2   501   511  1.709100615E+02  8.213629371E+01  2.018474277E+02  2.769458502E+02  3.814697266E-06  0.00000E+00  9.000E+00
#rwgt            2          11   3.6460926158142959E-003           9      208948           0
</event>
<event>
      5   9999  3.19816E-02  2.53619E+02 -1.00000E+00  1.08017E-01
       1    -1     0     0   502     0  0.000000000E+00  0.000000000E+00  7.202905741E+02  7.202905741E+02  0.000000000E+00  0.00000E+00  9.000E+00
      21    -1     0     0   501   502  0.000000000E+00  0.000000000E+00 -1.020601541E+03  1.020601541E+03  0.000000000E+00  0.00000E+00  9.000E+00
      25     1     1     2     0     0 -2.617834564E+02  2.018024766E+02 -4.356312609E+02  5.609406503E+02  1.250000000E+02  0.00000E+00  9.000E+00
      25     1     1     2     0     0  3.810144068E+02 -4.256476654E+02 -3.141793193E+02  6.638385028E+02  1.250000000E+02  0.00000E+00  9.000E+00
       1     1     1     2   501     0 -1.192309503E+02  2.238451887E+02  4.494996129E+02  5.161129624E+02  7.629394531E-06  0.00000E+00  9.000E+00
#rwgt            2          17   6.1564235758894859E-004           9      209073           0
</event>
<event>
      5   9999  3.19816E-02  1.03363E+02 -1.00000E+00  1.23185E-01
      21    -1     0     0   502   501  0.000000000E+00  0.000000000E+00  2.314099354E+03  2.314099354E+03  0.000000000E+00  0.00000E+00  9.000E+00
      21    -1     0     0   501   511  0.000000000E+00  0.000000000E+00 -1.438419887E+02  1.438419887E+02  0.000000000E+00  0.00000E+00  9.000E+00
      25     1     1     2     0     0  3.683101318E+02 -3.331611973E+02  1.068483626E+03  1.184875941E+03  1.250000000E+02  0.00000E+00  9.000E+00
      25     1     1     2     0     0 -2.832632513E+02  3.919067186E+02  1.037198943E+03  1.151188774E+03  1.250000000E+02  0.00000E+00  9.000E+00
      21     1     1     2   502   511 -8.504688054E+01 -5.874552127E+01  6.457479666E+01  1.218766283E+02  2.132480600E-06  0.00000E+00  9.000E+00
#rwgt            1           1   3.0462121784429044E-002           9      209107           0
</event>
<event>
      5   9999  3.19816E-02  3.94086E+01 -1.00000E+00  1.45243E-01
       2    -1     0     0   502     0  0.000000000E+00  0.000000000E+00  3.447378584E+03  3.447378584E+03  0.000000000E+00  0.00000E+00  9.000E+00
      21    -1     0     0   501   502  0.000000000E+00  0.000000000E+00 -5.680744054E+02  5.680744054E+02  0.000000000E+00  0.00000E+00  9.000E+00
      25     1     1     2     0     0  7.505002217E+01 -5.516431337E+02  6.429600656E+01  5.741965075E+02  1.250000000E+02  0.00000E+00  9.000E+00
      25     1     1     2     0     0 -1.086370129E+02  5.310288486E+02 -6.584152267E+01  5.601372553E+02  1.250000000E+02  0.00000E+00  9.000E+00
       2     1     1     2   501     0  3.358699071E+01  2.061428504E+01  2.880849694E+03  2.881119226E+03  3.051757812E-05  0.00000E+00  9.000E+00
#rwgt            1           1   2.5335097184822852E-002           9      209198           0
</event>
<event>
      5   9999  3.19816E-02  4.08762E+01 -1.00000E+00  1.44259E-01
      21    -1     0     0   502   501  0.000000000E+00  0.000000000E+00  2.213388517E+03  2.213388517E+03  0.000000000E+00  0.00000E+00  9.000E+00
      21    -1     0     0   501   511  0.000000000E+00  0.000000000E+00 -1.274564128E+02  1.274564128E+02  0.000000000E+00  0.00000E+00  9.000E+00
      25     1     1     2     0     0 -4.253486806E+02 -2.575561609E+02  1.228945753E+03  1.331611557E+03  1.250000000E+02  0.00000E+00  9.000E+00
      25     1     1     2     0     0  4.080343911E+02  2.205280602E+02  8.337047496E+02  9.621919242E+02  1.250000000E+02  0.00000E+00  9.000E+00
      21     1     1     2   502   511  1.731428953E+01  3.702810069E+01  2.328160174E+01  4.704144813E+01  4.768371582E-07  0.00000E+00  9.000E+00
#rwgt            1           1   3.2639411036664408E-002           9      209375           0
</event>
<event>
      5   9999  3.19816E-02  4.24345E+01 -1.00000E+00  1.43267E-01
      -1    -1     0     0     0   501  0.000000000E+00  0.000000000E+00  1.340704863E+03  1.340704863E+03  0.000000000E+00  0.00000E+00  9.000E+00
      21    -1     0     0   501   502  0.000000000E+00  0.000000000E+00 -9.177839099E+01  9.177839099E+01  0.000000000E+00  0.00000E+00  9.000E+00
      25     1     1     2     0     0  1.187498240E+02 -1.457677193E+02  1.112196777E+03  1.134881676E+03  1.250000000E+02  0.00000E+00  9.000E+00
      25     1     1     2     0     0 -7.642458573E+01  1.488113137E+02  7.337130611E+01  2.213455962E+02  1.250000000E+02  0.00000E+00  9.000E+00
      -1     1     1     2     0   502 -4.232523828E+01 -3.043594374E+00  6.335838915E+01  7.625598165E+01  0.000000000E+00  0.00000E+00  9.000E+00
#rwgt            1           1   2.9040700232311940E-002           9      209549           0
</event>
<event>
      5   9999  3.19816E-02  3.77171E+01 -1.00000E+00  1.46441E-01
      21    -1     0     0   502   501  0.000000000E+00  0.000000000E+00  9.714016017E+02  9.714016017E+02  0.000000000E+00  0.00000E+00  9.000E+00
      21    -1     0     0   501   511  0.000000000E+00  0.000000000E+00 -1.708735263E+02  1.708735263E+02  0.000000000E+00  0.00000E+00  9.000E+00
      25     1     1     2     0     0 -3.029807517E+01  2.590828063E+02  4.023250371E+02  4.955121687E+02  1.250000000E+02  0.00000E+00  9.000E+00
      25     1     1     2     0     0 -3.000070714E+00 -2.767975653E+02  4.735034617E+02  5.625445945E+02  1.250000000E+02  0.00000E+00  9.000E+00
      21     1     1     2   502   511  3.329814588E+01  1.771475905E+01 -7.530042339E+01  8.421836480E+01  2.336015456E-06  0.00000E+00  9.000E+00
#rwgt            1           1   2.8717505362525781E-002           9      209653           0
</event>
<event>
      5   9999  3.19816E-02  1.68390E+02 -1.00000E+00  1.14437E-01
      21    -1     0     0   502   501  0.000000000E+00  0.000000000E+00  5.902650672E+02  5.902650672E+02  0.000000000E+00  0.00000E+00  9.000E+00
      21    -1     0     0   512   502  0.000000000E+00  0.000000000E+00 -6.708790160E+02  6.708790160E+02  0.000000000E+00  0.00000E+00  9.000E+00
      25     1     1     2     0     0 -1.707366505E+00 -1.605319052E+02  2.343033651E+02  3.103167326E+02  1.250000000E+02  0.00000E+00  9.000E+00
      25     1     1     2     0     0 -1.472748247E+02  2.390145848E+02  2.278311737E+02  3.825570408E+02  1.250000000E+02  0.00000E+00  9.000E+00
      21     1     1     2   512   501  1.489821912E+02 -7.848267963E+01 -5.427484875E+02  5.682703098E+02  0.000000000E+00  0.00000E+00  9.000E+00
#rwgt            1           1   3.2031978429575191E-002           9      209723           0
</event>
<event>
      5   9999  3.19816E-02  1.47690E+02 -1.00000E+00  1.16661E-01
       2    -1     0     0   502     0  0.000000000E+00  0.000000000E+00  3.255719337E+03  3.255719337E+03  0.000000000E+00  0.00000E+00  9.000E+00
      21    -1     0     0   501   502  0.000000000E+00  0.000000000E+00 -5.199640419E+01  5.199640419E+01  0.000000000E+00  0.00000E+00  9.000E+00
      25     1     1     2     0     0 -2.544903064E+02  1.116749960E+01  5.841074889E+02  6.493816965E+02  1.250000000E+02  0.00000E+00  9.000E+00
      25     1     1     2     0     0  1.068142712E+02 -1.322486668E+01  3.850674734E+02  4.189106644E+02  1.250000000E+02  0.00000E+00  9.000E+00
       2     1     1     2   501     0  1.476760353E+02  2.057367078E+00  2.234547970E+03  2.239423380E+03  3.051757812E-05  0.00000E+00  9.000E+00
#rwgt            1           1   2.8761412280766362E-002           9      209794           0
</event>
<event>
      5   9999  3.19816E-02  5.50764E+01 -1.00000E+00  1.36721E-01
      21    -1     0     0   511   501  0.000000000E+00  0.000000000E+00  1.306010860E+03  1.306010860E+03  0.000000000E+00  0.00000E+00  9.000E+00
      21    -1     0     0   501   502  0.000000000E+00  0.000000000E+00 -3.122885899E+02  3.122885899E+02  0.000000000E+00  0.00000E+00  9.000E+00
      25     1     1     2     0     0  4.463851118E+02  9.752155542E+01 -1.788252283E+01  4.740410388E+02  1.250000000E+02  0.00000E+00  9.000E+00
      25     1     1     2     0     0 -4.374130817E+02 -1.518622590E+02  9.006572523E+02  1.020392491E+03  1.250000000E+02  0.00000E+00  9.000E+00
      21     1     1     2   511   502 -8.972030174E+00  5.434070355E+01  1.109475405E+02  1.238659199E+02  1.348699152E-06  0.00000E+00  9.000E+00
#rwgt            1           1   2.8916234952506382E-002           9      209846           0
</event>
<event>
      5   9999  3.19816E-02  1.08033E+02 -1.00000E+00  1.22337E-01
      21    -1     0     0   502   501  0.000000000E+00  0.000000000E+00  1.640352496E+03  1.640352496E+03  0.000000000E+00  0.00000E+00  9.000E+00
      21    -1     0     0   501   512  0.000000000E+00  0.000000000E+00 -1.424909896E+02  1.424909896E+02  0.000000000E+00  0.00000E+00  9.000E+00
      25     1     1     2     0     0 -1.484070535E+02  1.304123284E+01  1.421383835E+03  1.434625991E+03  1.250000000E+02  0.00000E+00  9.000E+00
      25     1     1     2     0     0  1.073553677E+02 -1.129709940E+02 -2.332702837E+01  2.011386853E+02  1.250000000E+02  0.00000E+00  9.000E+00
      21     1     1     2   502   512  4.105168586E+01  9.992976120E+01  9.980469994E+01  1.470788095E+02  1.348699152E-06  0.00000E+00  9.000E+00
#rwgt            1           1   3.1231603010601461E-002           9      210005           0
</event>
<event>
      5   9999  3.19816E-02  1.71343E+01 -1.00000E+00  1.72108E-01
      21    -1     0     0   502   501  0.000000000E+00  0.000000000E+00  2.220233345E+02  2.220233345E+02  0.000000000E+00  0.00000E+00  9.000E+00
      21    -1     0     0   511   502  0.000000000E+00  0.000000000E+00 -7.268827502E+02  7.268827502E+02  0.000000000E+00  0.00000E+00  9.000E+00
      25     1     1     2     0     0  3.817345313E+01 -1.059851857E+02  1.770007262E+02  2.442218851E+02  1.250000000E+02  0.00000E+00  9.000E+00
      25     1     1     2     0     0 -4.493931487E+01  9.024332592E+01 -6.064028559E+02  6.273060047E+02  1.250000000E+02  0.00000E+00  9.000E+00
      21     1     1     2   511   501  6.765861734E+00  1.574185978E+01 -7.545728598E+01  7.737819487E+01  0.000000000E+00  0.00000E+00  9.000E+00
#rwgt            1           1   2.7372407583298106E-002           9      210085           0
</event>
<event>
      5   9999  3.19816E-02  4.71788E+02 -1.00000E+00  9.95739E-02
       2    -1     0     0   502     0  0.000000000E+00  0.000000000E+00  1.703664441E+03  1.703664441E+03  0.000000000E+00  0.00000E+00  9.000E+00
      21    -1     0     0   501   502  0.000000000E+00  0.000000000E+00 -3.058824859E+02  3.058824859E+02  0.000000000E+00  0.00000E+00  9.000E+00
      25     1     1     2     0     0 -2.083145996E+02 -1.940827963E+01  7.439790790E+01  2.548169979E+02  1.250000000E+02  0.00000E+00  9.000E+00
      25     1     1     2     0     0  4.671358685E+02 -3.750475058E+02  4.415790677E+02  7.546480136E+02  1.250000000E+02  0.00000E+00  9.000E+00
       2     1     1     2   501     0 -2.588212690E+02  3.944557855E+02  8.818049796E+02  1.000081916E+03  1.868812365E-05  0.00000E+00  9.000E+00
#rwgt            2          18   1.3056325542534280E-003           9      210379           0
</event>
<event>
      5   9999  3.19816E-02  1.52848E+02 -1.00000E+00  1.16071E-01
      -1    -1     0     0     0   501  0.000000000E+00  0.000000000E+00  5.274528861E+02  5.274528861E+02  0.000000000E+00  0.00000E+00  9.000E+00
      21    -1     0     0   501   502  0.000000000E+00  0.000000000E+00 -7.356098351E+02  7.356098351E+02  0.000000000E+00  0.00000E+00  9.000E+00
      25     1     1     2     0     0 -1.211445089E+02 -1.245312200E+02 -4.416116795E+02  4.907442228E+02  1.250000000E+02  0.00000E+00  9.000E+00
      25     1     1     2     0     0  5.035307221E+01  2.599978514E+02  4.319073279E+02  5.218268434E+02  1.250000000E+02  0.00000E+00  9.000E+00
      -1     1     1     2     0   502  7.079143671E+01 -1.354666315E+02 -1.984525974E+02  2.504916549E+02  3.814697266E-06  0.00000E+00  9.000E+00
#rwgt            1           1   2.3702477550745768E-002           9      210398           0
</event>
<event>
      5   9999  3.19816E-02  8.84591E+00 -1.00000E+00  2.02122E-01
      21    -1     0     0   502   501  0.000000000E+00  0.000000000E+00  1.288321715E+03  1.288321715E+03  0.000000000E+00  0.00000E+00  9.000E+00
      21    -1     0     0   501   511  0.000000000E+00  0.000000000E+00 -4.058265183E+01  4.058265183E+01  0.000000000E+00  0.00000E+00  9.000E+00
      25     1     1     2     0     0 -1.076058201E+02  4.758077400E+01  5.560457789E+02  5.819405904E+02  1.250000000E+02  0.00000E+00  9.000E+00
      25     1     1     2     0     0  1.069115401E+02 -3.876215175E+01  7.082826225E+02  7.281633437E+02  1.250000000E+02  0.00000E+00  9.000E+00
      21     1     1     2   502   511  6.942800237E-01 -8.818622248E+00 -1.658933826E+01  1.880043263E+01  6.743495762E-07  0.00000E+00  9.000E+00
#rwgt            1           1   2.8029946093014235E-002           9      210475           0
</event>
<event>
      5   9999  3.19816E-02  2.32426E+01 -1.00000E+00  1.61159E-01
      21    -1     0     0   502   501  0.000000000E+00  0.000000000E+00  3.073397814E+02  3.073397814E+02  0.000000000E+00  0.00000E+00  9.000E+00
      21    -1     0     0   512   502  0.000000000E+00  0.000000000E+00 -1.582139834E+02  1.582139834E+02  0.000000000E+00  0.00000E+00  9.000E+00
      25     1     1     2     0     0 -1.205527896E+02  8.370264632E+01  1.065780474E+02  2.202793414E+02  1.250000000E+02  0.00000E+00  9.000E+00
      25     1     1     2     0     0  1.181381493E+02 -1.068194820E+02  6.531436364E+01  2.127392539E+02  1.250000000E+02  0.00000E+00  9.000E+00
      21     1     1     2   512   501  2.414640286E+00  2.311683569E+01 -2.276661306E+01  3.253516943E+01  8.259061849E-07  0.00000E+00  9.000E+00
#rwgt            1           1   2.6589093798064067E-002           9      210624           0
</event>
<event>
      5   9999  3.19816E-02  1.20225E+02 -1.00000E+00  1.20334E-01
      21    -1     0     0   502   511  0.000000000E+00  0.000000000E+00  5.510141742E+02  5.510141742E+02  0.000000000E+00  0.00000E+00  9.000E+00
      21    -1     0     0   501   502  0.000000000E+00  0.000000000E+00 -4.025240127E+02  4.025240127E+02  0.000000000E+00  0.00000E+00  9.000E+00
      25     1     1     2     0     0 -1.517834080E+02 -2.881586032E+02 -9.423781162E+01  3.613576465E+02  1.250000000E+02  0.00000E+00  9.000E+00
      25     1     1     2     0     0  8.221690599E+01  3.862120778E+02  2.228423684E+02  4.703223467E+02  1.250000000E+02  0.00000E+00  9.000E+00
      21     1     1     2   501   511  6.956650197E+01 -9.805347460E+01  1.988560479E+01  1.218581936E+02  1.261592536E-06  0.00000E+00  9.000E+00
#rwgt            2          11   4.0349010202187716E-003           9      210738           0
</event>
<event>
      5   9999  3.19816E-02  4.09285E+01 -1.00000E+00  1.44225E-01
      21    -1     0     0   502   512  0.000000000E+00  0.000000000E+00  4.414816020E+02  4.414816020E+02  0.000000000E+00  0.00000E+00  9.000E+00
      21    -1     0     0   501   502  0.000000000E+00  0.000000000E+00 -9.472487790E+02  9.472487790E+02  0.000000000E+00  0.00000E+00  9.000E+00
      25     1     1     2     0     0  7.086771367E+01 -4.306311682E+01 -9.133226498E+02  9.255592513E+02  1.250000000E+02  0.00000E+00  9.000E+00
      25     1     1     2     0     0 -6.139177624E+01  3.246671279E+00  3.972493144E+02  4.209649734E+02  1.250000000E+02  0.00000E+00  9.000E+00
      21     1     1     2   501   512 -9.475937425E+00  3.981644554E+01  1.030615849E+01  4.220615629E+01  4.460403188E-07  0.00000E+00  9.000E+00
#rwgt            1           1   3.1098907643546937E-002           9      210773           0
</event>
<event>
      5   9999  3.19816E-02  1.15279E+02 -1.00000E+00  1.21113E-01
      21    -1     0     0   502   501  0.000000000E+00  0.000000000E+00  1.944798388E+03  1.944798388E+03  0.000000000E+00  0.00000E+00  9.000E+00
      21    -1     0     0   501   511  0.000000000E+00  0.000000000E+00 -2.585992802E+02  2.585992802E+02  0.000000000E+00  0.00000E+00  9.000E+00
      25     1     1     2     0     0  2.981274190E+02  3.233884626E+02  1.197397312E+03  1.281735299E+03  1.250000000E+02  0.00000E+00  9.000E+00
      25     1     1     2     0     0 -4.066411427E+02 -3.622989606E+02  5.559601709E+02  7.882475927E+02  1.250000000E+02  0.00000E+00  9.000E+00
      21     1     1     2   502   511  1.085137236E+02  3.891049801E+01 -6.715837507E+01  1.334147759E+02  1.907348633E-06  0.00000E+00  9.000E+00
#rwgt            1           1   3.0805193221064800E-002           9      210924           0
</event>
<event>
      5   9999  3.19816E-02  4.47241E+02 -1.00000E+00  1.00248E-01
      21    -1     0     0   502   512  0.000000000E+00  0.000000000E+00  6.765182973E+02  6.765182973E+02  0.000000000E+00  0.00000E+00  9.000E+00
      21    -1     0     0   501   502  0.000000000E+00  0.000000000E+00 -7.471699169E+02  7.471699169E+02  0.000000000E+00  0.00000E+00  9.000E+00
      25     1     1     2     0     0  2.554151819E+01  9.991294784E+01  2.258520340E+02  2.779732137E+02  1.250000000E+02  0.00000E+00  9.000E+00
      25     1     1     2     0     0  3.060476734E+02 -4.000340538E+02 -4.353874632E+02  6.774065735E+02  1.250000000E+02  0.00000E+00  9.000E+00
      21     1     1     2   501   512 -3.315891916E+02  3.001211060E+02  1.388838096E+02  4.683084270E+02  8.529922400E-06  0.00000E+00  9.000E+00
#rwgt            1           1   2.8983276068000541E-002           9      211081           0
</event>
<event>
      5   9999  3.19816E-02  6.20445E+01 -1.00000E+00  1.33930E-01
       2    -1     0     0   502     0  0.000000000E+00  0.000000000E+00  1.127372479E+03  1.127372479E+03  0.000000000E+00  0.00000E+00  9.000E+00
      21    -1     0     0   501   502  0.000000000E+00  0.000000000E+00 -1.882305824E+02  1.882305824E+02  0.000000000E+00  0.00000E+00  9.000E+00
      25     1     1     2     0     0 -3.127852051E+02  2.263575455E+02  4.709326586E+02  6.216710480E+02  1.250000000E+02  0.00000E+00  9.000E+00
      25     1     1     2     0     0  2.805306219E+02 -2.793591293E+02  2.932322652E+02  5.082805469E+02  1.250000000E+02  0.00000E+00  9.000E+00
       2     1     1     2   501     0  3.225458327E+01  5.300158378E+01  1.749769727E+02  1.856514665E+02  2.697398305E-06  0.00000E+00  9.000E+00
#rwgt            1           1   2.9837727123445804E-002           9      211109           0
</event>
<event>
      5   9999  3.19816E-02  1.80828E+02 -1.00000E+00  1.13265E-01
      21    -1     0     0   502   511  0.000000000E+00  0.000000000E+00  4.804690190E+02  4.804690190E+02  0.000000000E+00  0.00000E+00  9.000E+00
      21    -1     0     0   501   502  0.000000000E+00  0.000000000E+00 -8.678620457E+02  8.678620457E+02  0.000000000E+00  0.00000E+00  9.000E+00
      25     1     1     2     0     0 -2.254139097E+02 -1.344347978E+02  2.891289653E+01  2.921388388E+02  1.250000000E+02  0.00000E+00  9.000E+00
      25     1     1     2     0     0  3.997577817E+02  1.824258310E+02 -6.287571436E+02  7.772039716E+02  1.250000000E+02  0.00000E+00  9.000E+00
      21     1     1     2   501   511 -1.743438720E+02 -4.799103323E+01  2.124512204E+02  2.789882543E+02  0.000000000E+00  0.00000E+00  9.000E+00
#rwgt            1           1   2.8654598953643508E-002           9      211185           0
</event>
<event>
      5   9999  3.19816E-02  1.40023E+02 -1.00000E+00  1.17591E-01
      21    -1     0     0   502   501  0.000000000E+00  0.000000000E+00  4.235973596E+02  4.235973596E+02  0.000000000E+00  0.00000E+00  9.000E+00
      21    -1     0     0   512   502  0.000000000E+00  0.000000000E+00 -9.778683271E+02  9.778683271E+02  0.000000000E+00  0.00000E+00  9.000E+00
      25     1     1     2     0     0 -2.281731771E+01 -2.224531743E+02 -4.247247370E+02  4.960061964E+02  1.250000000E+02  0.00000E+00  9.000E+00
      25     1     1     2     0     0  1.303523503E+02  1.327716840E+02  3.445892642E+02  4.110800607E+02  1.250000000E+02  0.00000E+00  9.000E+00
      21     1     1     2   512   501 -1.075350326E+02  8.968149030E+01 -4.741354948E+02  4.943794296E+02  5.394796609E-06  0.00000E+00  9.000E+00
#rwgt            2          11   2.5228958901284283E-003           9      211262           0
</event>
<event>
      5   9999  3.19816E-02  7.51686E+02 -1.00000E+00  9.40692E-02
      21    -1     0     0   502   501  0.000000000E+00  0.000000000E+00  1.552070796E+03  1.552070796E+03  0.000000000E+00  0.00000E+00  9.000E+00
       1    -1     0     0   501     0  0.000000000E+00  0.000000000E+00 -8.196999953E+02  8.196999953E+02  0.000000000E+00  0.00000E+00  9.000E+00
      25     1     1     2     0     0 -7.699045796E+02 -1.338302576E+02  4.918587036E+02  9.317797936E+02  1.250000000E+02  0.00000E+00  9.000E+00
      25     1     1     2     0     0  3.393369555E+01 -1.907182583E+01 -4.196314498E+02  4.395802360E+02  1.250000000E+02  0.00000E+00  9.000E+00
       1     1     1     2   502     0  7.359708840E+02  1.529020834E+02  6.601435467E+02  1.000410761E+03  0.000000000E+00  0.00000E+00  9.000E+00
#rwgt            2          12   5.4649549742366570E-005           9      211297           0
</event>
<event>
      5   9999  3.19816E-02  2.33667E+01 -1.00000E+00  1.60980E-01
      21    -1     0     0   502   501  0.000000000E+00  0.000000000E+00  3.162971570E+02  3.162971570E+02  0.000000000E+00  0.00000E+00  9.000E+00
      21    -1     0     0   511   502  0.000000000E+00  0.000000000E+00 -9.756621618E+01  9.756621618E+01  0.000000000E+00  0.00000E+00  9.000E+00
      25     1     1     2     0     0  5.099981676E+01 -6.142939643E+01  6.166763605E+01  1.606314085E+02  1.250000000E+02  0.00000E+00  9.000E+00
      25     1     1     2     0     0 -3.194357142E+01  7.495211730E+01  1.702663364E+02  2.263931027E+02  1.250000000E+02  0.00000E+00  9.000E+00
      21     1     1     2   511   501 -1.905624534E+01 -1.352272086E+01 -1.320303167E+01  2.683886196E+01  2.384185791E-07  0.00000E+00  9.000E+00
#rwgt            1           1   7.1950542476187748E-002           9      211316           0
</event>
<event>
      5   9999  3.19816E-02  1.30114E+01 -1.00000E+00  1.83407E-01
      21    -1     0     0   502   512  0.000000000E+00  0.000000000E+00  1.054308946E+02  1.054308946E+02  0.000000000E+00  0.00000E+00  9.000E+00
      21    -1     0     0   501   502  0.000000000E+00  0.000000000E+00 -2.106115242E+03  2.106115242E+03  0.000000000E+00  0.00000E+00  9.000E+00
      25     1     1     2     0     0 -3.806468511E+02 -1.304468329E+02 -8.414636827E+02  9.410603226E+02  1.250000000E+02  0.00000E+00  9.000E+00
      25     1     1     2     0     0  3.702640751E+02  1.226049500E+02 -1.178264633E+03  1.247421342E+03  1.250000000E+02  0.00000E+00  9.000E+00
      21     1     1     2   501   512  1.038277602E+01  7.841882901E+00  1.904396801E+01  2.306447230E+01  1.143415337E-06  0.00000E+00  9.000E+00
#rwgt            1           1   2.6545916515632113E-002           9      211449           0
</event>
<event>
      5   9999  3.19816E-02  1.91374E+01 -1.00000E+00  1.67964E-01
      21    -1     0     0   502   511  0.000000000E+00  0.000000000E+00  8.184067599E+02  8.184067599E+02  0.000000000E+00  0.00000E+00  9.000E+00
      21    -1     0     0   501   502  0.000000000E+00  0.000000000E+00 -2.912895374E+02  2.912895374E+02  0.000000000E+00  0.00000E+00  9.000E+00
      25     1     1     2     0     0  1.767235340E+02 -1.164678467E+02 -2.095885864E+02  3.230299402E+02  1.250000000E+02  0.00000E+00  9.000E+00
      25     1     1     2     0     0 -1.949746740E+02  1.107113004E+02  6.822849345E+02  7.289786330E+02  1.250000000E+02  0.00000E+00  9.000E+00
      21     1     1     2   501   511  1.825114001E+01  5.756546294E+00  5.442087445E+01  5.768772410E+01  6.743495762E-07  0.00000E+00  9.000E+00
#rwgt            1           1   2.9999319771309509E-002           9      211667           0
</event>
<event>
      5   9999  3.19816E-02  9.74976E+01 -1.00000E+00  1.24325E-01
      21    -1     0     0   502   512  0.000000000E+00  0.000000000E+00  1.851338528E+02  1.851338528E+02  0.000000000E+00  0.00000E+00  9.000E+00
      21    -1     0     0   501   502  0.000000000E+00  0.000000000E+00 -1.038255346E+03  1.038255346E+03  0.000000000E+00  0.00000E+00  9.000E+00
      25     1     1     2     0     0 -1.138936385E+02 -2.272594538E+02 -7.440448815E+02  7.961447142E+02  1.250000000E+02  0.00000E+00  9.000E+00
      25     1     1     2     0     0  2.042286598E+02  1.905802318E+02 -4.199628291E+01  3.088994303E+02  1.250000000E+02  0.00000E+00  9.000E+00
      21     1     1     2   501   512 -9.033502125E+01  3.667922202E+01 -6.708032876E+01  1.183450544E+02  9.536743164E-07  0.00000E+00  9.000E+00
#rwgt            2          11   4.1448747079905843E-003           9      211865           0
</event>
<event>
      5   9999  3.19816E-02  7.64995E+01 -1.00000E+00  1.29297E-01
      21    -1     0     0   502   501  0.000000000E+00  0.000000000E+00  3.045199590E+02  3.045199590E+02  0.000000000E+00  0.00000E+00  9.000E+00
      21    -1     0     0   511   502  0.000000000E+00  0.000000000E+00 -3.144950856E+02  3.144950856E+02  0.000000000E+00  0.00000E+00  9.000E+00
      25     1     1     2     0     0 -2.183811892E+02  2.679116643E+01 -1.373774565E+02  2.879334575E+02  1.250000000E+02  0.00000E+00  9.000E+00
      25     1     1     2     0     0  1.656391651E+02  2.862045165E+01  1.421756683E+02  2.531686867E+02  1.250000000E+02  0.00000E+00  9.000E+00
      21     1     1     2   511   501  5.274202408E+01 -5.541161807E+01 -1.477333843E+01  7.791290041E+01  8.596304120E-07  0.00000E+00  9.000E+00
#rwgt            1           1   2.8352660722032769E-002           9      211900           0
</event>
<event>
      5   9999  3.19816E-02  2.78419E+01 -1.00000E+00  1.55326E-01
      21    -1     0     0   502   501  0.000000000E+00  0.000000000E+00  4.696593774E+02  4.696593774E+02  0.000000000E+00  0.00000E+00  9.000E+00
      21    -1     0     0   501   512  0.000000000E+00  0.000000000E+00 -2.129812762E+02  2.129812762E+02  0.000000000E+00  0.00000E+00  9.000E+00
      25     1     1     2     0     0  9.940780858E+01  3.977560956E+01 -7.296333845E+01  1.800351640E+02  1.250000000E+02  0.00000E+00  9.000E+00
      25     1     1     2     0     0 -1.245927313E+02 -5.164543982E+01  3.927280052E+02  4.336483439E+02  1.250000000E+02  0.00000E+00  9.000E+00
      21     1     1     2   502   512  2.518492271E+01  1.186983026E+01 -6.308656551E+01  6.895714575E+01  0.000000000E+00  0.00000E+00  9.000E+00
#rwgt            1           1   2.8176427390365390E-002           9      211975           0
</event>
<event>
      5   9999  3.19816E-02  4.63776E+01 -1.00000E+00  1.40965E-01
      21    -1     0     0   502   501  0.000000000E+00  0.000000000E+00  5.645558604E+02  5.645558604E+02  0.000000000E+00  0.00000E+00  9.000E+00
      21    -1     0     0   511   502  0.000000000E+00  0.000000000E+00 -6.499353362E+01  6.499353362E+01  0.000000000E+00  0.00000E+00  9.000E+00
      25     1     1     2     0     0  1.169792664E+02 -5.423807348E+01  2.345610628E+02  2.954146401E+02  1.250000000E+02  0.00000E+00  9.000E+00
      25     1     1     2     0     0 -7.064932039E+01  5.633950015E+01  2.255584343E+02  2.732527640E+02  1.250000000E+02  0.00000E+00  9.000E+00
      21     1     1     2   511   501 -4.632994599E+01 -2.101426677E+00  3.944282969E+01  6.088198998E+01  6.743495762E-07  0.00000E+00  9.000E+00
#rwgt            1           1   2.6546757585910501E-002           9      212090           0
</event>
<event>
      5   9999  3.19816E-02  2.19530E+02 -1.00000E+00  1.10195E-01
      21    -1     0     0   502   501  0.000000000E+00  0.000000000E+00  1.039849248E+03  1.039849248E+03  0.000000000E+00  0.00000E+00  9.000E+00
      21    -1     0     0   501   512  0.000000000E+00  0.000000000E+00 -2.569050123E+02  2.569050123E+02  0.000000000E+00  0.00000E+00  9.000E+00
      25     1     1     2     0     0  2.691486808E+02  2.091928353E+02  2.622693975E+02  4.478983050E+02  1.250000000E+02  0.00000E+00  9.000E+00
      25     1     1     2     0     0 -9.164036746E+01 -8.002625651E+01  5.926824893E+02  6.178184942E+02  1.250000000E+02  0.00000E+00  9.000E+00
      21     1     1     2   502   512 -1.775083133E+02 -1.291665788E+02 -7.200765155E+01  2.310374607E+02  3.162979880E-06  0.00000E+00  9.000E+00
#rwgt            1           1   2.7298882614896339E-002           9      212156           0
</event>
<event>
      5   9999  3.19816E-02  7.02568E+01 -1.00000E+00  1.31140E-01
       2    -1     0     0   502     0  0.000000000E+00  0.000000000E+00  2.023804646E+03  2.023804646E+03  0.000000000E+00  0.00000E+00  9.000E+00
      21    -1     0     0   501   502  0.000000000E+00  0.000000000E+00 -5.432355631E+01  5.432355631E+01  0.000000000E+00  0.00000E+00  9.000E+00
      25     1     1     2     0     0 -7.574892158E+01 -2.024129390E+02  6.698881973E+02  7.149014574E+02  1.250000000E+02  0.00000E+00  9.000E+00
      25     1     1     2     0     0  1.429749952E+01  1.683580564E+02  3.310078431E+02  3.920969852E+02  1.250000000E+02  0.00000E+00  9.000E+00
       2     1     1     2   501     0  6.145142206E+01  3.405488260E+01  9.685850490E+02  9.711297594E+02  1.868812365E-05  0.00000E+00  9.000E+00
#rwgt            1           1   2.9565430619109857E-002           9      212219           0
</event>
<event>
      5   9999  3.19816E-02  1.32170E+01 -1.00000E+00  1.82723E-01
       1    -1     0     0   502     0  0.000000000E+00  0.000000000E+00  1.689518587E+03  1.689518587E+03  0.000000000E+00  0.00000E+00  9.000E+00
      21    -1     0     0   501   502  0.000000000E+00  0.000000000E+00 -2.758709905E+02  2.758709905E+02  0.000000000E+00  0.00000E+00  9.000E+00
      25     1     1     2     0     0  1.571098842E+02  6.803517933E+00 -2.177133746E+02  2.962328764E+02  1.250000000E+02  0.00000E+00  9.000E+00
      25     1     1     2     0     0 -1.570243242E+02  6.413210544E+00  5.156786505E+02  5.533960953E+02  1.250000000E+02  0.00000E+00  9.000E+00
       1     1     1     2   501     0 -8.555996825E-02 -1.321672848E+01  1.115682321E+03  1.115760606E+03  0.000000000E+00  0.00000E+00  9.000E+00
#rwgt            1           1   2.9501266344392832E-002           9      212266           0
</event>
<event>
      5   9999  3.19816E-02  1.92885E+02 -1.00000E+00  1.12224E-01
      21    -1     0     0   502   511  0.000000000E+00  0.000000000E+00  3.472692513E+02  3.472692513E+02  0.000000000E+00  0.00000E+00  9.000E+00
      21    -1     0     0   501   502  0.000000000E+00  0.000000000E+00 -5.742308323E+02  5.742308323E+02  0.000000000E+00  0.00000E+00  9.000E+00
      25     1     1     2     0     0  2.042894296E+01 -1.322745186E+02 -3.068035016E+02  3.573055815E+02  1.250000000E+02  0.00000E+00  9.000E+00
      25     1     1     2     0     0  1.702497188E+02  1.613652300E+02 -1.153762328E+02  2.897591747E+02  1.250000000E+02  0.00000E+00  9.000E+00
      21     1     1     2   501   511 -1.906786618E+02 -2.909071139E+01  1.952181534E+02  2.744353274E+02  4.672030912E-06  0.00000E+00  9.000E+00
#rwgt            1           1   3.0524963872269707E-002           9      212535           0
</event>
<event>
      5   9999  3.19816E-02  1.95091E+01 -1.00000E+00  1.67265E-01
      21    -1     0     0   512   501  0.000000000E+00  0.000000000E+00  1.079096638E+03  1.079096638E+03  0.000000000E+00  0.00000E+00  9.000E+00
      21    -1     0     0   501   502  0.000000000E+00  0.000000000E+00 -5.370576392E+01  5.370576392E+01  0.000000000E+00  0.00000E+00  9.000E+00
      25     1     1     2     0     0  1.447901524E+02  8.556823881E+01  5.154835221E+02  5.564479969E+02  1.250000000E+02  0.00000E+00  9.000E+00
      25     1     1     2     0     0 -1.257135746E+02 -8.148310651E+01  2.568832055E+02  3.225792628E+02  1.250000000E+02  0.00000E+00  9.000E+00
      21     1     1     2   512   502 -1.907657777E+01 -4.085132308E+00  2.530241463E+02  2.537751421E+02  3.814697266E-06  0.00000E+00  9.000E+00
#rwgt            1           1   3.2533497767699746E-002           9      212588           0
</event>
<event>
      5   9999  3.19816E-02  3.60522E+02 -1.00000E+00  1.03062E-01
      21    -1     0     0   502   511  0.000000000E+00  0.000000000E+00  8.054781960E+02  8.054781960E+02  0.000000000E+00  0.00000E+00  9.000E+00
      21    -1     0     0   501   502  0.000000000E+00  0.000000000E+00 -5.980248376E+02  5.980248376E+02  0.000000000E+00  0.00000E+00  9.000E+00
      25     1     1     2     0     0 -1.518567232E+02  1.657800898E+02  3.244257950E+02  4.140297079E+02  1.250000000E+02  0.00000E+00  9.000E+00
      25     1     1     2     0     0  2.704537679E+02 -5.062372759E+02 -1.981452896E+02  6.199257826E+02  1.250000000E+02  0.00000E+00  9.000E+00
      21     1     1     2   501   511 -1.185970447E+02  3.404571861E+02  8.117285300E+01  3.695475431E+02  3.693564745E-06  0.00000E+00  9.000E+00
#rwgt            1           1   2.1572543363648038E-002           9      212793           0
</event>
<event>
      5   9999  3.19816E-02  5.08049E+01 -1.00000E+00  1.38681E-01
      21    -1     0     0   502   501  0.000000000E+00  0.000000000E+00  1.317512681E+03  1.317512681E+03  0.000000000E+00  0.00000E+00  9.000E+00
      21    -1     0     0   501   512  0.000000000E+00  0.000000000E+00 -2.049046215E+02  2.049046215E+02  0.000000000E+00  0.00000E+00  9.000E+00
      25     1     1     2     0     0  8.451095639E+01  4.088717430E+02  1.617827010E+02  4.648836912E+02  1.250000000E+02  0.00000E+00  9.000E+00
      25     1     1     2     0     0 -6.167446145E+01 -3.634885789E+02  9.177681033E+02  9.969207479E+02  1.250000000E+02  0.00000E+00  9.000E+00
      21     1     1     2   502   512 -2.283649494E+01 -4.538316410E+01  3.305725507E+01  6.061286330E+01  9.536743164E-07  0.00000E+00  9.000E+00
#rwgt            1           1   3.3164851293559922E-002           9      212829           0
</event>
<event>
      5   9999  3.19816E-02  5.06264E+01 -1.00000E+00  1.38768E-01
      21    -1     0     0   502   511  0.000000000E+00  0.000000000E+00  1.398582371E+03  1.398582371E+03  0.000000000E+00  0.00000E+00  9.000E+00
      21    -1     0     0   501   502  0.000000000E+00  0.000000000E+00 -8.807466346E+01  8.807466346E+01  0.000000000E+00  0.00000E+00  9.000E+00
      25     1     1     2     0     0  1.412441422E+02 -1.716722962E+02  2.262791701E+02  3.409524128E+02  1.250000000E+02  0.00000E+00  9.000E+00
      25     1     1     2     0     0 -1.502298472E+02  2.214949046E+02  7.240610433E+02  7.819964158E+02  1.250000000E+02  0.00000E+00  9.000E+00
      21     1     1     2   501   511  8.985705023E+00 -4.982260843E+01  3.601674936E+02  3.637082054E+02  6.607249480E-06  0.00000E+00  9.000E+00
#rwgt            1           1   2.5252319488950365E-002           9      212932           0
</event>
<event>
      5   9999  3.19816E-02  4.85064E+01 -1.00000E+00  1.39831E-01
      21    -1     0     0   512   501  0.000000000E+00  0.000000000E+00  4.462983447E+02  4.462983447E+02  0.000000000E+00  0.00000E+00  9.000E+00
      21    -1     0     0   501   502  0.000000000E+00  0.000000000E+00 -9.116818622E+02  9.116818622E+02  0.000000000E+00  0.00000E+00  9.000E+00
      25     1     1     2     0     0 -2.189627155E+02 -2.013233734E+02 -7.415365719E+02  8.086886044E+02  1.250000000E+02  0.00000E+00  9.000E+00
      25     1     1     2     0     0  1.868789963E+02  2.377034199E+02  6.621215133E+01  3.338198976E+02  1.250000000E+02  0.00000E+00  9.000E+00
      21     1     1     2   512   502  3.208371921E+01 -3.638004653E+01  2.099409030E+02  2.154717049E+02  0.000000000E+00  0.00000E+00  9.000E+00
#rwgt            1           1   2.8807710190446395E-002           9      213028           0
</event>
<event>
      5   9999  3.19816E-02  5.75964E+01 -1.00000E+00  1.35659E-01
      21    -1     0     0   502   511  0.000000000E+00  0.000000000E+00  3.570060147E+02  3.570060147E+02  0.000000000E+00  0.00000E+00  9.000E+00
      21    -1     0     0   501   502  0.000000000E+00  0.000000000E+00 -1.163156319E+03  1.163156319E+03  0.000000000E+00  0.00000E+00  9.000E+00
      25     1     1     2     0     0  3.858006416E+02 -1.133668144E+02 -3.725561089E+02  5.622430293E+02  1.250000000E+02  0.00000E+00  9.000E+00
      25     1     1     2     0     0 -3.381650623E+02  1.457426908E+02 -6.371091703E+02  7.464111709E+02  1.250000000E+02  0.00000E+00  9.000E+00
      21     1     1     2   501   511 -4.763557934E+01 -3.237587641E+01  2.035149746E+02  2.115081338E+02  3.814697266E-06  0.00000E+00  9.000E+00
#rwgt            2          11   2.9941375548963849E-003           9      213188           0
</event>
<event>
      5   9999  3.19816E-02  8.32454E+01 -1.00000E+00  1.27519E-01
      21    -1     0     0   502   501  0.000000000E+00  0.000000000E+00  7.447133511E+02  7.447133511E+02  0.000000000E+00  0.00000E+00  9.000E+00
      -1    -1     0     0     0   502  0.000000000E+00  0.000000000E+00 -1.991126720E+02  1.991126720E+02  0.000000000E+00  0.00000E+00  9.000E+00
      25     1     1     2     0     0  1.804181675E+02 -1.581843151E+02  1.228015184E+02  2.971164849E+02  1.250000000E+02  0.00000E+00  9.000E+00
      25     1     1     2     0     0 -2.021758318E+02  2.385360712E+02  4.473401624E+02  5.599220884E+02  1.250000000E+02  0.00000E+00  9.000E+00
      -1     1     1     2     0   501  2.175766432E+01 -8.035175611E+01 -2.454100174E+01  8.678744974E+01  1.118282261E-06  0.00000E+00  9.000E+00
#rwgt            1           1   2.8263815488772083E-002           9      213208           0
</event>
<event>
      5   9999  3.19816E-02  2.65771E+01 -1.00000E+00  1.56786E-01
       2    -1     0     0   502     0  0.000000000E+00  0.000000000E+00  2.147907668E+02  2.147907668E+02  0.000000000E+00  0.00000E+00  9.000E+00
      21    -1     0     0   501   502  0.000000000E+00  0.000000000E+00 -3.211955802E+03  3.211955802E+03  0.000000000E+00  0.00000E+00  9.000E+00
      25     1     1     2     0     0  3.158858481E+02  3.271861830E+01 -3.006415829E+03  3.025725618E+03  1.250000000E+02  0.00000E+00  9.000E+00
      25     1     1     2     0     0 -2.985521233E+02 -5.286513567E+01 -5.404097614E+01  3.323755707E+02  1.250000000E+02  0.00000E+00  9.000E+00
       2     1     1     2   501     0 -1.733372479E+01  2.014651737E+01  6.329176968E+01  6.864538067E+01  1.348699152E-06  0.00000E+00  9.000E+00
#rwgt            1           1   5.3675518800264381E-002           9      213279           0
</event>
<event>
      5   9999  3.19816E-02  2.42450E+01 -1.00000E+00  1.59755E-01
      21    -1     0     0   502   511  0.000000000E+00  0.000000000E+00  5.653883128E+02  5.653883128E+02  0.000000000E+00  0.00000E+00  9.000E+00
      21    -1     0     0   501   502  0.000000000E+00  0.000000000E+00 -7.984896586E+02  7.984896586E+02  0.000000000E+00  0.00000E+00  9.000E+00
      25     1     1     2     0     0  2.298301398E+02  5.963515174E+02 -2.275091911E+01  6.516130983E+02  1.250000000E+02  0.00000E+00  9.000E+00
      25     1     1     2     0     0 -2.081834452E+02 -6.072713004E+02 -2.131036069E+02  6.878640319E+02  1.250000000E+02  0.00000E+00  9.000E+00
      21     1     1     2   501   511 -2.164669464E+01  1.091978296E+01  2.753180318E+00  2.440084119E+01  4.380028980E-07  0.00000E+00  9.000E+00
#rwgt            1           1   2.9409503779803607E-002           9      213546           0
</event>
<event>
      5   9999  3.19816E-02  1.05346E+02 -1.00000E+00  1.22819E-01
      21    -1     0     0   502   501  0.000000000E+00  0.000000000E+00  2.124738331E+02  2.124738331E+02  0.000000000E+00  0.00000E+00  9.000E+00
      21    -1     0     0   512   502  0.000000000E+00  0.000000000E+00 -9.284358457E+02  9.284358457E+02  0.000000000E+00  0.00000E+00  9.000E+00
      25     1     1     2     0     0 -1.471910735E+02  4.918353716E+01 -6.273340132E+02  6.582227560E+02  1.250000000E+02  0.00000E+00  9.000E+00
      25     1     1     2     0     0  2.251378485E+02 -1.200495977E+02  6.967259900E+01  2.925375665E+02  1.250000000E+02  0.00000E+00  9.000E+00
      21     1     1     2   512   501 -7.794677505E+01  7.086606053E+01 -1.583005984E+02  1.901493564E+02  3.303624740E-06  0.00000E+00  9.000E+00
#rwgt            1           1   2.9121420725995075E-002           9      213766           0
</event>
<event>
      5   9999  3.19816E-02  1.53365E+02 -1.00000E+00  1.16013E-01
      21    -1     0     0   502   501  0.000000000E+00  0.000000000E+00  1.225482604E+02  1.225482604E+02  0.000000000E+00  0.00000E+00  9.000E+00
      21    -1     0     0   511   502  0.000000000E+00  0.000000000E+00 -2.432477828E+03  2.432477828E+03  0.000000000E+00  0.00000E+00  9.000E+00
      25     1     1     2     0     0 -1.789347179E+02 -9.713383815E-01 -2.161309040E+02  3.071744528E+02  1.250000000E+02  0.00000E+00  9.000E+00
      25     1     1     2     0     0  1.867797801E+02 -1.521931081E+02 -1.750451923E+02  3.229787110E+02  1.250000000E+02  0.00000E+00  9.000E+00
      21     1     1     2   511   501 -7.845062261E+00  1.531644464E+02 -1.918753472E+03  1.924872925E+03  2.157918644E-05  0.00000E+00  9.000E+00
#rwgt            1           1   2.9360321246548447E-002           9      213831           0
</event>
<event>
      5   9999  3.19816E-02  1.23285E+02 -1.00000E+00  1.19873E-01
      21    -1     0     0   512   501  0.000000000E+00  0.000000000E+00  3.252062496E+02  3.252062496E+02  0.000000000E+00  0.00000E+00  9.000E+00
      21    -1     0     0   501   502  0.000000000E+00  0.000000000E+00 -4.710960361E+02  4.710960361E+02  0.000000000E+00  0.00000E+00  9.000E+00
      25     1     1     2     0     0  1.495092707E+02 -1.943887716E+01  1.679274529E+02  2.579835681E+02  1.250000000E+02  0.00000E+00  9.000E+00
      25     1     1     2     0     0 -1.927855287E+02 -9.600109953E+01 -3.306084053E+02  4.138953839E+02  1.250000000E+02  0.00000E+00  9.000E+00
      21     1     1     2   512   502  4.327625803E+01  1.154399767E+02  1.679116593E+01  1.244233337E+02  2.665600750E-06  0.00000E+00  9.000E+00
#rwgt            2          11   3.7479020611782478E-003           9      213901           0
</event>
<event>
      5   9999  3.19816E-02  1.08496E+02 -1.00000E+00  1.22256E-01
      21    -1     0     0   502   501  0.000000000E+00  0.000000000E+00  5.460269696E+02  5.460269696E+02  0.000000000E+00  0.00000E+00  9.000E+00
      21    -1     0     0   511   502  0.000000000E+00  0.000000000E+00 -1.256065430E+03  1.256065430E+03  0.000000000E+00  0.00000E+00  9.000E+00
      25     1     1     2     0     0 -1.538766125E+01  3.539286516E+02 -3.823884500E+02  5.360486893E+02  1.250000000E+02  0.00000E+00  9.000E+00
      25     1     1     2     0     0  1.171167938E+02 -3.162127399E+02  3.956401137E+02  5.346615189E+02  1.250000000E+02  0.00000E+00  9.000E+00
      21     1     1     2   511   501 -1.017291325E+02 -3.771591172E+01 -7.232901242E+02  7.313821915E+02  7.629394531E-06  0.00000E+00  9.000E+00
#rwgt            1           1   2.6069610780705136E-002           9      213921           0
</event>
<event>
      5   9999  3.19816E-02  3.09885E+01 -1.00000E+00  1.52068E-01
      21    -1     0     0   502   501  0.000000000E+00  0.000000000E+00  6.590125709E+02  6.590125709E+02  0.000000000E+00  0.00000E+00  9.000E+00
      21    -1     0     0   501   512  0.000000000E+00  0.000000000E+00 -4.292939838E+02  4.292939838E+02  0.000000000E+00  0.00000E+00  9.000E+00
      25     1     1     2     0     0  3.158731169E+02  1.264179646E+02  4.354480870E+02  5.665662929E+02  1.250000000E+02  0.00000E+00  9.000E+00
      25     1     1     2     0     0 -3.365117776E+02 -1.033023655E+02 -6.689381471E+01  3.794882575E+02  1.250000000E+02  0.00000E+00  9.000E+00
      21     1     1     2   502   512  2.063866065E+01 -2.311559906E+01 -1.388356852E+02  1.422520043E+02  0.000000000E+00  0.00000E+00  9.000E+00
#rwgt            1           1   3.2048614988709055E-002           9      214052           0
</event>
<event>
      5   9999  3.19816E-02  6.63402E+01 -1.00000E+00  1.32413E-01
      21    -1     0     0   502   501  0.000000000E+00  0.000000000E+00  6.691393171E+02  6.691393171E+02  0.000000000E+00  0.00000E+00  9.000E+00
       2    -1     0     0   501     0  0.000000000E+00  0.000000000E+00 -1.858377936E+03  1.858377936E+03  0.000000000E+00  0.00000E+00  9.000E+00
      25     1     1     2     0     0  7.411422611E+01  1.792595890E+02  4.946183577E+02  5.458014644E+02  1.250000000E+02  0.00000E+00  9.000E+00
      25     1     1     2     0     0 -4.543282736E+01 -2.390792788E+02  2.209493769E+01  2.744744608E+02  1.250000000E+02  0.00000E+00  9.000E+00
       2     1     1     2   502     0 -2.868139875E+01  5.981968982E+01 -1.705951914E+03  1.707241328E+03  0.000000000E+00  0.00000E+00  9.000E+00
#rwgt            1           1   2.6177473109288647E-002           9      214188           0
</event>
<event>
      5   9999  3.19816E-02  4.99193E+01 -1.00000E+00  1.39116E-01
      21    -1     0     0   511   501  0.000000000E+00  0.000000000E+00  9.319431581E+02  9.319431581E+02  0.000000000E+00  0.00000E+00  9.000E+00
      21    -1     0     0   501   502  0.000000000E+00  0.000000000E+00 -6.230582046E+02  6.230582046E+02  0.000000000E+00  0.00000E+00  9.000E+00
      25     1     1     2     0     0 -2.818024548E+01 -1.802441734E+02 -1.444672627E+00  2.211541891E+02  1.250000000E+02  0.00000E+00  9.000E+00
      25     1     1     2     0     0  6.519965465E+01  1.467554347E+02 -4.907202603E+02  5.312433778E+02  1.250000000E+02  0.00000E+00  9.000E+00
      21     1     1     2   511   502 -3.701940916E+01  3.348873866E+01  8.010498864E+02  8.026037957E+02  1.525878906E-05  0.00000E+00  9.000E+00
#rwgt            1           1   3.0541584918772693E-002           9      214235           0
</event>
<event>
      5   9999  3.19816E-02  1.18142E+01 -1.00000E+00  1.87743E-01
      21    -1     0     0   502   512  0.000000000E+00  0.000000000E+00  9.668494702E+02  9.668494702E+02  0.000000000E+00  0.00000E+00  9.000E+00
      21    -1     0     0   501   502  0.000000000E+00  0.000000000E+00 -1.854301682E+02  1.854301682E+02  0.000000000E+00  0.00000E+00  9.000E+00
      25     1     1     2     0     0 -3.283688403E+02 -1.846742788E+02  3.179581251E+02  5.085794470E+02  1.250000000E+02  0.00000E+00  9.000E+00
      25     1     1     2     0     0  3.371065969E+02  1.767227423E+02  3.570617902E+02  5.366469112E+02  1.250000000E+02  0.00000E+00  9.000E+00
      21     1     1     2   501   512 -8.737756582E+00  7.951536576E+00  1.063993867E+02  1.070532802E+02  1.907348633E-06  0.00000E+00  9.000E+00
#rwgt            1           1   3.0895700419222006E-002           9      214311           0
</event>
<event>
      5   9999  3.19816E-02  4.99122E+01 -1.00000E+00  1.39119E-01
      21    -1     0     0   502   501  0.000000000E+00  0.000000000E+00  1.321588029E+03  1.321588029E+03  0.000000000E+00  0.00000E+00  9.000E+00
      21    -1     0     0   511   502  0.000000000E+00  0.000000000E+00 -4.711818828E+01  4.711818828E+01  0.000000000E+00  0.00000E+00  9.000E+00
      25     1     1     2     0     0  5.684921803E+00 -2.003887755E+01  1.074130076E+03  1.081579537E+03  1.250000000E+02  0.00000E+00  9.000E+00
      25     1     1     2     0     0  3.875626680E+01  4.275909907E+01  1.924007116E+02  2.365870296E+02  1.250000000E+02  0.00000E+00  9.000E+00
      21     1     1     2   511   501 -4.444118861E+01 -2.272022152E+01  7.939053133E+00  5.053965052E+01  1.852544578E-06  0.00000E+00  9.000E+00
#rwgt            1           1   3.6517510941082444E-002           9      214473           0
</event>
<event>
      5   9999  3.19816E-02  5.65210E+01 -1.00000E+00  1.36104E-01
      21    -1     0     0   512   501  0.000000000E+00  0.000000000E+00  5.735255548E+02  5.735255548E+02  0.000000000E+00  0.00000E+00  9.000E+00
      21    -1     0     0   501   502  0.000000000E+00  0.000000000E+00 -2.998194756E+02  2.998194756E+02  0.000000000E+00  0.00000E+00  9.000E+00
      25     1     1     2     0     0  2.346249756E+01 -4.458894653E+01  4.316653051E+02  4.522152127E+02  1.250000000E+02  0.00000E+00  9.000E+00
      25     1     1     2     0     0 -5.665724993E+01 -1.157452116E+00 -2.659311781E+02  2.992587094E+02  1.250000000E+02  0.00000E+00  9.000E+00
      21     1     1     2   512   502  3.319475238E+01  4.574639865E+01  1.079719522E+02  1.218711083E+02  0.000000000E+00  0.00000E+00  9.000E+00
#rwgt            1           1   2.8750517335107036E-002           9      214594           0
</event>
<event>
      5   9999  3.19816E-02  1.42275E+02 -1.00000E+00  1.17311E-01
      -2    -1     0     0     0   501  0.000000000E+00  0.000000000E+00  1.688445162E+02  1.688445162E+02  0.000000000E+00  0.00000E+00  9.000E+00
      21    -1     0     0   501   502  0.000000000E+00  0.000000000E+00 -2.168441708E+03  2.168441708E+03  0.000000000E+00  0.00000E+00  9.000E+00
      25     1     1     2     0     0 -1.386130396E+02  2.706799088E+02 -1.959312379E+03  1.986708632E+03  1.250000000E+02  0.00000E+00  9.000E+00
      25     1     1     2     0     0  6.253334221E+01 -1.504554766E+02 -1.348635215E+01  2.058012416E+02  1.250000000E+02  0.00000E+00  9.000E+00
      -2     1     1     2     0   502  7.607969734E+01 -1.202244322E+02 -2.679846099E+01  1.447763515E+02  3.162979880E-06  0.00000E+00  9.000E+00
#rwgt            2           4   5.4045089210004064E-005           9      214827           0
</event>
<event>
      5   9999  3.19816E-02  5.19993E+01 -1.00000E+00  1.38111E-01
      21    -1     0     0   511   501  0.000000000E+00  0.000000000E+00  6.746080289E+02  6.746080289E+02  0.000000000E+00  0.00000E+00  9.000E+00
      21    -1     0     0   501   502  0.000000000E+00  0.000000000E+00 -4.328475479E+02  4.328475479E+02  0.000000000E+00  0.00000E+00  9.000E+00
      25     1     1     2     0     0 -1.786141989E+02  2.310541507E+02 -3.076650321E+02  4.422350332E+02  1.250000000E+02  0.00000E+00  9.000E+00
      25     1     1     2     0     0  2.188442513E+02 -1.981076498E+02  4.435738099E+02  5.472861885E+02  1.250000000E+02  0.00000E+00  9.000E+00
      21     1     1     2   511   502 -4.023005246E+01 -3.294650094E+01  1.058517032E+02  1.179343551E+02  1.348699152E-06  0.00000E+00  9.000E+00
#rwgt            1           1   2.4229143300742596E-002           9      214846           0
</event>
<event>
      5   9999  3.19816E-02  1.92460E+01 -1.00000E+00  1.67758E-01
      21    -1     0     0   502   501  0.000000000E+00  0.000000000E+00  1.032257715E+03  1.032257715E+03  0.000000000E+00  0.00000E+00  9.000E+00
      21    -1     0     0   501   512  0.000000000E+00  0.000000000E+00 -4.528720776E+02  4.528720776E+02  0.000000000E+00  0.00000E+00  9.000E+00
      25     1     1     2     0     0 -4.481543060E+02  4.174176704E+02  3.542365869E+02  7.184624924E+02  1.250000000E+02  0.00000E+00  9.000E+00
      25     1     1     2     0     0  4.533939244E+02 -3.988986674E+02  3.025483992E+02  6.869110069E+02  1.250000000E+02  0.00000E+00  9.000E+00
      21     1     1     2   502   512 -5.239618437E+00 -1.851900298E+01 -7.739934892E+01  7.975629308E+01  0.000000000E+00  0.00000E+00  9.000E+00
#rwgt            1           1   3.1084030902963952E-002           9      215051           0
</event>
<event>
      5   9999  3.19816E-02  1.06466E+02 -1.00000E+00  1.22616E-01
      21    -1     0     0   502   501  0.000000000E+00  0.000000000E+00  1.393231245E+03  1.393231245E+03  0.000000000E+00  0.00000E+00  9.000E+00
      21    -1     0     0   501   511  0.000000000E+00  0.000000000E+00 -1.148866788E+02  1.148866788E+02  0.000000000E+00  0.00000E+00  9.000E+00
      25     1     1     2     0     0  2.715840398E+01 -1.638346707E+02  3.303395466E+02  3.902929596E+02  1.250000000E+02  0.00000E+00  9.000E+00
      25     1     1     2     0     0 -1.295080015E+02  1.931527326E+02  9.732349690E+02  1.008410435E+03  1.250000000E+02  0.00000E+00  9.000E+00
      21     1     1     2   502   511  1.023495975E+02 -2.931806194E+01 -2.522994936E+01  1.094145293E+02  2.477718555E-06  0.00000E+00  9.000E+00
#rwgt            1           1   3.0385852075225494E-002           9      215194           0
</event>
<event>
      5   9999  3.19816E-02  2.57496E+01 -1.00000E+00  1.57796E-01
      21    -1     0     0   512   501  0.000000000E+00  0.000000000E+00  3.442467636E+01  3.442467636E+01  0.000000000E+00  0.00000E+00  9.000E+00
      21    -1     0     0   501   502  0.000000000E+00  0.000000000E+00 -1.320310066E+03  1.320310066E+03  0.000000000E+00  0.00000E+00  9.000E+00
      25     1     1     2     0     0 -1.206174325E+02  8.755558553E+01 -7.010513346E+02  7.275386721E+02  1.250000000E+02  0.00000E+00  9.000E+00
      25     1     1     2     0     0  1.059639537E+02 -1.087290811E+02 -5.482824512E+02  5.824852092E+02  1.250000000E+02  0.00000E+00  9.000E+00
      21     1     1     2   512   502  1.465347885E+01  2.117349561E+01 -3.655160357E+01  4.471086090E+01  8.259061849E-07  0.00000E+00  9.000E+00
#rwgt            1           1   2.6543691960644725E-002           9      215247           0
</event>
<event>
      5   9999  3.19816E-02  7.19964E+01 -1.00000E+00  1.30605E-01
      21    -1     0     0   502   501  0.000000000E+00  0.000000000E+00  2.086205832E+02  2.086205832E+02  0.000000000E+00  0.00000E+00  9.000E+00
       2    -1     0     0   501     0  0.000000000E+00  0.000000000E+00 -3.420897706E+02  3.420897706E+02  0.000000000E+00  0.00000E+00  9.000E+00
      25     1     1     2     0     0  1.461146455E+02 -5.946468304E+01 -1.795151090E+02  2.696965192E+02  1.250000000E+02  0.00000E+00  9.000E+00
      25     1     1     2     0     0 -7.997493988E+01  8.790804820E+01 -3.135449991E+01  1.753052213E+02  1.250000000E+02  0.00000E+00  9.000E+00
       2     1     1     2   502     0 -6.613970558E+01 -2.844336516E+01  7.740042143E+01  1.057086132E+02  2.336015456E-06  0.00000E+00  9.000E+00
#rwgt            1           1   3.4626696031004135E-002           9      215361           0
</event>
<event>
      5   9999  3.19816E-02  2.34511E+02 -1.00000E+00  1.09188E-01
      21    -1     0     0   502   501  0.000000000E+00  0.000000000E+00  2.507537490E+02  2.507537490E+02  0.000000000E+00  0.00000E+00  9.000E+00
       1    -1     0     0   501     0  0.000000000E+00  0.000000000E+00 -3.067424874E+03  3.067424874E+03  0.000000000E+00  0.00000E+00  9.000E+00
      25     1     1     2     0     0  4.922524497E+02 -5.477353223E+01 -6.839860128E+01  5.153794551E+02  1.250000000E+02  0.00000E+00  9.000E+00
      25     1     1     2     0     0 -2.844781492E+02 -5.397089459E+01 -1.619592146E+03  1.650013453E+03  1.250000000E+02  0.00000E+00  9.000E+00
       1     1     1     2   502     0 -2.077743005E+02  1.087444268E+02 -1.128680377E+03  1.152785715E+03  1.525878906E-05  0.00000E+00  9.000E+00
#rwgt            2          12   5.1733080312168654E-004           9      215468           0
</event>
<event>
      5   9999  3.19816E-02  1.92293E+01 -1.00000E+00  1.67790E-01
      21    -1     0     0   502   501  0.000000000E+00  0.000000000E+00  5.899052352E+02  5.899052352E+02  0.000000000E+00  0.00000E+00  9.000E+00
      21    -1     0     0   511   502  0.000000000E+00  0.000000000E+00 -9.424510647E+01  9.424510647E+01  0.000000000E+00  0.00000E+00  9.000E+00
      25     1     1     2     0     0 -1.130091156E+02  1.202535953E+02  3.011471441E+02  3.654402684E+02  1.250000000E+02  0.00000E+00  9.000E+00
      25     1     1     2     0     0  1.263399310E+02 -1.341120281E+02  1.993812791E+02  2.988740683E+02  1.250000000E+02  0.00000E+00  9.000E+00
      21     1     1     2   511   501 -1.333081542E+01  1.385843277E+01 -4.868294529E+00  1.983600490E+01  4.986882368E-07  0.00000E+00  9.000E+00
#rwgt            1           1   2.6294894246201305E-002           9      215487           0
</event>
<event>
      5   9999  3.19816E-02  8.54345E+01 -1.00000E+00  1.26983E-01
      21    -1     0     0   502   501  0.000000000E+00  0.000000000E+00  6.147434637E+02  6.147434637E+02  0.000000000E+00  0.00000E+00  9.000E+00
       2    -1     0     0   501     0  0.000000000E+00  0.000000000E+00 -1.679285394E+03  1.679285394E+03  0.000000000E+00  0.00000E+00  9.000E+00
      25     1     1     2     0     0  3.214743385E+02  3.779855149E+02  4.255387378E+02  6.655276231E+02  1.250000000E+02  0.00000E+00  9.000E+00
      25     1     1     2     0     0 -3.508539438E+02 -2.977614931E+02 -7.865910385E+02  9.198428445E+02  1.250000000E+02  0.00000E+00  9.000E+00
       2     1     1     2   502     0  2.937960529E+01 -8.022402176E+01 -7.034896293E+02  7.086583898E+02  7.629394531E-06  0.00000E+00  9.000E+00
#rwgt            1           1   2.8893455941543703E-002           9      215640           0
</event>
<event>
      5   9999  3.19816E-02  4.13732E+01 -1.00000E+00  1.43937E-01
      21    -1     0     0   511   501  0.000000000E+00  0.000000000E+00  1.407851687E+03  1.407851687E+03  0.000000000E+00  0.00000E+00  9.000E+00
      21    -1     0     0   501   502  0.000000000E+00  0.000000000E+00 -1.032980390E+03  1.032980390E+03  0.000000000E+00  0.00000E+00  9.000E+00
      25     1     1     2     0     0 -5.873465480E+01  5.206067671E+02 -7.411999982E+02  9.162333779E+02  1.250000000E+02  0.00000E+00  9.000E+00
      25     1     1     2     0     0  6.776229318E+01 -4.802305291E+02  1.037980669E+02  5.114803302E+02  1.250000000E+02  0.00000E+00  9.000E+00
      21     1     1     2   511   502 -9.027638373E+00 -4.037623797E+01  1.012273229E+03  1.013118369E+03  0.000000000E+00  0.00000E+00  9.000E+00
#rwgt            1           1   1.8813376406239153E-002           9      215725           0
</event>
<event>
      5   9999  3.19816E-02  2.96918E+01 -1.00000E+00  1.53352E-01
      21    -1     0     0   502   512  0.000000000E+00  0.000000000E+00  5.632270557E+02  5.632270557E+02  0.000000000E+00  0.00000E+00  9.000E+00
      21    -1     0     0   501   502  0.000000000E+00  0.000000000E+00 -1.735107088E+02  1.735107088E+02  0.000000000E+00  0.00000E+00  9.000E+00
      25     1     1     2     0     0  3.646704675E+01 -1.567914191E+02 -7.240901061E+01  2.162902204E+02  1.250000000E+02  0.00000E+00  9.000E+00
      25     1     1     2     0     0 -7.972412046E+00  1.651375329E+02  3.759248896E+02  4.292767018E+02  1.250000000E+02  0.00000E+00  9.000E+00
      21     1     1     2   501   512 -2.849463470E+01 -8.346113771E+00  8.620046794E+01  9.117084235E+01  0.000000000E+00  0.00000E+00  9.000E+00
#rwgt            1           1   2.7966414292026752E-002           9      215913           0
</event>
<event>
      5   9999  3.19816E-02  1.89056E+01 -1.00000E+00  1.68411E-01
       2    -1     0     0   502     0  0.000000000E+00  0.000000000E+00  1.687304801E+03  1.687304801E+03  0.000000000E+00  0.00000E+00  9.000E+00
      21    -1     0     0   501   502  0.000000000E+00  0.000000000E+00 -4.033735321E+02  4.033735321E+02  0.000000000E+00  0.00000E+00  9.000E+00
      25     1     1     2     0     0 -1.808141313E+02  1.341838563E+02  1.401794708E+02  2.932138152E+02  1.250000000E+02  0.00000E+00  9.000E+00
      25     1     1     2     0     0  1.996590665E+02 -1.356972575E+02 -2.702570367E+02  3.833293028E+02  1.250000000E+02  0.00000E+00  9.000E+00
       2     1     1     2   501     0 -1.884493520E+01  1.513401171E+00  1.414008835E+03  1.414135215E+03  2.157918644E-05  0.00000E+00  9.000E+00
#rwgt            1           1   2.7850600274208388E-002           9      215999           0
</event>
<event>
      5   9999  3.19816E-02  2.75947E+01 -1.00000E+00  1.55604E-01
      21    -1     0     0   511   501  0.000000000E+00  0.000000000E+00  4.141440955E+02  4.141440955E+02  0.000000000E+00  0.00000E+00  9.000E+00
      21    -1     0     0   501   502  0.000000000E+00  0.000000000E+00 -3.392902951E+02  3.392902951E+02  0.000000000E+00  0.00000E+00  9.000E+00
      25     1     1     2     0     0  1.471226901E+02 -2.528836089E+02 -5.248125565E+01  3.224507525E+02  1.250000000E+02  0.00000E+00  9.000E+00
      25     1     1     2     0     0 -1.494126430E+02  2.803831275E+02  4.526914591E+01  3.444025720E+02  1.250000000E+02  0.00000E+00  9.000E+00
      21     1     1     2   511   502  2.289952914E+00 -2.749951854E+01  8.206591011E+01  8.658106610E+01  0.000000000E+00  0.00000E+00  9.000E+00
#rwgt            1           1   2.7542185067943797E-002           9      216227           0
</event>
<event>
      5   9999  3.19816E-02  5.32147E+01 -1.00000E+00  1.37549E-01
      21    -1     0     0   512   501  0.000000000E+00  0.000000000E+00  2.411390570E+02  2.411390570E+02  0.000000000E+00  0.00000E+00  9.000E+00
      21    -1     0     0   501   502  0.000000000E+00  0.000000000E+00 -5.006925952E+02  5.006925952E+02  0.000000000E+00  0.00000E+00  9.000E+00
      25     1     1     2     0     0 -1.727690293E+02 -2.790735834E+01 -5.431294995E+01  2.218171650E+02  1.250000000E+02  0.00000E+00  9.000E+00
      25     1     1     2     0     0  1.884944077E+02  7.874547835E+01 -3.163737922E+02  3.967976417E+02  1.250000000E+02  0.00000E+00  9.000E+00
      21     1     1     2   512   502 -1.572537837E+01 -5.083812001E+01  1.111332040E+02  1.232168454E+02  0.000000000E+00  0.00000E+00  9.000E+00
#rwgt            1           1   2.3973597023498289E-002           9      216345           0
</event>
<event>
      5   9999  3.19816E-02  1.14212E+02 -1.00000E+00  1.21287E-01
      21    -1     0     0   502   511  0.000000000E+00  0.000000000E+00  8.091785863E+01  8.091785863E+01  0.000000000E+00  0.00000E+00  9.000E+00
      21    -1     0     0   501   502  0.000000000E+00  0.000000000E+00 -1.638792272E+03  1.638792272E+03  0.000000000E+00  0.00000E+00  9.000E+00
      25     1     1     2     0     0 -1.862658302E+02 -2.180060877E+01 -1.188946253E+03  1.210119176E+03  1.250000000E+02  0.00000E+00  9.000E+00
      25     1     1     2     0     0  1.495322347E+02  1.299436315E+02 -2.785146721E+02  3.639239744E+02  1.250000000E+02  0.00000E+00  9.000E+00
      21     1     1     2   501   511  3.673359556E+01 -1.081430227E+02 -9.041348773E+01  1.456669803E+02  1.348699152E-06  0.00000E+00  9.000E+00
#rwgt            1           1   2.6922268820958065E-002           9      216442           0
</event>
<event>
      5   9999  3.19816E-02  9.48044E+01 -1.00000E+00  1.24879E-01
      21    -1     0     0   502   512  0.000000000E+00  0.000000000E+00  5.666870669E+02  5.666870669E+02  0.000000000E+00  0.00000E+00  9.000E+00
      21    -1     0     0   501   502  0.000000000E+00  0.000000000E+00 -5.597224664E+02  5.597224664E+02  0.000000000E+00  0.00000E+00  9.000E+00
      25     1     1     2     0     0 -4.687098996E+02  1.060700377E+02  9.038906316E+01  5.047127952E+02  1.250000000E+02  0.00000E+00  9.000E+00
      25     1     1     2     0     0  4.011669202E+02 -1.725969185E+02 -1.779046672E+02  4.878520931E+02  1.250000000E+02  0.00000E+00  9.000E+00
      21     1     1     2   501   512  6.754297941E+01  6.652688085E+01  9.448020452E+01  1.338446450E+02  1.348699152E-06  0.00000E+00  9.000E+00
#rwgt            2          11   3.6447875012724572E-003           9      216527           0
</event>
<event>
      5   9999  3.19816E-02  3.10621E+01 -1.00000E+00  1.51998E-01
      21    -1     0     0   502   501  0.000000000E+00  0.000000000E+00  5.668297452E+02  5.668297452E+02  0.000000000E+00  0.00000E+00  9.000E+00
      21    -1     0     0   501   511  0.000000000E+00  0.000000000E+00 -2.970188861E+02  2.970188861E+02  0.000000000E+00  0.00000E+00  9.000E+00
      25     1     1     2     0     0 -2.340150141E+02  2.280666633E+02  1.651831769E+02  3.868952206E+02  1.250000000E+02  0.00000E+00  9.000E+00
      25     1     1     2     0     0  2.637983401E+02 -2.192458239E+02  1.713976340E+02  4.033118452E+02  1.250000000E+02  0.00000E+00  9.000E+00
      21     1     1     2   502   511 -2.978332595E+01 -8.820839417E+00 -6.676995180E+01  7.364156554E+01  9.536743164E-07  0.00000E+00  9.000E+00
#rwgt            1           1   2.6183639963559709E-002           9      216577           0
</event>
<event>
      5   9999  3.19816E-02  4.69306E+02  7.55638E-03  9.96400E-02
       1    -1     0     0   501     0  0.000000000E+00  0.000000000E+00  7.298425593E+02  7.298425593E+02  0.000000000E+00  0.00000E+00  9.000E+00
      -1    -1     0     0     0   502  0.000000000E+00  0.000000000E+00 -9.949562979E+02  9.949562979E+02  0.000000000E+00  0.00000E+00  9.000E+00
      25     1     1     2     0     0 -7.272502719E+01 -5.872280995E+02 -2.546553228E+02  6.562012678E+02  1.250000000E+02  0.00000E+00  9.000E+00
      25     1     1     2     0     0 -3.357916691E+02  3.562257796E+02 -2.243832945E+02  5.528342554E+02  1.250000000E+02  0.00000E+00  9.000E+00
      21     1     1     2   501   502  4.085166963E+02  2.310023198E+02  2.139248789E+02  5.157633340E+02  9.725607898E-06  0.00000E+00  9.000E+00
#rwgt            3           6   5.0957942763051931E-006           9      216718           0
</event>
<event>
      5   9999  3.19816E-02  1.88535E+01 -1.00000E+00  1.68513E-01
       2    -1     0     0   502     0  0.000000000E+00  0.000000000E+00  4.463372992E+02  4.463372992E+02  0.000000000E+00  0.00000E+00  9.000E+00
      21    -1     0     0   501   502  0.000000000E+00  0.000000000E+00 -9.559085741E+02  9.559085741E+02  0.000000000E+00  0.00000E+00  9.000E+00
      25     1     1     2     0     0 -5.967814401E+01  1.534613750E+02 -1.681050296E+02  2.664510751E+02  1.250000000E+02  0.00000E+00  9.000E+00
      25     1     1     2     0     0  7.203109040E+01 -1.677042503E+02 -7.218279708E+02  7.549661005E+02  1.250000000E+02  0.00000E+00  9.000E+00
       2     1     1     2   501     0 -1.235294639E+01  1.424287539E+01  3.803617254E+02  3.808286976E+02  9.344061824E-06  0.00000E+00  9.000E+00
#rwgt            1           1   3.2520201941551086E-002           9      216767           0
</event>
<event>
      5   9999  3.19816E-02  3.76093E+01 -1.00000E+00  1.46520E-01
      21    -1     0     0   502   501  0.000000000E+00  0.000000000E+00  1.060417806E+03  1.060417806E+03  0.000000000E+00  0.00000E+00  9.000E+00
      21    -1     0     0   511   502  0.000000000E+00  0.000000000E+00 -9.495231655E+02  9.495231655E+02  0.000000000E+00  0.00000E+00  9.000E+00
      25     1     1     2     0     0  7.482706782E+02 -8.728081054E+01  1.249419837E+01  7.637460656E+02  1.250000000E+02  0.00000E+00  9.000E+00
      25     1     1     2     0     0 -7.811578929E+02  1.055261670E+02  4.340141892E+02  9.084804577E+02  1.250000000E+02  0.00000E+00  9.000E+00
      21     1     1     2   511   501  3.288721473E+01 -1.824535646E+01 -3.356137466E+02  3.377144486E+02  3.814697266E-06  0.00000E+00  9.000E+00
#rwgt            1           1   2.8741273304761644E-002           9      216925           0
</event>
<event>
      5   9999  3.19816E-02  4.94283E+01 -1.00000E+00  1.39361E-01
      21    -1     0     0   502   501  0.000000000E+00  0.000000000E+00  6.427648611E+02  6.427648611E+02  0.000000000E+00  0.00000E+00  9.000E+00
      21    -1     0     0   501   512  0.000000000E+00  0.000000000E+00 -3.673359266E+02  3.673359266E+02  0.000000000E+00  0.00000E+00  9.000E+00
      25     1     1     2     0     0  1.393943612E+02  1.430928837E+02  2.208363051E+02  3.229551593E+02  1.250000000E+02  0.00000E+00  9.000E+00
      25     1     1     2     0     0 -1.129979052E+02 -1.013031402E+02  3.425570687E+02  3.949698698E+02  1.250000000E+02  0.00000E+00  9.000E+00
      21     1     1     2   502   512 -2.639645592E+01 -4.178974355E+01 -2.879644392E+02  2.921757584E+02  7.629394531E-06  0.00000E+00  9.000E+00
#rwgt            1           1   2.7002128727925831E-002           9      217139           0
</event>
<event>
      5   9999  3.19816E-02  8.50818E+01 -1.00000E+00  1.27068E-01
      21    -1     0     0   502   501  0.000000000E+00  0.000000000E+00  9.617872530E+02  9.617872530E+02  0.000000000E+00  0.00000E+00  9.000E+00
      -2    -1     0     0     0   502  0.000000000E+00  0.000000000E+00 -4.190489623E+02  4.190489623E+02  0.000000000E+00  0.00000E+00  9.000E+00
      25     1     1     2     0     0  3.608744408E+02  7.219178381E+01  2.642797888E+02  4.700115131E+02  1.250000000E+02  0.00000E+00  9.000E+00
      25     1     1     2     0     0 -2.950922253E+02 -1.261511138E+02  5.373838303E+02  6.382788623E+02  1.250000000E+02  0.00000E+00  9.000E+00
      -2     1     1     2     0   501 -6.578221542E+01  5.395933001E+01 -2.589253284E+02  2.725458399E+02  5.394796609E-06  0.00000E+00  9.000E+00
#rwgt            1           1   2.8295550231408732E-002           9      217187           0
</event>
<event>
      5   9999  3.19816E-02  2.05319E+01 -1.00000E+00  1.65434E-01
      21    -1     0     0   502   511  0.000000000E+00  0.000000000E+00  5.028634447E+01  5.028634447E+01  0.000000000E+00  0.00000E+00  9.000E+00
      21    -1     0     0   501   502  0.000000000E+00  0.000000000E+00 -2.503564205E+03  2.503564205E+03  0.000000000E+00  0.00000E+00  9.000E+00
      25     1     1     2     0     0  2.293100329E+02 -1.516789181E+02 -1.679847504E+03  1.706781246E+03  1.250000000E+02  0.00000E+00  9.000E+00
      25     1     1     2     0     0 -2.369402694E+02  1.707404018E+02 -7.563713941E+02  8.203753177E+02  1.250000000E+02  0.00000E+00  9.000E+00
      21     1     1     2   501   511  7.630236476E+00 -1.906148377E+01 -1.705896248E+01  2.669398571E+01  4.129530925E-07  0.00000E+00  9.000E+00
#rwgt            1           1   6.2674483488848506E-002           9      217267           0
</event>
<event>
      5   9999  3.19816E-02  3.60987E+01 -1.00000E+00  1.47659E-01
      21    -1     0     0   512   501  0.000000000E+00  0.000000000E+00  3.405060595E+02  3.405060595E+02  0.000000000E+00  0.00000E+00  9.000E+00
      21    -1     0     0   501   502  0.000000000E+00  0.000000000E+00 -2.367906368E+02  2.367906368E+02  0.000000000E+00  0.00000E+00  9.000E+00
      25     1     1     2     0     0 -1.638406232E+02  1.553776167E+02  1.555571359E+02  3.013452772E+02  1.250000000E+02  0.00000E+00  9.000E+00
      25     1     1     2     0     0  1.297194627E+02 -1.435935821E+02 -6.177530482E+01  2.385108889E+02  1.250000000E+02  0.00000E+00  9.000E+00
      21     1     1     2   512   502  3.412116049E+01 -1.178403455E+01  9.933591621E+00  3.744053026E+01  6.419616708E-07  0.00000E+00  9.000E+00
#rwgt            1           1   2.7657239016965235E-002           9      217416           0
</event>
<event>
      5   9999  3.19816E-02  2.35444E+02 -1.00000E+00  1.09128E-01
      21    -1     0     0   502   501  0.000000000E+00  0.000000000E+00  3.377703279E+03  3.377703279E+03  0.000000000E+00  0.00000E+00  9.000E+00
      21    -1     0     0   511   502  0.000000000E+00  0.000000000E+00 -1.051552344E+03  1.051552344E+03  0.000000000E+00  0.00000E+00  9.000E+00
      25     1     1     2     0     0  1.483792339E+03  7.865328301E+02  1.268183990E+03  2.108124577E+03  1.250000000E+02  0.00000E+00  9.000E+00
      25     1     1     2     0     0 -1.687988186E+03 -6.693241939E+02  1.007351855E+03  2.080308091E+03  1.250000000E+02  0.00000E+00  9.000E+00
      21     1     1     2   511   501  2.041958471E+02 -1.172086362E+02  5.061509068E+01  2.408229552E+02  2.431401974E-06  0.00000E+00  9.000E+00
#rwgt            1           1   2.2118185540738484E-002           9      217492           0
</event>
<event>
      5   9999  3.19816E-02  5.20482E+01 -1.00000E+00  1.38088E-01
      21    -1     0     0   502   512  0.000000000E+00  0.000000000E+00  1.701271562E+03  1.701271562E+03  0.000000000E+00  0.00000E+00  9.000E+00
      21    -1     0     0   501   502  0.000000000E+00  0.000000000E+00 -1.644027662E+02  1.644027662E+02  0.000000000E+00  0.00000E+00  9.000E+00
      25     1     1     2     0     0  1.992358393E+02  3.210164320E+02  1.195903060E+03  1.260379149E+03  1.250000000E+02  0.00000E+00  9.000E+00
      25     1     1     2     0     0 -2.098163963E+02 -2.700550095E+02  1.278343761E+02  3.859005779E+02  1.250000000E+02  0.00000E+00  9.000E+00
      21     1     1     2   501   512  1.058055699E+01 -5.096142247E+01  2.131313595E+02  2.193946015E+02  0.000000000E+00  0.00000E+00  9.000E+00
#rwgt            1           1   3.1648950594498952E-002           9      217582           0
</event>
<event>
      5   9999  3.19816E-02  6.61141E+00 -1.00000E+00  2.19120E-01
      21    -1     0     0   502   501  0.000000000E+00  0.000000000E+00  5.620761287E+02  5.620761287E+02  0.000000000E+00  0.00000E+00  9.000E+00
       2    -1     0     0   501     0  0.000000000E+00  0.000000000E+00 -2.874148713E+03  2.874148713E+03  0.000000000E+00  0.00000E+00  9.000E+00
      25     1     1     2     0     0  2.635217032E+02 -5.681386393E+02  3.247704981E+02  7.164677787E+02  1.250000000E+02  0.00000E+00  9.000E+00
      25     1     1     2     0     0 -2.569638242E+02  5.689782710E+02 -2.406037005E+03  2.488856314E+03  1.250000000E+02  0.00000E+00  9.000E+00
       2     1     1     2   502     0 -6.557878988E+00 -8.396317023E-01 -2.308060778E+02  2.309007499E+02  0.000000000E+00  0.00000E+00  9.000E+00
#rwgt            1           1   4.6365211611674610E-002           9      217700           0
</event>
<event>
      5   9999  3.19816E-02  3.62564E+01 -1.00000E+00  1.47537E-01
      21    -1     0     0   502   501  0.000000000E+00  0.000000000E+00  2.201502748E+02  2.201502748E+02  0.000000000E+00  0.00000E+00  9.000E+00
      21    -1     0     0   501   511  0.000000000E+00  0.000000000E+00 -5.335728179E+02  5.335728179E+02  0.000000000E+00  0.00000E+00  9.000E+00
      25     1     1     2     0     0 -5.980289493E+01  2.837430166E+02 -1.520302510E+02  3.504635258E+02  1.250000000E+02  0.00000E+00  9.000E+00
      25     1     1     2     0     0  2.892501438E+01 -2.647409041E+02 -6.641361559E+01  3.015960396E+02  1.250000000E+02  0.00000E+00  9.000E+00
      21     1     1     2   502   511  3.087788055E+01 -1.900211245E+01 -9.497867650E+01  1.016635273E+02  0.000000000E+00  0.00000E+00  9.000E+00
#rwgt            1           1   2.7885355916881290E-002           9      218129           0
</event>
<event>
      5   9999  3.19816E-02  2.47897E+02 -1.00000E+00  1.08356E-01
       1    -1     0     0   502     0  0.000000000E+00  0.000000000E+00  9.994064321E+02  9.994064321E+02  0.000000000E+00  0.00000E+00  9.000E+00
      21    -1     0     0   501   502  0.000000000E+00  0.000000000E+00 -3.953018325E+02  3.953018325E+02  0.000000000E+00  0.00000E+00  9.000E+00
      25     1     1     2     0     0 -1.803891571E+02 -4.629498275E+02  4.134426973E+02  6.583484296E+02  1.250000000E+02  0.00000E+00  9.000E+00
      25     1     1     2     0     0 -6.389808646E+01  4.208016020E+02  2.036696187E+02  4.881221848E+02  1.250000000E+02  0.00000E+00  9.000E+00
       1     1     1     2   501     0  2.442872436E+02  4.214822552E+01 -1.300771646E+01  2.482376502E+02  2.996875069E-06  0.00000E+00  9.000E+00
#rwgt            1           1   2.8845017897927192E-002           9      218262           0
</event>
<event>
      5   9999  3.19816E-02  5.16293E+01 -1.00000E+00  1.38286E-01
      21    -1     0     0   502   501  0.000000000E+00  0.000000000E+00  7.933448154E+02  7.933448154E+02  0.000000000E+00  0.00000E+00  9.000E+00
      21    -1     0     0   511   502  0.000000000E+00  0.000000000E+00 -5.070440179E+02  5.070440179E+02  0.000000000E+00  0.00000E+00  9.000E+00
      25     1     1     2     0     0 -2.070005516E+02 -3.790633075E+02  3.885564937E+02  5.942553056E+02  1.250000000E+02  0.00000E+00  9.000E+00
      25     1     1     2     0     0  2.408742035E+02  4.180268786E+02  9.053829674E+01  5.065461838E+02  1.250000000E+02  0.00000E+00  9.000E+00
      21     1     1     2   511   501 -3.387365185E+01 -3.896357108E+01 -1.927939929E+02  1.995873439E+02  3.814697266E-06  0.00000E+00  9.000E+00
#rwgt            1           1   3.0004682559087760E-002           9      218289           0
</event>
<event>
      5   9999  3.19816E-02  2.51972E+02 -1.00000E+00  1.08114E-01
      21    -1     0     0   502   501  0.000000000E+00  0.000000000E+00  1.012632667E+03  1.012632667E+03  0.000000000E+00  0.00000E+00  9.000E+00
      21    -1     0     0   501   512  0.000000000E+00  0.000000000E+00 -6.223400063E+02  6.223400063E+02  0.000000000E+00  0.00000E+00  9.000E+00
      25     1     1     2     0     0  5.820293647E+01  1.413054335E+02 -1.055589885E+02  2.238805650E+02  1.250000000E+02  0.00000E+00  9.000E+00
      25     1     1     2     0     0 -1.987888243E+02  6.780048795E+01  9.012304596E+02  9.337854380E+02  1.250000000E+02  0.00000E+00  9.000E+00
      21     1     1     2   502   512  1.405858879E+02 -2.091059214E+02 -4.053788101E+02  4.773066707E+02  7.629394531E-06  0.00000E+00  9.000E+00
#rwgt            1           1   2.6748365094094898E-002           9      218439           0
</event>
<event>
      5   9999  3.19816E-02  2.24278E+02 -1.00000E+00  1.09866E-01
       2    -1     0     0   502     0  0.000000000E+00  0.000000000E+00  8.140870916E+02  8.140870916E+02  0.000000000E+00  0.00000E+00  9.000E+00
      21    -1     0     0   501   502  0.000000000E+00  0.000000000E+00 -3.607421885E+02  3.607421885E+02  0.000000000E+00  0.00000E+00  9.000E+00
      25     1     1     2     0     0  1.536436934E+02 -2.154753726E+02  3.167465809E+02  4.312649038E+02  1.250000000E+02  0.00000E+00  9.000E+00
      25     1     1     2     0     0 -3.628016397E+02  2.964292194E+02  7.842788413E+00  4.849554838E+02  1.250000000E+02  0.00000E+00  9.000E+00
       2     1     1     2   501     0  2.091579463E+02 -8.095384683E+01  1.287555338E+02  2.586088925E+02  1.907348633E-06  0.00000E+00  9.000E+00
#rwgt            1           1   2.8745879711604194E-002           9      218516           0
</event>
<event>
      5   9999  3.19816E-02  1.35551E+01 -1.00000E+00  1.81631E-01
      21    -1     0     0   511   501  0.000000000E+00  0.000000000E+00  7.902946930E+02  7.902946930E+02  0.000000000E+00  0.00000E+00  9.000E+00
      21    -1     0     0   501   502  0.000000000E+00  0.000000000E+00 -4.836225863E+01  4.836225863E+01  0.000000000E+00  0.00000E+00  9.000E+00
      25     1     1     2     0     0  1.358719088E+02 -4.727914057E+00  4.734570698E+02  5.082028392E+02  1.250000000E+02  0.00000E+00  9.000E+00
      25     1     1     2     0     0 -1.234246894E+02  1.009504876E+01  2.295068621E+02  2.891953729E+02  1.250000000E+02  0.00000E+00  9.000E+00
      21     1     1     2   511   502 -1.244721943E+01 -5.367134706E+00  3.896850246E+01  4.125873956E+01  4.768371582E-07  0.00000E+00  9.000E+00
#rwgt            1           1   2.9768522751628671E-002           9      218560           0
</event>
<event>
      5   9999  3.19816E-02  2.63832E+02 -1.00000E+00  1.07437E-01
      21    -1     0     0   512   501  0.000000000E+00  0.000000000E+00  2.574208276E+02  2.574208276E+02  0.000000000E+00  0.00000E+00  9.000E+00
      21    -1     0     0   501   502  0.000000000E+00  0.000000000E+00 -2.592941983E+03  2.592941983E+03  0.000000000E+00  0.00000E+00  9.000E+00
      25     1     1     2     0     0 -3.345922817E+01 -4.532451152E+02 -1.721095833E+02  5.017941441E+02  1.250000000E+02  0.00000E+00  9.000E+00
      25     1     1     2     0     0 -1.270814635E+02  2.438791405E+02 -2.031058352E+03  2.053399562E+03  1.250000000E+02  0.00000E+00  9.000E+00
      21     1     1     2   512   502  1.605406916E+02  2.093659747E+02 -1.323532198E+02  2.951691038E+02  7.387129490E-06  0.00000E+00  9.000E+00
#rwgt            1           1   3.8992928419333044E-002           9      218706           0
</event>
<event>
      5   9999  3.19816E-02  4.18347E+01 -1.00000E+00  1.43642E-01
      21    -1     0     0   502   501  0.000000000E+00  0.000000000E+00  9.929647794E+01  9.929647794E+01  0.000000000E+00  0.00000E+00  9.000E+00
       2    -1     0     0   501     0  0.000000000E+00  0.000000000E+00 -3.371968155E+03  3.371968155E+03  0.000000000E+00  0.00000E+00  9.000E+00
      25     1     1     2     0     0  3.312004382E+02  4.355731747E+01 -4.592301691E+02  5.814708233E+02  1.250000000E+02  0.00000E+00  9.000E+00
      25     1     1     2     0     0 -2.894040217E+02 -4.176709354E+01 -6.277353080E+02  7.036872848E+02  1.250000000E+02  0.00000E+00  9.000E+00
       2     1     1     2   502     0 -4.179641647E+01 -1.790223927E+00 -2.185706200E+03  2.186106525E+03  3.051757812E-05  0.00000E+00  9.000E+00
#rwgt            1           1   2.2733797141997355E-002           9      218760           0
</event>
<event>
      5   9999  3.19816E-02  6.31394E+01 -1.00000E+00  1.33530E-01
      21    -1     0     0   502   501  0.000000000E+00  0.000000000E+00  5.049619520E+02  5.049619520E+02  0.000000000E+00  0.00000E+00  9.000E+00
      21    -1     0     0   501   511  0.000000000E+00  0.000000000E+00 -4.494756754E+02  4.494756754E+02  0.000000000E+00  0.00000E+00  9.000E+00
      25     1     1     2     0     0  3.205898861E+02  2.515056676E+01  3.198030543E+02  4.704353511E+02  1.250000000E+02  0.00000E+00  9.000E+00
      25     1     1     2     0     0 -2.851026275E+02 -7.737357772E+01 -1.515695917E+02  3.547795370E+02  1.250000000E+02  0.00000E+00  9.000E+00
      21     1     1     2   502   511 -3.548725856E+01  5.222301095E+01 -1.127471860E+02  1.292227393E+02  1.348699152E-06  0.00000E+00  9.000E+00
#rwgt            1           1   2.4411583152055830E-002           9      218857           0
</event>
<event>
      5   9999  3.19816E-02  6.92014E+02 -1.00000E+00  9.50011E-02
      21    -1     0     0   502   501  0.000000000E+00  0.000000000E+00  1.395983723E+03  1.395983723E+03  0.000000000E+00  0.00000E+00  9.000E+00
      21    -1     0     0   501   512  0.000000000E+00  0.000000000E+00 -9.564951101E+02  9.564951101E+02  0.000000000E+00  0.00000E+00  9.000E+00
      25     1     1     2     0     0 -1.752035992E+02  1.702730683E+02  6.400581477E+02  6.964112659E+02  1.250000000E+02  0.00000E+00  9.000E+00
      25     1     1     2     0     0 -2.942992073E+02 -6.786534436E+02  2.937181203E+02  8.056536812E+02  1.250000000E+02  0.00000E+00  9.000E+00
      21     1     1     2   502   512  4.695028065E+02  5.083803753E+02 -4.942876551E+02  8.504138859E+02  7.629394531E-06  0.00000E+00  9.000E+00
#rwgt            1           1   3.2332451690821599E-002           9      218974           0
</event>
<event>
      5   9999  3.19816E-02  6.04048E+01 -1.00000E+00  1.34548E-01
      21    -1     0     0   511   501  0.000000000E+00  0.000000000E+00  6.794470115E+02  6.794470115E+02  0.000000000E+00  0.00000E+00  9.000E+00
      21    -1     0     0   501   502  0.000000000E+00  0.000000000E+00 -4.089912095E+02  4.089912095E+02  0.000000000E+00  0.00000E+00  9.000E+00
      25     1     1     2     0     0 -2.882993777E+02 -7.855416062E+01 -2.553658042E+02  4.124608846E+02  1.250000000E+02  0.00000E+00  9.000E+00
      25     1     1     2     0     0  2.776547364E+02  1.380136866E+02  3.249350104E+02  4.662056320E+02  1.250000000E+02  0.00000E+00  9.000E+00
      21     1     1     2   511   502  1.064464138E+01 -5.945952594E+01  2.008865958E+02  2.097717045E+02  0.000000000E+00  0.00000E+00  9.000E+00
#rwgt            1           1   2.8039253532764676E-002           9      219006           0
</event>
<event>
      5   9999  3.19816E-02  8.22784E+01 -1.00000E+00  1.27762E-01
      21    -1     0     0   502   501  0.000000000E+00  0.000000000E+00  4.680978141E+02  4.680978141E+02  0.000000000E+00  0.00000E+00  9.000E+00
      -1    -1     0     0     0   502  0.000000000E+00  0.000000000E+00 -3.390966719E+02  3.390966719E+02  0.000000000E+00  0.00000E+00  9.000E+00
      25     1     1     2     0     0 -2.267674238E+02  7.181055290E+01  3.042720342E+02  4.059392698E+02  1.250000000E+02  0.00000E+00  9.000E+00
      25     1     1     2     0     0  1.983550594E+02 -1.490276054E+02 -1.466427760E+02  3.141386009E+02  1.250000000E+02  0.00000E+00  9.000E+00
      -1     1     1     2     0   501  2.841236433E+01  7.721705254E+01 -2.862811593E+01  8.711661536E+01  1.907348633E-06  0.00000E+00  9.000E+00
#rwgt            1           1   2.8035351760896315E-002           9      219104           0
</event>
<event>
      5   9999  3.19816E-02  2.37294E+02 -1.00000E+00  1.09010E-01
      21    -1     0     0   502   501  0.000000000E+00  0.000000000E+00  5.710064218E+02  5.710064218E+02  0.000000000E+00  0.00000E+00  9.000E+00
      21    -1     0     0   511   502  0.000000000E+00  0.000000000E+00 -3.524050039E+02  3.524050039E+02  0.000000000E+00  0.00000E+00  9.000E+00
      25     1     1     2     0     0  1.699661621E+02  3.141375460E+02  2.479040128E+02  4.523851165E+02  1.250000000E+02  0.00000E+00  9.000E+00
      25     1     1     2     0     0 -1.794426459E+02 -7.703251759E+01 -2.952823737E+01  2.337318736E+02  1.250000000E+02  0.00000E+00  9.000E+00
      21     1     1     2   511   501  9.476483852E+00 -2.371050284E+02  2.256424705E-01  2.372944356E+02  4.535695073E-06  0.00000E+00  9.000E+00
#rwgt            2          11   3.7318361242924913E-003           9      219524           0
</event>
<event>
      5   9999  3.19816E-02  2.12341E+02 -1.00000E+00  1.10710E-01
      21    -1     0     0   502   501  0.000000000E+00  0.000000000E+00  6.015009197E+02  6.015009197E+02  0.000000000E+00  0.00000E+00  9.000E+00
       2    -1     0     0   501     0  0.000000000E+00  0.000000000E+00 -1.610974262E+03  1.610974262E+03  0.000000000E+00  0.00000E+00  9.000E+00
      25     1     1     2     0     0  2.413905575E+02  2.227330362E+02  2.773330014E+02  4.476806901E+02  1.250000000E+02  0.00000E+00  9.000E+00
      25     1     1     2     0     0 -3.472369502E+02 -4.068128884E+02 -9.895160291E+01  5.581098866E+02  1.250000000E+02  0.00000E+00  9.000E+00
       2     1     1     2   502     0  1.058463927E+02  1.840798522E+02 -1.187854740E+03  1.206684605E+03  1.525878906E-05  0.00000E+00  9.000E+00
#rwgt            1           1   2.9662425837786225E-002           9      219544           0
</event>
<event>
      5   9999  3.19816E-02  2.24256E+02 -1.00000E+00  1.09868E-01
      21    -1     0     0   502   501  0.000000000E+00  0.000000000E+00  7.386864167E+02  7.386864167E+02  0.000000000E+00  0.00000E+00  9.000E+00
      21    -1     0     0   501   511  0.000000000E+00  0.000000000E+00 -1.044765583E+03  1.044765583E+03  0.000000000E+00  0.00000E+00  9.000E+00
      25     1     1     2     0     0  5.068910162E+02 -3.472414622E+01 -7.866619227E+02  9.447784128E+02  1.250000000E+02  0.00000E+00  9.000E+00
      25     1     1     2     0     0 -2.827132756E+02  4.065458293E+01  5.244902317E+02  6.101594828E+02  1.250000000E+02  0.00000E+00  9.000E+00
      21     1     1     2   502   511 -2.241777406E+02 -5.930436714E+00 -4.390747549E+01  2.285141043E+02  4.744469820E-06  0.00000E+00  9.000E+00
#rwgt            1           1   2.8093404102501027E-002           9      219599           0
</event>
<event>
      5   9999  3.19816E-02  1.13749E+02 -1.00000E+00  1.21363E-01
      21    -1     0     0   502   512  0.000000000E+00  0.000000000E+00  3.506168428E+02  3.506168428E+02  0.000000000E+00  0.00000E+00  9.000E+00
      21    -1     0     0   501   502  0.000000000E+00  0.000000000E+00 -8.477781848E+02  8.477781848E+02  0.000000000E+00  0.00000E+00  9.000E+00
      25     1     1     2     0     0  5.776866978E+01  8.209023187E+01 -7.607006332E+02  7.774101098E+02  1.250000000E+02  0.00000E+00  9.000E+00
      25     1     1     2     0     0 -1.547929636E+02 -2.271770567E+01  1.057282648E+02  2.264518088E+02  1.250000000E+02  0.00000E+00  9.000E+00
      21     1     1     2   501   512  9.702429380E+01 -5.937252620E+01  1.578110264E+02  1.945331090E+02  4.264961200E-06  0.00000E+00  9.000E+00
#rwgt            1           1   2.7424573880459189E-002           9      219696           0
</event>
<event>
      5   9999  3.19816E-02  1.30374E+02 -1.00000E+00  1.18859E-01
      21    -1     0     0   502   501  0.000000000E+00  0.000000000E+00  8.116662176E+02  8.116662176E+02  0.000000000E+00  0.00000E+00  9.000E+00
       2    -1     0     0   501     0  0.000000000E+00  0.000000000E+00 -4.735763160E+02  4.735763160E+02  0.000000000E+00  0.00000E+00  9.000E+00
      25     1     1     2     0     0 -3.604699594E+02 -1.894061386E+02  5.050695522E+02  6.607068409E+02  1.250000000E+02  0.00000E+00  9.000E+00
      25     1     1     2     0     0  2.371284712E+02  2.316474690E+02  6.331813370E+01  3.598953290E+02  1.250000000E+02  0.00000E+00  9.000E+00
       2     1     1     2   502     0  1.233414881E+02 -4.224133043E+01 -2.302977843E+02  2.646403638E+02  3.814697266E-06  0.00000E+00  9.000E+00
#rwgt            1           1   2.7970347614536203E-002           9      219773           0
</event>
<event>
      5   9999  3.19816E-02  1.50937E+02 -1.00000E+00  1.16287E-01
      21    -1     0     0   502   501  0.000000000E+00  0.000000000E+00  1.393037849E+03  1.393037849E+03  0.000000000E+00  0.00000E+00  9.000E+00
      21    -1     0     0   501   511  0.000000000E+00  0.000000000E+00 -5.459520882E+02  5.459520882E+02  0.000000000E+00  0.00000E+00  9.000E+00
      25     1     1     2     0     0 -8.417079794E+01  3.066222640E+02  1.143580952E+03  1.193526007E+03  1.250000000E+02  0.00000E+00  9.000E+00
      25     1     1     2     0     0  1.803402121E+02 -4.229555208E+02 -8.247149985E+01  4.835705873E+02  1.250000000E+02  0.00000E+00  9.000E+00
      21     1     1     2   502   511 -9.616941417E+01  1.163332568E+02 -2.140236910E+02  2.618933431E+02  7.136645101E-06  0.00000E+00  9.000E+00
#rwgt            1           1   2.4687062399356946E-002           9      219853           0
</event>
<event>
      5   9999  3.19816E-02  1.03836E+02 -1.00000E+00  1.23097E-01
      21    -1     0     0   502   501  0.000000000E+00  0.000000000E+00  5.640610120E+02  5.640610120E+02  0.000000000E+00  0.00000E+00  9.000E+00
      21    -1     0     0   512   502  0.000000000E+00  0.000000000E+00 -1.147712845E+03  1.147712845E+03  0.000000000E+00  0.00000E+00  9.000E+00
      25     1     1     2     0     0  3.296110024E+01  5.442017754E+02 -7.468167625E+02  9.330607071E+02  1.250000000E+02  0.00000E+00  9.000E+00
      25     1     1     2     0     0 -2.491602571E+01 -4.406779788E+02  3.418112876E+02  5.720820270E+02  1.250000000E+02  0.00000E+00  9.000E+00
      21     1     1     2   512   501 -8.045074533E+00 -1.035237966E+02 -1.786463580E+02  2.066311228E+02  2.697398305E-06  0.00000E+00  9.000E+00
#rwgt            1           1   3.2142372506021893E-002           9      219940           0
</event>
<event>
      5   9999  3.19816E-02  3.50209E+01 -1.00000E+00  1.48514E-01
      21    -1     0     0   502   511  0.000000000E+00  0.000000000E+00  5.906946335E+02  5.906946335E+02  0.000000000E+00  0.00000E+00  9.000E+00
      21    -1     0     0   501   502  0.000000000E+00  0.000000000E+00 -1.875128161E+03  1.875128161E+03  0.000000000E+00  0.00000E+00  9.000E+00
      25     1     1     2     0     0 -3.281684051E+02 -7.453357594E+02 -1.337632065E+03  1.571020190E+03  1.250000000E+02  0.00000E+00  9.000E+00
      25     1     1     2     0     0  3.357595774E+02  7.795239860E+02  4.670475114E+01  8.591847720E+02  1.250000000E+02  0.00000E+00  9.000E+00
      21     1     1     2   501   511 -7.591172311E+00 -3.418822660E+01  6.493786249E+00  3.561783254E+01  7.202056631E-07  0.00000E+00  9.000E+00
#rwgt            2          11   1.7374467437487249E-002           9      220082           0
</event>
<event>
      5   9999  3.19816E-02  3.76731E+01 -1.00000E+00  1.46473E-01
      21    -1     0     0   502   501  0.000000000E+00  0.000000000E+00  3.484786705E+02  3.484786705E+02  0.000000000E+00  0.00000E+00  9.000E+00
      21    -1     0     0   512   502  0.000000000E+00  0.000000000E+00 -1.332157633E+02  1.332157633E+02  0.000000000E+00  0.00000E+00  9.000E+00
      25     1     1     2     0     0 -1.185066606E+02 -5.993058542E+01  1.267065053E+02  2.220699038E+02  1.250000000E+02  0.00000E+00  9.000E+00
      25     1     1     2     0     0  1.192254198E+02  9.759687101E+01  9.725506798E+01  2.209601733E+02  1.250000000E+02  0.00000E+00  9.000E+00
      21     1     1     2   512   501 -7.187591586E-01 -3.766628559E+01 -8.698666128E+00  3.866435667E+01  8.678567278E-07  0.00000E+00  9.000E+00
#rwgt            1           1   3.1599738014607234E-002           9      220102           0
</event>
<event>
      5   9999  3.19816E-02  1.26513E+01 -1.00000E+00  1.84647E-01
      21    -1     0     0   502   501  0.000000000E+00  0.000000000E+00  3.312813969E+02  3.312813969E+02  0.000000000E+00  0.00000E+00  9.000E+00
      21    -1     0     0   501   511  0.000000000E+00  0.000000000E+00 -2.954825846E+02  2.954825846E+02  0.000000000E+00  0.00000E+00  9.000E+00
      25     1     1     2     0     0 -1.484382611E+02  6.636149260E+01  7.776181438E+01  2.193391548E+02  1.250000000E+02  0.00000E+00  9.000E+00
      25     1     1     2     0     0  1.523866763E+02 -7.838082704E+01  1.208501435E+02  2.441208929E+02  1.250000000E+02  0.00000E+00  9.000E+00
      21     1     1     2   502   511 -3.948415144E+00  1.201933444E+01 -1.628131457E+02  1.633039338E+02  1.907348633E-06  0.00000E+00  9.000E+00
#rwgt            1           1   2.4294136963136603E-002           9      220218           0
</event>
<event>
      5   9999  3.19816E-02  1.20856E+01 -1.00000E+00  1.86704E-01
      21    -1     0     0   502   501  0.000000000E+00  0.000000000E+00  2.075184097E+03  2.075184097E+03  0.000000000E+00  0.00000E+00  9.000E+00
      21    -1     0     0   501   512  0.000000000E+00  0.000000000E+00 -1.545135110E+01  1.545135110E+01  0.000000000E+00  0.00000E+00  9.000E+00
      25     1     1     2     0     0  1.116660806E+02 -3.380573476E+00  1.035350192E+03  1.048835431E+03  1.250000000E+02  0.00000E+00  9.000E+00
      25     1     1     2     0     0 -1.216389636E+02  1.020720651E+01  9.913050631E+02  1.006583803E+03  1.250000000E+02  0.00000E+00  9.000E+00
      21     1     1     2   502   512  9.972882970E+00 -6.826633036E+00  3.307749121E+01  3.521621414E+01  6.743495762E-07  0.00000E+00  9.000E+00
#rwgt            1           1   6.2233207139626948E-002           9      220441           0
</event>
<event>
      5   9999  3.19816E-02  4.76758E+01 -1.00000E+00  1.40265E-01
      21    -1     0     0   511   501  0.000000000E+00  0.000000000E+00  1.433805880E+03  1.433805880E+03  0.000000000E+00  0.00000E+00  9.000E+00
      21    -1     0     0   501   502  0.000000000E+00  0.000000000E+00 -4.744846827E+01  4.744846827E+01  0.000000000E+00  0.00000E+00  9.000E+00
      25     1     1     2     0     0  1.346519190E+02 -6.500706015E+01  6.847604995E+02  7.119543517E+02  1.250000000E+02  0.00000E+00  9.000E+00
      25     1     1     2     0     0 -1.812929306E+02  7.488620801E+01  3.901211863E+02  4.541966654E+02  1.250000000E+02  0.00000E+00  9.000E+00
      21     1     1     2   511   502  4.664101158E+01 -9.879147860E+00  3.114757262E+02  3.151033316E+02  3.814697266E-06  0.00000E+00  9.000E+00
#rwgt            1           1   3.0280853515513829E-002           9      220628           0
</event>
<event>
      5   9999  3.19816E-02  1.73576E+02 -1.00000E+00  1.13935E-01
       2    -1     0     0   502     0  0.000000000E+00  0.000000000E+00  2.733688791E+02  2.733688791E+02  0.000000000E+00  0.00000E+00  9.000E+00
      21    -1     0     0   501   502  0.000000000E+00  0.000000000E+00 -8.515698902E+02  8.515698902E+02  0.000000000E+00  0.00000E+00  9.000E+00
      25     1     1     2     0     0  9.936723642E+01 -5.082249261E+01  1.213627515E+02  2.069074452E+02  1.250000000E+02  0.00000E+00  9.000E+00
      25     1     1     2     0     0  7.286423695E+01  7.238834362E+01 -7.247939680E+02  7.426308406E+02  1.250000000E+02  0.00000E+00  9.000E+00
       2     1     1     2   501     0 -1.722314734E+02 -2.156585101E+01  2.523020547E+01  1.754004835E+02  2.821006671E-06  0.00000E+00  9.000E+00
#rwgt            2          18   1.6036014036401101E-004           9      220819           0
</event>
<event>
      5   9999  3.19816E-02  2.60827E+01 -1.00000E+00  1.57384E-01
      21    -1     0     0   511   501  0.000000000E+00  0.000000000E+00  3.581377734E+03  3.581377734E+03  0.000000000E+00  0.00000E+00  9.000E+00
      21    -1     0     0   501   502  0.000000000E+00  0.000000000E+00 -5.440340009E+01  5.440340009E+01  0.000000000E+00  0.00000E+00  9.000E+00
      25     1     1     2     0     0  2.278268236E+02 -2.158230693E+02  6.436932262E+02  7.269460972E+02  1.250000000E+02  0.00000E+00  9.000E+00
      25     1     1     2     0     0 -2.270246048E+02  2.418934410E+02  2.769805054E+03  2.792399979E+03  1.250000000E+02  0.00000E+00  9.000E+00
      21     1     1     2   511   502 -8.022188186E-01 -2.607037174E+01  1.134760543E+02  1.164350580E+02  1.348699152E-06  0.00000E+00  9.000E+00
#rwgt            1           1   2.6687566384440860E-002           9      220838           0
</event>
<event>
      5   9999  3.19816E-02  6.32573E+02 -1.00000E+00  9.60344E-02
      21    -1     0     0   502   501  0.000000000E+00  0.000000000E+00  3.358061865E+02  3.358061865E+02  0.000000000E+00  0.00000E+00  9.000E+00
       2    -1     0     0   501     0  0.000000000E+00  0.000000000E+00 -2.685850358E+03  2.685850358E+03  0.000000000E+00  0.00000E+00  9.000E+00
      25     1     1     2     0     0  1.321989990E+02 -3.005092168E+02  6.423385562E+01  3.571181218E+02  1.250000000E+02  0.00000E+00  9.000E+00
      25     1     1     2     0     0  3.397961690E+02 -1.206425910E+02 -3.981867283E+02  5.515376160E+02  1.250000000E+02  0.00000E+00  9.000E+00
       2     1     1     2   502     0 -4.719951681E+02  4.211518077E+02 -2.016091299E+03  2.113000806E+03  3.737624730E-05  0.00000E+00  9.000E+00
#rwgt            2          13   2.3538448058948651E-003           9      220998           0
</event>
<event>
      5   9999  3.19816E-02  4.13094E+01 -1.00000E+00  1.43978E-01
      21    -1     0     0   502   501  0.000000000E+00  0.000000000E+00  6.327791667E+02  6.327791667E+02  0.000000000E+00  0.00000E+00  9.000E+00
      21    -1     0     0   511   502  0.000000000E+00  0.000000000E+00 -1.777641165E+02  1.777641165E+02  0.000000000E+00  0.00000E+00  9.000E+00
      25     1     1     2     0     0 -9.626626982E+01  2.629036095E+02  1.219051943E+02  3.299566320E+02  1.250000000E+02  0.00000E+00  9.000E+00
      25     1     1     2     0     0  1.325402491E+02 -2.431384252E+02  3.057710741E+02  4.310500681E+02  1.250000000E+02  0.00000E+00  9.000E+00
      21     1     1     2   511   501 -3.627397928E+01 -1.976518425E+01  2.733878178E+01  4.953658315E+01  0.000000000E+00  0.00000E+00  9.000E+00
#rwgt            1           1   2.5278447806751838E-002           9      221017           0
</event>
<event>
      5   9999  3.19816E-02  1.73647E+02 -1.00000E+00  1.13928E-01
      21    -1     0     0   502   501  0.000000000E+00  0.000000000E+00  1.035770325E+02  1.035770325E+02  0.000000000E+00  0.00000E+00  9.000E+00
       1    -1     0     0   501     0  0.000000000E+00  0.000000000E+00 -1.795416980E+03  1.795416980E+03  0.000000000E+00  0.00000E+00  9.000E+00
      25     1     1     2     0     0 -1.864667788E+02 -2.159836125E+02 -2.049704577E+02  3.729030290E+02  1.250000000E+02  0.00000E+00  9.000E+00
      25     1     1     2     0     0  6.940214682E+01  8.772971040E+01 -6.412942857E+02  6.628699125E+02  1.250000000E+02  0.00000E+00  9.000E+00
       1     1     1     2   502     0  1.170646320E+02  1.282539021E+02 -8.455752039E+02  8.632210707E+02  1.525878906E-05  0.00000E+00  9.000E+00
#rwgt            2          12   4.8763736864838826E-004           9      221114           0
</event>
<event>
      5   9999  3.19816E-02  1.30217E+02 -1.00000E+00  1.18881E-01
      21    -1     0     0   502   501  0.000000000E+00  0.000000000E+00  7.979862706E+02  7.979862706E+02  0.000000000E+00  0.00000E+00  9.000E+00
      21    -1     0     0   501   511  0.000000000E+00  0.000000000E+00 -1.588328664E+03  1.588328664E+03  0.000000000E+00  0.00000E+00  9.000E+00
      25     1     1     2     0     0 -1.463015584E+02  2.531207464E+01  1.982882008E+02  2.774672191E+02  1.250000000E+02  0.00000E+00  9.000E+00
      25     1     1     2     0     0  2.112661880E+01  1.057227460E+01  5.500996926E+02  5.646173739E+02  1.250000000E+02  0.00000E+00  9.000E+00
      21     1     1     2   502   511  1.251749396E+02 -3.588434924E+01 -1.538730287E+03  1.544230342E+03  2.157918644E-05  0.00000E+00  9.000E+00
#rwgt            1           1   2.4140534582611263E-002           9      221133           0
</event>
<event>
      5   9999  3.19816E-02  5.08502E+01 -1.00000E+00  1.38659E-01
      21    -1     0     0   502   501  0.000000000E+00  0.000000000E+00  3.387799604E+02  3.387799604E+02  0.000000000E+00  0.00000E+00  9.000E+00
      21    -1     0     0   512   502  0.000000000E+00  0.000000000E+00 -7.722468531E+02  7.722468531E+02  0.000000000E+00  0.00000E+00  9.000E+00
      25     1     1     2     0     0 -1.624986167E+02  3.600259086E+02  6.937572914E+01  4.200743352E+02  1.250000000E+02  0.00000E+00  9.000E+00
      25     1     1     2     0     0  1.177554966E+02 -3.841877115E+02 -4.259729870E+02  5.987858885E+02  1.250000000E+02  0.00000E+00  9.000E+00
      21     1     1     2   512   501  4.474312011E+01  2.416180292E+01 -7.686963481E+01  9.216658979E+01  1.348699152E-06  0.00000E+00  9.000E+00
#rwgt            1           1   3.0827585926542129E-002           9      221188           0
</event>
<event>
      5   9999  3.19816E-02  4.96358E+01 -1.00000E+00  1.39257E-01
      21    -1     0     0   502   501  0.000000000E+00  0.000000000E+00  2.905991779E+02  2.905991779E+02  0.000000000E+00  0.00000E+00  9.000E+00
      21    -1     0     0   511   502  0.000000000E+00  0.000000000E+00 -7.177099044E+02  7.177099044E+02  0.000000000E+00  0.00000E+00  9.000E+00
      25     1     1     2     0     0 -1.046157858E+02 -2.432340977E+02  1.318147529E+02  3.211034382E+02  1.250000000E+02  0.00000E+00  9.000E+00
      25     1     1     2     0     0  1.487374540E+02  2.659715454E+02 -3.866596443E+02  5.079314656E+02  1.250000000E+02  0.00000E+00  9.000E+00
      21     1     1     2   511   501 -4.412166814E+01 -2.273744773E+01 -1.722658351E+02  1.792741785E+02  2.697398305E-06  0.00000E+00  9.000E+00
#rwgt            1           1   2.7340834290031351E-002           9      221268           0
</event>
<event>
      5   9999  3.19816E-02  1.11583E+02 -1.00000E+00  1.21724E-01
       2    -1     0     0   502     0  0.000000000E+00  0.000000000E+00  1.781326167E+03  1.781326167E+03  0.000000000E+00  0.00000E+00  9.000E+00
      21    -1     0     0   501   502  0.000000000E+00  0.000000000E+00 -6.706574806E+02  6.706574806E+02  0.000000000E+00  0.00000E+00  9.000E+00
      25     1     1     2     0     0  6.046954863E+02  5.596836163E+02  1.228581978E+02  8.423903598E+02  1.250000000E+02  0.00000E+00  9.000E+00
      25     1     1     2     0     0 -7.049885577E+02 -5.107750537E+02  3.252720971E+02  9.377243514E+02  1.250000000E+02  0.00000E+00  9.000E+00
       2     1     1     2   501     0  1.002930714E+02 -4.890856258E+01  6.625383919E+02  6.718689369E+02  7.629394531E-06  0.00000E+00  9.000E+00
#rwgt            1           1   3.4252652366595658E-002           9      221368           0
</event>
<event>
      5   9999  3.19816E-02  6.50035E+01 -1.00000E+00  1.32870E-01
      21    -1     0     0   511   501  0.000000000E+00  0.000000000E+00  1.439563703E+03  1.439563703E+03  0.000000000E+00  0.00000E+00  9.000E+00
      21    -1     0     0   501   502  0.000000000E+00  0.000000000E+00 -9.482567578E+01  9.482567578E+01  0.000000000E+00  0.00000E+00  9.000E+00
      25     1     1     2     0     0 -2.433762035E+02  2.188559970E+02  6.638339701E+02  7.506200528E+02  1.250000000E+02  0.00000E+00  9.000E+00
      25     1     1     2     0     0  2.311271270E+02 -1.550170173E+02  4.483644083E+02  5.423150995E+02  1.250000000E+02  0.00000E+00  9.000E+00
      21     1     1     2   511   502  1.224907655E+01 -6.383897965E+01  2.325396486E+02  2.414542263E+02  2.697398305E-06  0.00000E+00  9.000E+00
#rwgt            2          11   2.3765719881011162E-003           9      221480           0
</event>
<event>
      5   9999  3.19816E-02  1.71619E+02 -1.00000E+00  1.14122E-01
      21    -1     0     0   502   501  0.000000000E+00  0.000000000E+00  2.855388309E+02  2.855388309E+02  0.000000000E+00  0.00000E+00  9.000E+00
      21    -1     0     0   501   512  0.000000000E+00  0.000000000E+00 -8.906479449E+02  8.906479449E+02  0.000000000E+00  0.00000E+00  9.000E+00
      25     1     1     2     0     0 -9.873865556E+01  1.131959310E+02 -7.039503634E+01  2.077091766E+02  1.250000000E+02  0.00000E+00  9.000E+00
      25     1     1     2     0     0  2.701397804E+02 -1.045556778E+02  8.393772750E+01  3.264627587E+02  1.250000000E+02  0.00000E+00  9.000E+00
      21     1     1     2   502   512 -1.714011248E+02 -8.640253176E+00 -6.186518051E+02  6.420148406E+02  1.078959322E-05  0.00000E+00  9.000E+00
#rwgt            1           1   2.9623208626758386E-002           9      221515           0
</event>
<event>
      5   9999  3.19816E-02  2.66912E+02 -1.00000E+00  1.07268E-01
      21    -1     0     0   502   511  0.000000000E+00  0.000000000E+00  1.565770895E+03  1.565770895E+03  0.000000000E+00  0.00000E+00  9.000E+00
      21    -1     0     0   501   502  0.000000000E+00  0.000000000E+00 -5.199186543E+02  5.199186543E+02  0.000000000E+00  0.00000E+00  9.000E+00
      25     1     1     2     0     0  7.816804876E+01  2.118146509E+01  1.424669875E+02  2.061085657E+02  1.250000000E+02  0.00000E+00  9.000E+00
      25     1     1     2     0     0 -2.850801779E+02  1.474282859E+02 -4.122193343E+02  5.371737027E+02  1.250000000E+02  0.00000E+00  9.000E+00
      21     1     1     2   501   511  2.069121292E+02 -1.686097510E+02  1.315604587E+03  1.342407281E+03  0.000000000E+00  0.00000E+00  9.000E+00
#rwgt            2          11   3.6306864808262180E-003           9      221566           0
</event>
<event>
      5   9999  3.19816E-02  3.22093E+01 -1.00000E+00  1.50927E-01
      21    -1     0     0   502   501  0.000000000E+00  0.000000000E+00  1.515833206E+02  1.515833206E+02  0.000000000E+00  0.00000E+00  9.000E+00
      -2    -1     0     0     0   502  0.000000000E+00  0.000000000E+00 -7.565859471E+02  7.565859471E+02  0.000000000E+00  0.00000E+00  9.000E+00
      25     1     1     2     0     0  1.682135628E+01  9.730791016E+01 -1.080650954E+02  1.924963694E+02  1.250000000E+02  0.00000E+00  9.000E+00
      25     1     1     2     0     0  1.293432871E+01 -8.497760378E+01  5.606693068E+01  1.617312299E+02  1.250000000E+02  0.00000E+00  9.000E+00
      -2     1     1     2     0   501 -2.975568499E+01 -1.233030638E+01 -5.530044618E+02  5.539416684E+02  0.000000000E+00  0.00000E+00  9.000E+00
#rwgt            1           1   2.9048173223478423E-002           9      221586           0
</event>
<event>
      5   9999  3.19816E-02  3.95711E+01 -1.00000E+00  1.45131E-01
      21    -1     0     0   502   501  0.000000000E+00  0.000000000E+00  2.129486898E+03  2.129486898E+03  0.000000000E+00  0.00000E+00  9.000E+00
       2    -1     0     0   501     0  0.000000000E+00  0.000000000E+00 -4.981437625E+03  4.981437625E+03  0.000000000E+00  0.00000E+00  9.000E+00
      25     1     1     2     0     0  6.127384943E+01 -1.024012737E+03  1.449890966E+03  1.780495825E+03  1.250000000E+02  0.00000E+00  9.000E+00
      25     1     1     2     0     0 -2.170986776E+01  1.024762374E+03 -4.189860053E+00  1.032594691E+03  1.250000000E+02  0.00000E+00  9.000E+00
       2     1     1     2   502     0 -3.956398167E+01 -7.496368805E-01 -4.297651833E+03  4.297834007E+03  0.000000000E+00  0.00000E+00  9.000E+00
#rwgt            2          13   2.6053121975914422E-003           9      221684           0
</event>
<event>
      5   9999  3.19816E-02  1.55175E+02 -1.00000E+00  1.15813E-01
      21    -1     0     0   511   501  0.000000000E+00  0.000000000E+00  1.085318110E+02  1.085318110E+02  0.000000000E+00  0.00000E+00  9.000E+00
      21    -1     0     0   501   502  0.000000000E+00  0.000000000E+00 -8.771782880E+02  8.771782880E+02  0.000000000E+00  0.00000E+00  9.000E+00
      25     1     1     2     0     0 -1.312458488E+02  7.460606218E+01 -5.856358017E+02  6.175644335E+02  1.250000000E+02  0.00000E+00  9.000E+00
      25     1     1     2     0     0 -2.198730221E+01 -9.907686388E+01 -1.193394359E+02  2.004159858E+02  1.250000000E+02  0.00000E+00  9.000E+00
      21     1     1     2   511   502  1.532331510E+02  2.447080170E+01 -6.367123945E+01  1.677296796E+02  1.907348633E-06  0.00000E+00  9.000E+00
#rwgt            1           1   2.7545251781215641E-002           9      221703           0
</event>
<event>
      5   9999  3.19816E-02  2.55535E+01 -1.00000E+00  1.58042E-01
      21    -1     0     0   502   512  0.000000000E+00  0.000000000E+00  1.281695042E+02  1.281695042E+02  0.000000000E+00  0.00000E+00  9.000E+00
      21    -1     0     0   501   502  0.000000000E+00  0.000000000E+00 -1.106042579E+03  1.106042579E+03  0.000000000E+00  0.00000E+00  9.000E+00
      25     1     1     2     0     0  1.572954451E+02  4.719077657E+01 -3.547360136E+00  2.064132026E+02  1.250000000E+02  0.00000E+00  9.000E+00
      25     1     1     2     0     0 -1.498857350E+02 -2.273518832E+01 -9.817254912E+02  1.001195567E+03  1.250000000E+02  0.00000E+00  9.000E+00
      21     1     1     2   501   512 -7.409710054E+00 -2.445558826E+01  7.399777020E+00  2.660331370E+01  6.690604782E-07  0.00000E+00  9.000E+00
#rwgt            1           1   3.3628514813333760E-002           9      221747           0
</event>
<event>
      5   9999  3.19816E-02  2.45205E+02 -1.00000E+00  1.08518E-01
      21    -1     0     0   511   501  0.000000000E+00  0.000000000E+00  1.690499247E+03  1.690499247E+03  0.000000000E+00  0.00000E+00  9.000E+00
      21    -1     0     0   501   502  0.000000000E+00  0.000000000E+00 -4.810835819E+02  4.810835819E+02  0.000000000E+00  0.00000E+00  9.000E+00
      25     1     1     2     0     0 -5.520582230E+02  3.554791036E+01  8.137857559E+02  9.919194484E+02  1.250000000E+02  0.00000E+00  9.000E+00
      25     1     1     2     0     0  7.804159956E+02  5.377330794E+01  1.045373618E+02  7.990580422E+02  1.250000000E+02  0.00000E+00  9.000E+00
      21     1     1     2   511   502 -2.283577726E+02 -8.932121830E+01  2.910925472E+02  3.806053381E+02  6.607249480E-06  0.00000E+00  9.000E+00
#rwgt            1           1   2.1305735609995696E-002           9      221875           0
</event>
<event>
      5   9999  3.19816E-02  3.42788E+01 -1.00000E+00  1.49124E-01
      21    -1     0     0   502   512  0.000000000E+00  0.000000000E+00  3.821252271E+02  3.821252271E+02  0.000000000E+00  0.00000E+00  9.000E+00
      21    -1     0     0   501   502  0.000000000E+00  0.000000000E+00 -2.919444186E+02  2.919444186E+02  0.000000000E+00  0.00000E+00  9.000E+00
      25     1     1     2     0     0  8.889014339E+01  1.028552219E+02  2.953321997E+02  3.483199139E+02  1.250000000E+02  0.00000E+00  9.000E+00
      25     1     1     2     0     0 -5.465775665E+01 -1.046382917E+02 -2.272512020E+02  2.849644737E+02  1.250000000E+02  0.00000E+00  9.000E+00
      21     1     1     2   501   512 -3.423238674E+01  1.783069805E+00  2.209981082E+01  4.078525810E+01  6.743495762E-07  0.00000E+00  9.000E+00
#rwgt            1           1   2.6803784832611133E-002           9      221915           0
</event>
<event>
      5   9999  3.19816E-02  2.34893E+02 -1.00000E+00  1.09163E-01
      21    -1     0     0   502   501  0.000000000E+00  0.000000000E+00  2.197575623E+02  2.197575623E+02  0.000000000E+00  0.00000E+00  9.000E+00
       1    -1     0     0   501     0  0.000000000E+00  0.000000000E+00 -1.060177281E+03  1.060177281E+03  0.000000000E+00  0.00000E+00  9.000E+00
      25     1     1     2     0     0 -1.554931706E+02 -1.034106388E+01  1.083482137E+02  2.272650415E+02  1.250000000E+02  0.00000E+00  9.000E+00
      25     1     1     2     0     0  1.871140256E+01 -1.806176906E+02 -4.880365836E+02  5.355161750E+02  1.250000000E+02  0.00000E+00  9.000E+00
       1     1     1     2   502     0  1.367817680E+02  1.909587545E+02 -4.607313483E+02  5.171536264E+02  7.629394531E-06  0.00000E+00  9.000E+00
#rwgt            2          12   4.1493535397175497E-004           9      222051           0
</event>
<event>
      5   9999  3.19816E-02  7.63336E+01 -1.00000E+00  1.29343E-01
      21    -1     0     0   502   511  0.000000000E+00  0.000000000E+00  7.469244841E+02  7.469244841E+02  0.000000000E+00  0.00000E+00  9.000E+00
      21    -1     0     0   501   502  0.000000000E+00  0.000000000E+00 -2.120518702E+03  2.120518702E+03  0.000000000E+00  0.00000E+00  9.000E+00
      25     1     1     2     0     0  4.762826207E+02  1.090568512E+03 -7.079109867E+02  1.390304923E+03  1.250000000E+02  0.00000E+00  9.000E+00
      25     1     1     2     0     0 -4.425842672E+02 -1.022075889E+03 -7.612258519E+02  1.354846764E+03  1.250000000E+02  0.00000E+00  9.000E+00
      21     1     1     2   501   511 -3.369835357E+01 -6.849262284E+01  9.554262038E+01  1.222914990E+02  1.348699152E-06  0.00000E+00  9.000E+00
#rwgt            1           1   6.3952808669708608E-002           9      222100           0
</event>
<event>
      5   9999  3.19816E-02  2.30752E+01 -1.00000E+00  1.61402E-01
      21    -1     0     0   512   501  0.000000000E+00  0.000000000E+00  1.535284691E+03  1.535284691E+03  0.000000000E+00  0.00000E+00  9.000E+00
      21    -1     0     0   501   502  0.000000000E+00  0.000000000E+00 -1.515024681E+02  1.515024681E+02  0.000000000E+00  0.00000E+00  9.000E+00
      25     1     1     2     0     0  1.797292958E+02 -2.751390993E+02  1.099774879E+03  1.154614190E+03  1.250000000E+02  0.00000E+00  9.000E+00
      25     1     1     2     0     0 -1.566543648E+02  2.752479205E+02  1.117110467E+02  3.583383397E+02  1.250000000E+02  0.00000E+00  9.000E+00
      21     1     1     2   512   502 -2.307493091E+01 -1.088211921E-01  1.722962972E+02  1.738346292E+02  1.907348633E-06  0.00000E+00  9.000E+00
#rwgt            1           1   2.8497340414215633E-002           9      222233           0
</event>
<event>
      5   9999  3.19816E-02  1.81656E+02 -1.00000E+00  1.13190E-01
      21    -1     0     0   511   501  0.000000000E+00  0.000000000E+00  9.705641681E+02  9.705641681E+02  0.000000000E+00  0.00000E+00  9.000E+00
      21    -1     0     0   501   502  0.000000000E+00  0.000000000E+00 -2.447915270E+02  2.447915270E+02  0.000000000E+00  0.00000E+00  9.000E+00
      25     1     1     2     0     0  2.430608123E+02  9.272172680E+01 -6.488554170E+01  2.958225999E+02  1.250000000E+02  0.00000E+00  9.000E+00
      25     1     1     2     0     0 -2.260791709E+02  8.813846644E+01  5.823353816E+02  6.431327059E+02  1.250000000E+02  0.00000E+00  9.000E+00
      21     1     1     2   511   502 -1.698164144E+01 -1.808601932E+02  2.083228012E+02  2.764003892E+02  5.394796609E-06  0.00000E+00  9.000E+00
#rwgt            1           1   2.7709595485658309E-002           9      222341           0
</event>
<event>
      5   9999  3.19816E-02  8.88467E+01 -1.00000E+00  1.26183E-01
      21    -1     0     0   502   501  0.000000000E+00  0.000000000E+00  1.891803301E+03  1.891803301E+03  0.000000000E+00  0.00000E+00  9.000E+00
      21    -1     0     0   512   502  0.000000000E+00  0.000000000E+00 -1.814131137E+02  1.814131137E+02  0.000000000E+00  0.00000E+00  9.000E+00
      25     1     1     2     0     0 -2.987281455E+02  1.073991523E+02  1.511874352E+03  1.549891009E+03  1.250000000E+02  0.00000E+00  9.000E+00
      25     1     1     2     0     0  2.904189212E+02 -1.958564463E+02  8.922549303E+01  3.824775627E+02  1.250000000E+02  0.00000E+00  9.000E+00
      21     1     1     2   512   501  8.309224328E+00  8.845729402E+01  1.092903427E+02  1.408478437E+02  1.348699152E-06  0.00000E+00  9.000E+00
#rwgt            1           1   2.9893376981166613E-002           9      222384           0
</event>
<event>
      5   9999  3.19816E-02  3.27988E+01 -1.00000E+00  1.50397E-01
      21    -1     0     0   502   501  0.000000000E+00  0.000000000E+00  1.495623553E+02  1.495623553E+02  0.000000000E+00  0.00000E+00  9.000E+00
      21    -1     0     0   511   502  0.000000000E+00  0.000000000E+00 -1.306569088E+03  1.306569088E+03  0.000000000E+00  0.00000E+00  9.000E+00
      25     1     1     2     0     0  2.105806658E+02  2.585885775E+01 -1.050193050E+03  1.078676661E+03  1.250000000E+02  0.00000E+00  9.000E+00
      25     1     1     2     0     0 -2.122922793E+02 -5.861300728E+01  1.266835021E+01  2.535527235E+02  1.250000000E+02  0.00000E+00  9.000E+00
      21     1     1     2   511   501  1.711613537E+00  3.275414953E+01 -1.194820330E+02  1.239020586E+02  1.907348633E-06  0.00000E+00  9.000E+00
#rwgt            1           1   2.7447500828366698E-002           9      222485           0
</event>
<event>
      5   9999  3.19816E-02  2.15688E+02 -1.00000E+00  1.10467E-01
      21    -1     0     0   502   501  0.000000000E+00  0.000000000E+00  9.201910570E+01  9.201910570E+01  0.000000000E+00  0.00000E+00  9.000E+00
       2    -1     0     0   501     0  0.000000000E+00  0.000000000E+00 -2.096940508E+03  2.096940508E+03  0.000000000E+00  0.00000E+00  9.000E+00
      25     1     1     2     0     0 -1.190848282E+02  1.120915820E+01 -1.471821608E+02  2.271440732E+02  1.250000000E+02  0.00000E+00  9.000E+00
      25     1     1     2     0     0  2.528720357E+02 -1.803897906E+02 -6.125894705E+02  6.981229135E+02  1.250000000E+02  0.00000E+00  9.000E+00
       2     1     1     2   502     0 -1.337872076E+02  1.691806324E+02 -1.245149771E+03  1.263692627E+03  2.157918644E-05  0.00000E+00  9.000E+00
#rwgt            1           1   2.9883314871662819E-002           9      222647           0
</event>
<event>
      5   9999  3.19816E-02  5.79625E+01 -1.00000E+00  1.35510E-01
      21    -1     0     0   511   501  0.000000000E+00  0.000000000E+00  2.136825739E+03  2.136825739E+03  0.000000000E+00  0.00000E+00  9.000E+00
      21    -1     0     0   501   502  0.000000000E+00  0.000000000E+00 -1.180631410E+02  1.180631410E+02  0.000000000E+00  0.00000E+00  9.000E+00
      25     1     1     2     0     0  3.029701996E+02 -3.277325805E+02  5.913939512E+02  7.513796588E+02  1.250000000E+02  0.00000E+00  9.000E+00
      25     1     1     2     0     0 -2.499711070E+02  3.042645419E+02  1.212199416E+03  1.280669704E+03  1.250000000E+02  0.00000E+00  9.000E+00
      21     1     1     2   511   502 -5.299909258E+01  2.346803861E+01  2.151692307E+02  2.228395173E+02  3.814697266E-06  0.00000E+00  9.000E+00
#rwgt            1           1   2.8212647297229741E-002           9      222693           0
</event>
<event>
      5   9999  3.19816E-02  2.33478E+01 -1.00000E+00  1.61008E-01
      21    -1     0     0   502   501  0.000000000E+00  0.000000000E+00  1.073746991E+03  1.073746991E+03  0.000000000E+00  0.00000E+00  9.000E+00
       5    -1     0     0   501     0  0.000000000E+00  0.000000000E+00 -3.142050998E+02  3.142050998E+02  0.000000000E+00  0.00000E+00  9.000E+00
      25     1     1     2     0     0 -2.330268617E+02  5.353529890E+01  4.561320576E+02  5.299518851E+02  1.250000000E+02  0.00000E+00  9.000E+00
      25     1     1     2     0     0  2.220737993E+02 -7.415447140E+01  5.497988094E+02  6.105074846E+02  1.250000000E+02  0.00000E+00  9.000E+00
       5     1     1     2   502     0  1.095306244E+01  2.061917250E+01 -2.463889755E+02  2.474927213E+02  2.697398305E-06  0.00000E+00  9.000E+00
#rwgt            1           1   2.7690412373321871E-002           9      222784           0
</event>
<event>
      5   9999  3.19816E-02  7.34779E+01 -1.00000E+00  1.30163E-01
      21    -1     0     0   502   501  0.000000000E+00  0.000000000E+00  2.512602855E+02  2.512602855E+02  0.000000000E+00  0.00000E+00  9.000E+00
      21    -1     0     0   501   511  0.000000000E+00  0.000000000E+00 -3.197795968E+02  3.197795968E+02  0.000000000E+00  0.00000E+00  9.000E+00
      25     1     1     2     0     0 -7.501491812E+01 -3.092365433E+01 -1.106027557E+02  1.855841585E+02  1.250000000E+02  0.00000E+00  9.000E+00
      25     1     1     2     0     0  1.479650846E+02  3.971459997E+01  1.546549253E+02  2.510260178E+02  1.250000000E+02  0.00000E+00  9.000E+00
      21     1     1     2   502   511 -7.295016648E+01 -8.790945634E+00 -1.125714809E+02  1.344297059E+02  3.303624740E-06  0.00000E+00  9.000E+00
#rwgt            1           1   3.2328103229359098E-002           9      222949           0
</event>
<event>
      5   9999  3.19816E-02  2.74131E+01 -1.00000E+00  1.55811E-01
      21    -1     0     0   502   512  0.000000000E+00  0.000000000E+00  3.796759767E+02  3.796759767E+02  0.000000000E+00  0.00000E+00  9.000E+00
      21    -1     0     0   501   502  0.000000000E+00  0.000000000E+00 -8.645401099E+01  8.645401099E+01  0.000000000E+00  0.00000E+00  9.000E+00
      25     1     1     2     0     0  2.665291478E+01  5.447604600E+01  2.000023663E+02  2.435240522E+02  1.250000000E+02  0.00000E+00  9.000E+00
      25     1     1     2     0     0 -5.395600784E+01 -5.692952079E+01  2.577766395E+01  1.498055709E+02  1.250000000E+02  0.00000E+00  9.000E+00
      21     1     1     2   501   512  2.730309306E+01  2.453474785E+00  6.744193544E+01  7.280036459E+01  0.000000000E+00  0.00000E+00  9.000E+00
#rwgt            1           1   2.3627088874731493E-002           9      223062           0
</event>
<event>
      5   9999  3.19816E-02  1.48063E+02 -1.00000E+00  1.16618E-01
      21    -1     0     0   502   511  0.000000000E+00  0.000000000E+00  1.204750253E+03  1.204750253E+03  0.000000000E+00  0.00000E+00  9.000E+00
      21    -1     0     0   501   502  0.000000000E+00  0.000000000E+00 -2.784623578E+02  2.784623578E+02  0.000000000E+00  0.00000E+00  9.000E+00
      25     1     1     2     0     0  3.585331969E+02 -3.292593836E+02  1.435974829E+02  5.226882742E+02  1.250000000E+02  0.00000E+00  9.000E+00
      25     1     1     2     0     0 -3.435662179E+02  1.819550841E+02  5.890528168E+02  7.167660843E+02  1.250000000E+02  0.00000E+00  9.000E+00
      21     1     1     2   501   511 -1.496697900E+01  1.473042995E+02  1.936375955E+02  2.437582521E+02  0.000000000E+00  0.00000E+00  9.000E+00
#rwgt            2          11   4.1582758111223458E-003           9      223194           0
</event>
<event>
      5   9999  3.19816E-02  3.15361E+01 -1.00000E+00  1.51549E-01
      21    -1     0     0   502   501  0.000000000E+00  0.000000000E+00  1.825953206E+02  1.825953206E+02  0.000000000E+00  0.00000E+00  9.000E+00
      21    -1     0     0   512   502  0.000000000E+00  0.000000000E+00 -2.055422461E+02  2.055422461E+02  0.000000000E+00  0.00000E+00  9.000E+00
      25     1     1     2     0     0  6.396888617E+01 -7.843946122E+01 -3.675448846E+01  1.649868476E+02  1.250000000E+02  0.00000E+00  9.000E+00
      25     1     1     2     0     0 -3.298302621E+01  8.430478344E+01  6.136286510E+01  1.660890657E+02  1.250000000E+02  0.00000E+00  9.000E+00
      21     1     1     2   512   501 -3.098585997E+01 -5.865322229E+00 -4.755530210E+01  5.706165333E+01  6.743495762E-07  0.00000E+00  9.000E+00
#rwgt            1           1   2.6334825442660553E-002           9      223214           0
</event>
<event>
      5   9999  3.19816E-02  5.31235E+02 -1.00000E+00  9.81101E-02
       1    -1     0     0   502     0  0.000000000E+00  0.000000000E+00  2.582932991E+03  2.582932991E+03  0.000000000E+00  0.00000E+00  9.000E+00
      21    -1     0     0   501   502  0.000000000E+00  0.000000000E+00 -2.024585824E+02  2.024585824E+02  0.000000000E+00  0.00000E+00  9.000E+00
      25     1     1     2     0     0 -4.316735082E+02 -3.585250482E+02  4.950790833E+02  7.586900069E+02  1.250000000E+02  0.00000E+00  9.000E+00
      25     1     1     2     0     0  1.423848763E+02 -8.703341894E+01  6.274022420E+02  6.611405617E+02  1.250000000E+02  0.00000E+00  9.000E+00
       1     1     1     2   501     0  2.892886320E+02  4.455584671E+02  1.257993083E+03  1.365561005E+03  0.000000000E+00  0.00000E+00  9.000E+00
#rwgt            2          17   4.8209802499930398E-004           9      223458           0
</event>
<event>
      5   9999  3.19816E-02  8.96953E+00 -1.00000E+00  2.01380E-01
      21    -1     0     0   502   501  0.000000000E+00  0.000000000E+00  1.752913463E+02  1.752913463E+02  0.000000000E+00  0.00000E+00  9.000E+00
      21    -1     0     0   501   511  0.000000000E+00  0.000000000E+00 -3.594965579E+02  3.594965579E+02  0.000000000E+00  0.00000E+00  9.000E+00
      25     1     1     2     0     0  6.859893784E+01 -1.783568884E+02 -1.676717610E+02  2.832945699E+02  1.250000000E+02  0.00000E+00  9.000E+00
      25     1     1     2     0     0 -6.158557690E+01  1.727653638E+02  1.130418362E+01  2.222463471E+02  1.250000000E+02  0.00000E+00  9.000E+00
      21     1     1     2   502   511 -7.013360937E+00  5.591524578E+00 -2.783763426E+01  2.924698720E+01  4.768371582E-07  0.00000E+00  9.000E+00
#rwgt            1           1   2.8628509690716994E-002           9      223477           0
</event>
<event>
      5   9999  3.19816E-02  2.06462E+02 -1.00000E+00  1.11148E-01
      21    -1     0     0   502   501  0.000000000E+00  0.000000000E+00  5.032339774E+02  5.032339774E+02  0.000000000E+00  0.00000E+00  9.000E+00
      21    -1     0     0   501   512  0.000000000E+00  0.000000000E+00 -4.170154401E+02  4.170154401E+02  0.000000000E+00  0.00000E+00  9.000E+00
      25     1     1     2     0     0  3.069098100E+02 -1.299364120E+02  2.578451052E+01  3.568850566E+02  1.250000000E+02  0.00000E+00  9.000E+00
      25     1     1     2     0     0 -1.521494233E+02  2.665954504E+02  1.132619161E+02  3.502511140E+02  1.250000000E+02  0.00000E+00  9.000E+00
      21     1     1     2   502   512 -1.547603867E+02 -1.366590384E+02 -5.282788945E+01  2.131132469E+02  9.536743164E-07  0.00000E+00  9.000E+00
#rwgt            1           1   2.8335887521369545E-002           9      223653           0
</event>
<event>
      5   9999  3.19816E-02  3.12456E+01 -1.00000E+00  1.51823E-01
      21    -1     0     0   502   501  0.000000000E+00  0.000000000E+00  6.441456660E+01  6.441456660E+01  0.000000000E+00  0.00000E+00  9.000E+00
      21    -1     0     0   511   502  0.000000000E+00  0.000000000E+00 -5.001581145E+02  5.001581145E+02  0.000000000E+00  0.00000E+00  9.000E+00
      25     1     1     2     0     0  8.309312526E+01  8.000335748E+01 -2.465552322E+02  2.995321138E+02  1.250000000E+02  0.00000E+00  9.000E+00
      25     1     1     2     0     0 -5.290167247E+01 -7.195559139E+01 -1.477855511E+02  2.131707372E+02  1.250000000E+02  0.00000E+00  9.000E+00
      21     1     1     2   511   501 -3.019145279E+01 -8.047766088E+00 -4.140276460E+01  5.186983012E+01  4.768371582E-07  0.00000E+00  9.000E+00
#rwgt            1           1   3.0975057313534775E-002           9      223703           0
</event>
<event>
      5   9999  3.19816E-02  1.80441E+01 -1.00000E+00  1.70143E-01
      21    -1     0     0   502   512  0.000000000E+00  0.000000000E+00  2.848268368E+02  2.848268368E+02  0.000000000E+00  0.00000E+00  9.000E+00
      21    -1     0     0   501   502  0.000000000E+00  0.000000000E+00 -2.100344172E+02  2.100344172E+02  0.000000000E+00  0.00000E+00  9.000E+00
      25     1     1     2     0     0 -7.015681189E+01 -3.328351174E+01  2.072034638E+02  2.541417829E+02  1.250000000E+02  0.00000E+00  9.000E+00
      25     1     1     2     0     0  8.774869873E+01  2.926913913E+01 -1.496123270E+02  2.157900949E+02  1.250000000E+02  0.00000E+00  9.000E+00
      21     1     1     2   501   512 -1.759188685E+01  4.014372610E+00  1.720128284E+01  2.492937628E+01  3.371747881E-07  0.00000E+00  9.000E+00
#rwgt            1           1   2.6108118896603812E-002           9      223799           0
</event>
<event>
      5   9999  3.19816E-02  8.27484E+01 -1.00000E+00  1.27643E-01
      21    -1     0     0   502   511  0.000000000E+00  0.000000000E+00  2.058190821E+02  2.058190821E+02  0.000000000E+00  0.00000E+00  9.000E+00
      21    -1     0     0   501   502  0.000000000E+00  0.000000000E+00 -8.890388066E+02  8.890388066E+02  0.000000000E+00  0.00000E+00  9.000E+00
      25     1     1     2     0     0  2.897765409E+02 -1.240517959E+02 -8.444556415E+01  3.494500609E+02  1.250000000E+02  0.00000E+00  9.000E+00
      25     1     1     2     0     0 -3.093674669E+02  4.365596560E+01 -5.615813462E+02  6.546851772E+02  1.250000000E+02  0.00000E+00  9.000E+00
      21     1     1     2   501   511  1.959092599E+01  8.039583028E+01 -3.719281421E+01  9.072265062E+01  1.066240300E-06  0.00000E+00  9.000E+00
#rwgt            2          11   4.3738588720805228E-003           9      223927           0
</event>
<event>
      5   9999  3.19816E-02  3.55753E+02 -1.00000E+00  1.03241E-01
      21    -1     0     0   502   512  0.000000000E+00  0.000000000E+00  1.963345653E+03  1.963345653E+03  0.000000000E+00  0.00000E+00  9.000E+00
      21    -1     0     0   501   502  0.000000000E+00  0.000000000E+00 -2.935482115E+02  2.935482115E+02  0.000000000E+00  0.00000E+00  9.000E+00
      25     1     1     2     0     0 -1.691884972E+02 -1.700377172E+01  2.344646952E+02  3.154561287E+02  1.250000000E+02  0.00000E+00  9.000E+00
      25     1     1     2     0     0  6.262732628E+00  3.332561126E+02 -9.650537217E+01  3.688321370E+02  1.250000000E+02  0.00000E+00  9.000E+00
      21     1     1     2   501   512  1.629257646E+02 -3.162523409E+02  1.531838118E+03  1.572605598E+03  0.000000000E+00  0.00000E+00  9.000E+00
#rwgt            1           1   3.3481200457562345E-002           9      223947           0
</event>
<event>
      5   9999  3.19816E-02  2.86486E+02 -1.00000E+00  1.06247E-01
      21    -1     0     0   502   511  0.000000000E+00  0.000000000E+00  6.836426394E+02  6.836426394E+02  0.000000000E+00  0.00000E+00  9.000E+00
      21    -1     0     0   501   502  0.000000000E+00  0.000000000E+00 -4.585393309E+02  4.585393309E+02  0.000000000E+00  0.00000E+00  9.000E+00
      25     1     1     2     0     0 -2.744733596E+02  3.393962526E+02 -1.961277756E+02  4.945872479E+02  1.250000000E+02  0.00000E+00  9.000E+00
      25     1     1     2     0     0  6.230783208E+01 -1.468858971E+02  1.415333206E+02  2.472132957E+02  1.250000000E+02  0.00000E+00  9.000E+00
      21     1     1     2   501   511  2.121655275E+02 -1.925103555E+02  2.796977634E+02  4.003814268E+02  6.607249480E-06  0.00000E+00  9.000E+00
#rwgt            2          11   2.9941950529852501E-003           9      223987           0
</event>
<event>
      5   9999  3.19816E-02  7.42783E+01 -1.00000E+00  1.29929E-01
      21    -1     0     0   502   501  0.000000000E+00  0.000000000E+00  6.807682121E+01  6.807682121E+01  0.000000000E+00  0.00000E+00  9.000E+00
       1    -1     0     0   501     0  0.000000000E+00  0.000000000E+00 -2.497498054E+03  2.497498054E+03  0.000000000E+00  0.00000E+00  9.000E+00
      25     1     1     2     0     0 -1.571232086E+02  1.923162239E+02 -1.392068828E+03  1.419561148E+03  1.250000000E+02  0.00000E+00  9.000E+00
      25     1     1     2     0     0  2.238043654E+02 -2.250406147E+02 -5.106593956E+02  6.141088589E+02  1.250000000E+02  0.00000E+00  9.000E+00
       1     1     1     2   502     0 -6.668115677E+01  3.272439081E+01 -5.266930094E+02  5.319048680E+02  1.078959322E-05  0.00000E+00  9.000E+00
#rwgt            1           1   2.7695206768479370E-002           9      224007           0
</event>
<event>
      5   9999  3.19816E-02  2.13323E+01 -1.00000E+00  1.64091E-01
      21    -1     0     0   502   501  0.000000000E+00  0.000000000E+00  6.890227286E+01  6.890227286E+01  0.000000000E+00  0.00000E+00  9.000E+00
       1    -1     0     0   501     0  0.000000000E+00  0.000000000E+00 -1.869345593E+03  1.869345593E+03  0.000000000E+00  0.00000E+00  9.000E+00
      25     1     1     2     0     0 -5.190298323E+01  8.284047849E+00 -5.775601959E+02  5.932649703E+02  1.250000000E+02  0.00000E+00  9.000E+00
      25     1     1     2     0     0  6.558781603E+01  8.080331370E+00 -2.103958721E+01  1.429500528E+02  1.250000000E+02  0.00000E+00  9.000E+00
       1     1     1     2   502     0 -1.368483280E+01 -1.636437922E+01 -1.201843537E+03  1.202032842E+03  2.157918644E-05  0.00000E+00  9.000E+00
#rwgt            1           1   3.2637134517022964E-002           9      224150           0
</event>
<event>
      5   9999  3.19816E-02  1.98054E+01 -1.00000E+00  1.66720E-01
      21    -1     0     0   502   501  0.000000000E+00  0.000000000E+00  2.877410477E+02  2.877410477E+02  0.000000000E+00  0.00000E+00  9.000E+00
       1    -1     0     0   501     0  0.000000000E+00  0.000000000E+00 -7.368653151E+02  7.368653151E+02  0.000000000E+00  0.00000E+00  9.000E+00
      25     1     1     2     0     0  5.802773072E+01 -1.951628448E+02  7.229986542E+01  2.496157528E+02  1.250000000E+02  0.00000E+00  9.000E+00
      25     1     1     2     0     0 -3.823001847E+01  1.946110572E+02  1.807204224E+01  2.351310201E+02  1.250000000E+02  0.00000E+00  9.000E+00
       1     1     1     2   502     0 -1.979771225E+01  5.517875774E-01 -5.394961751E+02  5.398595899E+02  1.078959322E-05  0.00000E+00  9.000E+00
#rwgt            1           1   2.6816052348882173E-002           9      224262           0
</event>
<event>
      5   9999  3.19816E-02  7.45315E+01 -1.00000E+00  1.29856E-01
      21    -1     0     0   502   501  0.000000000E+00  0.000000000E+00  7.857565355E+02  7.857565355E+02  0.000000000E+00  0.00000E+00  9.000E+00
      21    -1     0     0   501   511  0.000000000E+00  0.000000000E+00 -5.451786843E+02  5.451786843E+02  0.000000000E+00  0.00000E+00  9.000E+00
      25     1     1     2     0     0  2.712258984E+02  1.418015537E+02  6.183247147E+02  7.011573443E+02  1.250000000E+02  0.00000E+00  9.000E+00
      25     1     1     2     0     0 -3.457270057E+02 -1.439292787E+02 -3.891824187E+02  5.543742010E+02  1.250000000E+02  0.00000E+00  9.000E+00
      21     1     1     2   502   511  7.450110723E+01  2.127724978E+00  1.143555524E+01  7.540367442E+01  2.448873351E-06  0.00000E+00  9.000E+00
#rwgt            1           1   3.2183197274971813E-002           9      224354           0
</event>
<event>
      5   9999  3.19816E-02  4.18852E+01 -1.00000E+00  1.43611E-01
      21    -1     0     0   502   512  0.000000000E+00  0.000000000E+00  2.258478316E+03  2.258478316E+03  0.000000000E+00  0.00000E+00  9.000E+00
      21    -1     0     0   501   502  0.000000000E+00  0.000000000E+00 -1.061099103E+02  1.061099103E+02  0.000000000E+00  0.00000E+00  9.000E+00
      25     1     1     2     0     0  1.593601424E+02 -1.678428271E+02  1.002953729E+02  2.815155971E+02  1.250000000E+02  0.00000E+00  9.000E+00
      25     1     1     2     0     0 -1.972489045E+02  1.856981586E+02  1.498240777E+03  1.527658784E+03  1.250000000E+02  0.00000E+00  9.000E+00
      21     1     1     2   501   512  3.788876209E+01 -1.785533148E+01  5.538322561E+02  5.554138449E+02  1.321449896E-05  0.00000E+00  9.000E+00
#rwgt            1           1   3.7079595718968392E-002           9      224504           0
</event>
<event>
      5   9999  3.19816E-02  3.45510E+02 -1.00000E+00  1.03637E-01
      21    -1     0     0   502   501  0.000000000E+00  0.000000000E+00  1.594531993E+03  1.594531993E+03  0.000000000E+00  0.00000E+00  9.000E+00
       4    -1     0     0   501     0  0.000000000E+00  0.000000000E+00 -7.914295055E+02  7.914295055E+02  0.000000000E+00  0.00000E+00  9.000E+00
      25     1     1     2     0     0 -3.525258145E+02  4.996497374E+02  7.785874855E+02  9.978716263E+02  1.250000000E+02  0.00000E+00  9.000E+00
      25     1     1     2     0     0  1.533370471E+02 -2.173355965E+02  6.276227939E+02  6.930240854E+02  1.250000000E+02  0.00000E+00  9.000E+00
       4     1     1     2   502     0  1.991887675E+02 -2.823141408E+02 -6.031077919E+02  6.950657867E+02  1.525878906E-05  0.00000E+00  9.000E+00
#rwgt            1           1   2.5594238348104776E-002           9      224665           0
</event>
<event>
      5   9999  3.19816E-02  7.00993E+01 -1.00000E+00  1.31190E-01
      21    -1     0     0   502   501  0.000000000E+00  0.000000000E+00  3.067392620E+02  3.067392620E+02  0.000000000E+00  0.00000E+00  9.000E+00
       1    -1     0     0   501     0  0.000000000E+00  0.000000000E+00 -1.211391473E+03  1.211391473E+03  0.000000000E+00  0.00000E+00  9.000E+00
      25     1     1     2     0     0 -4.036286091E+02 -2.096602576E+02 -3.702682260E+02  5.996641034E+02  1.250000000E+02  0.00000E+00  9.000E+00
      25     1     1     2     0     0  3.369068994E+02  2.311573425E+02 -5.132488617E+01  4.303477893E+02  1.250000000E+02  0.00000E+00  9.000E+00
       1     1     1     2   502     0  6.672170973E+01 -2.149708495E+01 -4.830590989E+02  4.881188423E+02  5.394796609E-06  0.00000E+00  9.000E+00
#rwgt            1           1   2.9542056219946457E-002           9      224708           0
</event>
<event>
      5   9999  3.19816E-02  2.07098E+01 -1.00000E+00  1.65129E-01
      21    -1     0     0   502   501  0.000000000E+00  0.000000000E+00  2.246503639E+02  2.246503639E+02  0.000000000E+00  0.00000E+00  9.000E+00
      21    -1     0     0   501   511  0.000000000E+00  0.000000000E+00 -6.948158783E+02  6.948158783E+02  0.000000000E+00  0.00000E+00  9.000E+00
      25     1     1     2     0     0 -2.783561488E+02 -1.859733095E+02 -3.566944511E+02  5.049001375E+02  1.250000000E+02  0.00000E+00  9.000E+00
      25     1     1     2     0     0  2.848491527E+02  2.056389696E+02 -9.066448779E+01  3.837596578E+02  1.250000000E+02  0.00000E+00  9.000E+00
      21     1     1     2   502   511 -6.493003851E+00 -1.966566014E+01 -2.280657549E+01  3.080644695E+01  0.000000000E+00  0.00000E+00  9.000E+00
#rwgt            1           1   2.4854796170261949E-002           9      224816           0
</event>
<event>
      5   9999  3.19816E-02  4.26798E+01 -1.00000E+00  1.43115E-01
      21    -1     0     0   502   512  0.000000000E+00  0.000000000E+00  7.187763762E+02  7.187763762E+02  0.000000000E+00  0.00000E+00  9.000E+00
      21    -1     0     0   501   502  0.000000000E+00  0.000000000E+00 -1.585050935E+02  1.585050935E+02  0.000000000E+00  0.00000E+00  9.000E+00
      25     1     1     2     0     0 -2.783854273E+02  9.121308545E+01  3.546842743E+02  4.767013819E+02  1.250000000E+02  0.00000E+00  9.000E+00
      25     1     1     2     0     0  2.382915876E+02 -7.658280456E+01  1.189673638E+02  3.040165132E+02  1.250000000E+02  0.00000E+00  9.000E+00
      21     1     1     2   501   512  4.009383973E+01 -1.463028089E+01  8.661964451E+01  9.656357448E+01  2.132480600E-06  0.00000E+00  9.000E+00
#rwgt            1           1   2.8107731845588135E-002           9      225055           0
</event>
<event>
      5   9999  3.19816E-02  8.87300E+01 -1.00000E+00  1.26209E-01
      21    -1     0     0   502   511  0.000000000E+00  0.000000000E+00  9.374813172E+02  9.374813172E+02  0.000000000E+00  0.00000E+00  9.000E+00
      21    -1     0     0   501   502  0.000000000E+00  0.000000000E+00 -7.212048414E+02  7.212048414E+02  0.000000000E+00  0.00000E+00  9.000E+00
      25     1     1     2     0     0 -1.094623422E+02 -5.187770927E+02 -3.791159332E+02  6.636757997E+02  1.250000000E+02  0.00000E+00  9.000E+00
      25     1     1     2     0     0  2.567618707E+01  5.479814956E+02  2.116372090E+02  6.011308462E+02  1.250000000E+02  0.00000E+00  9.000E+00
      21     1     1     2   501   511  8.378615512E+01 -2.920440292E+01  3.837552001E+02  3.938795127E+02  0.000000000E+00  0.00000E+00  9.000E+00
#rwgt            1           1   2.8933513512012277E-002           9      225200           0
</event>
<event>
      5   9999  3.19816E-02  2.82011E+01 -1.00000E+00  1.54929E-01
      21    -1     0     0   502   501  0.000000000E+00  0.000000000E+00  8.229173378E+02  8.229173378E+02  0.000000000E+00  0.00000E+00  9.000E+00
      21    -1     0     0   512   502  0.000000000E+00  0.000000000E+00 -2.836939483E+02  2.836939483E+02  0.000000000E+00  0.00000E+00  9.000E+00
      25     1     1     2     0     0  2.345979420E+02  3.665316446E+02  2.943987778E+02  5.400715520E+02  1.250000000E+02  0.00000E+00  9.000E+00
      25     1     1     2     0     0 -2.608487620E+02 -3.768367339E+02  2.515596352E+02  5.375455802E+02  1.250000000E+02  0.00000E+00  9.000E+00
      21     1     1     2   512   501  2.625082008E+01  1.030508934E+01 -6.735023583E+00  2.899415396E+01  2.230201594E-07  0.00000E+00  9.000E+00
#rwgt            1           1   2.7251895770383183E-002           9      225299           0
</event>
<event>
      5   9999  3.19816E-02  4.26718E+01 -1.00000E+00  1.43120E-01
      21    -1     0     0   502   511  0.000000000E+00  0.000000000E+00  1.964224867E+02  1.964224867E+02  0.000000000E+00  0.00000E+00  9.000E+00
      21    -1     0     0   501   502  0.000000000E+00  0.000000000E+00 -5.743443607E+02  5.743443607E+02  0.000000000E+00  0.00000E+00  9.000E+00
      25     1     1     2     0     0 -1.222875250E+02 -8.285237734E+00 -7.739898529E+01  1.914118253E+02  1.250000000E+02  0.00000E+00  9.000E+00
      25     1     1     2     0     0  1.608332291E+02 -1.002077839E+01 -4.121508852E+02  4.598489924E+02  1.250000000E+02  0.00000E+00  9.000E+00
      21     1     1     2   501   511 -3.854570411E+01  1.830601613E+01  1.116279965E+02  1.195060297E+02  2.336015456E-06  0.00000E+00  9.000E+00
#rwgt            1           1   3.6087921999090652E-002           9      225455           0
</event>
<event>
      5   9999  3.19816E-02  2.46194E+02 -1.00000E+00  1.08458E-01
      21    -1     0     0   502   501  0.000000000E+00  0.000000000E+00  1.469386803E+03  1.469386803E+03  0.000000000E+00  0.00000E+00  9.000E+00
      21    -1     0     0   501   512  0.000000000E+00  0.000000000E+00 -6.297899070E+02  6.297899070E+02  0.000000000E+00  0.00000E+00  9.000E+00
      25     1     1     2     0     0  6.405727617E+02 -6.147925188E+01 -2.085667405E+02  6.879231401E+02  1.250000000E+02  0.00000E+00  9.000E+00
      25     1     1     2     0     0 -5.229305486E+02  2.777470730E+02  9.867085108E+02  1.157505283E+03  1.250000000E+02  0.00000E+00  9.000E+00
      21     1     1     2   502   512 -1.176422131E+02 -2.162678211E+02  6.145512625E+01  2.537482872E+02  3.162979880E-06  0.00000E+00  9.000E+00
#rwgt            2          11   7.2327157318937520E-003           9      225529           0
</event>
<event>
      5   9999  3.19816E-02  7.68150E+01 -1.00000E+00  1.29209E-01
      21    -1     0     0   502   501  0.000000000E+00  0.000000000E+00  2.128771411E+02  2.128771411E+02  0.000000000E+00  0.00000E+00  9.000E+00
       2    -1     0     0   501     0  0.000000000E+00  0.000000000E+00 -3.580842388E+02  3.580842388E+02  0.000000000E+00  0.00000E+00  9.000E+00
      25     1     1     2     0     0 -1.081557464E+02 -1.243365388E+02  8.920014020E+01  2.252529808E+02  1.250000000E+02  0.00000E+00  9.000E+00
      25     1     1     2     0     0  6.496715265E+01  6.081265797E+01 -7.952520717E+01  1.728240981E+02  1.250000000E+02  0.00000E+00  9.000E+00
       2     1     1     2   502     0  4.318859374E+01  6.352388085E+01 -1.548820307E+02  1.728843009E+02  1.907348633E-06  0.00000E+00  9.000E+00
#rwgt            1           1   3.0692052367649870E-002           9      225549           0
</event>
<event>
      5   9999  3.19816E-02  1.14786E+02 -1.00000E+00  1.21193E-01
      21    -1     0     0   502   501  0.000000000E+00  0.000000000E+00  4.844309116E+02  4.844309116E+02  0.000000000E+00  0.00000E+00  9.000E+00
      21    -1     0     0   501   511  0.000000000E+00  0.000000000E+00 -2.958772495E+02  2.958772495E+02  0.000000000E+00  0.00000E+00  9.000E+00
      25     1     1     2     0     0 -3.189460901E+01 -4.645393896E+00  3.258134853E+02  3.504543808E+02  1.250000000E+02  0.00000E+00  9.000E+00
      25     1     1     2     0     0  1.441853889E+02 -1.915738780E+01  6.058065775E+01  2.011254533E+02  1.250000000E+02  0.00000E+00  9.000E+00
      21     1     1     2   502   511 -1.122907798E+02  2.380278169E+01 -1.978404810E+02  2.287283270E+02  0.000000000E+00  0.00000E+00  9.000E+00
#rwgt            1           1   2.5151860862878603E-002           9      225624           0
</event>
<event>
      5   9999  3.19816E-02  7.32547E+01 -1.00000E+00  1.30229E-01
      21    -1     0     0   512   501  0.000000000E+00  0.000000000E+00  6.624936860E+02  6.624936860E+02  0.000000000E+00  0.00000E+00  9.000E+00
      21    -1     0     0   501   502  0.000000000E+00  0.000000000E+00 -2.381666059E+02  2.381666059E+02  0.000000000E+00  0.00000E+00  9.000E+00
      25     1     1     2     0     0  2.256738219E+02 -1.738868269E+02  3.383094032E+01  3.129454186E+02  1.250000000E+02  0.00000E+00  9.000E+00
      25     1     1     2     0     0 -2.987275782E+02  1.684651574E+02  3.102431642E+02  4.790558382E+02  1.250000000E+02  0.00000E+00  9.000E+00
      21     1     1     2   512   502  7.305375625E+01  5.421669485E+00  8.025297569E+01  1.086590351E+02  9.536743164E-07  0.00000E+00  9.000E+00
#rwgt            1           1   2.7868493670350849E-002           9      225708           0
</event>
<event>
      5   9999  3.19816E-02  2.13116E+01 -1.00000E+00  1.64125E-01
      21    -1     0     0   511   501  0.000000000E+00  0.000000000E+00  4.182949808E+02  4.182949808E+02  0.000000000E+00  0.00000E+00  9.000E+00
      21    -1     0     0   501   502  0.000000000E+00  0.000000000E+00 -1.033978052E+03  1.033978052E+03  0.000000000E+00  0.00000E+00  9.000E+00
      25     1     1     2     0     0  1.329583402E+01 -5.771423994E+02 -3.361420306E+02  6.796223901E+02  1.250000000E+02  0.00000E+00  9.000E+00
      25     1     1     2     0     0 -3.296480598E+00  5.959625228E+02 -3.477155529E+02  7.012227186E+02  1.250000000E+02  0.00000E+00  9.000E+00
      21     1     1     2   511   502 -9.999353421E+00 -1.882012340E+01  6.817451267E+01  7.142792375E+01  9.536743164E-07  0.00000E+00  9.000E+00
#rwgt            1           1   3.1438659990487117E-002           9      225771           0
</event>
<event>
      5   9999  3.19816E-02  3.99554E+01 -1.00000E+00  1.44870E-01
      21    -1     0     0   502   501  0.000000000E+00  0.000000000E+00  2.039068429E+02  2.039068429E+02  0.000000000E+00  0.00000E+00  9.000E+00
      21    -1     0     0   512   502  0.000000000E+00  0.000000000E+00 -4.245374661E+02  4.245374661E+02  0.000000000E+00  0.00000E+00  9.000E+00
      25     1     1     2     0     0 -1.558274528E+02  7.461353511E+01  2.693061666E+01  2.149409984E+02  1.250000000E+02  0.00000E+00  9.000E+00
      25     1     1     2     0     0  1.933709415E+02 -6.094152210E+01 -9.606401697E+01  2.568257882E+02  1.250000000E+02  0.00000E+00  9.000E+00
      21     1     1     2   512   501 -3.754348870E+01 -1.367201301E+01 -1.514972230E+02  1.566775225E+02  2.697398305E-06  0.00000E+00  9.000E+00
#rwgt            1           1   2.9041945027055541E-002           9      225958           0
</event>
<event>
      5   9999  3.19816E-02  1.51786E+01 -1.00000E+00  1.76901E-01
      21    -1     0     0   502   501  0.000000000E+00  0.000000000E+00  8.724130156E+01  8.724130156E+01  0.000000000E+00  0.00000E+00  9.000E+00
       1    -1     0     0   501     0  0.000000000E+00  0.000000000E+00 -1.218546313E+03  1.218546313E+03  0.000000000E+00  0.00000E+00  9.000E+00
      25     1     1     2     0     0 -4.468864934E+01  4.180502370E+01 -1.445012018E+01  1.399233410E+02  1.250000000E+02  0.00000E+00  9.000E+00
      25     1     1     2     0     0  5.757083010E+01 -4.983244165E+01 -1.946730614E+02  2.435575365E+02  1.250000000E+02  0.00000E+00  9.000E+00
       1     1     1     2   502     0 -1.288218076E+01  8.027417946E+00 -9.221818294E+02  9.223067367E+02  1.525878906E-05  0.00000E+00  9.000E+00
#rwgt            1           1   2.3808898243869156E-002           9      226058           0
</event>
<event>
      5   9999  3.19816E-02  3.78833E+01 -1.00000E+00  1.46320E-01
      21    -1     0     0   502   501  0.000000000E+00  0.000000000E+00  2.618421516E+02  2.618421516E+02  0.000000000E+00  0.00000E+00  9.000E+00
      21    -1     0     0   511   502  0.000000000E+00  0.000000000E+00 -4.985307158E+02  4.985307158E+02  0.000000000E+00  0.00000E+00  9.000E+00
      25     1     1     2     0     0  3.147085717E+02  7.625415150E+01 -2.880078320E+01  3.482968071E+02  1.250000000E+02  0.00000E+00  9.000E+00
      25     1     1     2     0     0 -2.878037700E+02 -4.958442715E+01 -1.809526661E+02  3.655933435E+02  1.250000000E+02  0.00000E+00  9.000E+00
      21     1     1     2   511   501 -2.690480162E+01 -2.666972436E+01 -2.693511485E+01  4.648271678E+01  4.768371582E-07  0.00000E+00  9.000E+00
#rwgt            1           1   2.8571012398663966E-002           9      226157           0
</event>
<event>
      5   9999  3.19816E-02  4.02260E+01 -1.00000E+00  1.44689E-01
      21    -1     0     0   512   501  0.000000000E+00  0.000000000E+00  6.829624490E+01  6.829624490E+01  0.000000000E+00  0.00000E+00  9.000E+00
      21    -1     0     0   501   502  0.000000000E+00  0.000000000E+00 -9.805255485E+02  9.805255485E+02  0.000000000E+00  0.00000E+00  9.000E+00
      25     1     1     2     0     0  1.400654495E+02 -1.180442841E+02 -4.999034704E+02  5.468832260E+02  1.250000000E+02  0.00000E+00  9.000E+00
      25     1     1     2     0     0 -1.796884751E+02  1.111056455E+02 -3.430401842E+02  4.218222144E+02  1.250000000E+02  0.00000E+00  9.000E+00
      21     1     1     2   512   502  3.962302567E+01  6.938638667E+00 -6.928564903E+01  8.011635308E+01  0.000000000E+00  0.00000E+00  9.000E+00
#rwgt            1           1   2.8365958138468757E-002           9      226272           0
</event>
<event>
      5   9999  3.19816E-02  7.06959E+01 -1.00000E+00  1.31003E-01
      21    -1     0     0   511   501  0.000000000E+00  0.000000000E+00  5.592888877E+01  5.592888877E+01  0.000000000E+00  0.00000E+00  9.000E+00
      21    -1     0     0   501   502  0.000000000E+00  0.000000000E+00 -1.984937016E+03  1.984937016E+03  0.000000000E+00  0.00000E+00  9.000E+00
      25     1     1     2     0     0 -8.855666395E+01 -3.593865820E+01 -1.028474848E+02  1.879799857E+02  1.250000000E+02  0.00000E+00  9.000E+00
      25     1     1     2     0     0  1.574116681E+02  1.991040174E+01 -1.660920627E+03  1.673157849E+03  1.250000000E+02  0.00000E+00  9.000E+00
      21     1     1     2   511   502 -6.885500419E+01  1.602825646E+01 -1.652400156E+02  1.797280706E+02  3.303624740E-06  0.00000E+00  9.000E+00
#rwgt            1           1   2.7561960281142436E-002           9      226428           0
</event>
<event>
      5   9999  3.19816E-02  2.37124E+02 -1.00000E+00  1.09021E-01
      21    -1     0     0   512   501  0.000000000E+00  0.000000000E+00  4.318935013E+02  4.318935013E+02  0.000000000E+00  0.00000E+00  9.000E+00
      21    -1     0     0   501   502  0.000000000E+00  0.000000000E+00 -3.934404459E+02  3.934404459E+02  0.000000000E+00  0.00000E+00  9.000E+00
      25     1     1     2     0     0 -4.568888743E+01  7.510581136E+01  6.561940620E+01  1.663107447E+02  1.250000000E+02  0.00000E+00  9.000E+00
      25     1     1     2     0     0  1.673366915E+01 -3.104548841E+02 -1.765604733E+02  3.787622624E+02  1.250000000E+02  0.00000E+00  9.000E+00
      21     1     1     2   512   502  2.895521828E+01  2.353490727E+02  1.493941225E+02  2.802609401E+02  1.907348633E-06  0.00000E+00  9.000E+00
#rwgt            1           1   2.7525279830595013E-002           9      226524           0
</event>
<event>
      5   9999  3.19816E-02  1.01677E+01 -1.00000E+00  1.94926E-01
      21    -1     0     0   502   511  0.000000000E+00  0.000000000E+00  8.392204535E+01  8.392204535E+01  0.000000000E+00  0.00000E+00  9.000E+00
      21    -1     0     0   501   502  0.000000000E+00  0.000000000E+00 -3.225340078E+02  3.225340078E+02  0.000000000E+00  0.00000E+00  9.000E+00
      25     1     1     2     0     0 -3.433511074E+01  4.436798124E+00 -2.694078349E+00  1.297337391E+02  1.250000000E+02  0.00000E+00  9.000E+00
      25     1     1     2     0     0  4.290942355E+01  1.027961460E+00 -2.290740433E+02  2.644658629E+02  1.250000000E+02  0.00000E+00  9.000E+00
      21     1     1     2   501   511 -8.574312816E+00 -5.464759584E+00 -6.843840867E+00  1.225645117E+01  8.429369702E-08  0.00000E+00  9.000E+00
#rwgt            1           1   7.3994336331232605E-002           9      226576           0
</event>
<event>
      5   9999  3.19816E-02  7.37198E+01 -1.00000E+00  1.30092E-01
      21    -1     0     0   502   501  0.000000000E+00  0.000000000E+00  9.996616837E+02  9.996616837E+02  0.000000000E+00  0.00000E+00  9.000E+00
      21    -1     0     0   501   512  0.000000000E+00  0.000000000E+00 -2.541368434E+02  2.541368434E+02  0.000000000E+00  0.00000E+00  9.000E+00
      25     1     1     2     0     0  2.911490885E+02  1.207834765E+02 -2.170545339E+01  3.397831170E+02  1.250000000E+02  0.00000E+00  9.000E+00
      25     1     1     2     0     0 -3.385453768E+02 -1.772475934E+02  7.250880034E+02  8.291002920E+02  1.250000000E+02  0.00000E+00  9.000E+00
      21     1     1     2   502   512  4.739628830E+01  5.646411692E+01  4.214229039E+01  8.491511811E+01  1.261592536E-06  0.00000E+00  9.000E+00
#rwgt            1           1   2.9426945444486149E-002           9      226755           0
</event>
<event>
      5   9999  3.19816E-02  5.08496E+01 -1.00000E+00  1.38659E-01
      21    -1     0     0   502   501  0.000000000E+00  0.000000000E+00  2.345379142E+02  2.345379142E+02  0.000000000E+00  0.00000E+00  9.000E+00
      21    -1     0     0   501   511  0.000000000E+00  0.000000000E+00 -2.593332467E+02  2.593332467E+02  0.000000000E+00  0.00000E+00  9.000E+00
      25     1     1     2     0     0 -1.739796285E+02  5.573217153E+01 -5.293808278E+01  2.276014646E+02  1.250000000E+02  0.00000E+00  9.000E+00
      25     1     1     2     0     0  1.284168124E+02 -7.830891385E+01  6.201857290E+01  2.051693619E+02  1.250000000E+02  0.00000E+00  9.000E+00
      21     1     1     2   502   511  4.556281611E+01  2.257674232E+01 -3.387582263E+01  6.110033441E+01  8.259061849E-07  0.00000E+00  9.000E+00
#rwgt            1           1   2.8374475900356699E-002           9      226851           0
</event>
<event>
      5   9999  3.19816E-02  7.72248E+01 -1.00000E+00  1.29096E-01
      21    -1     0     0   502   501  0.000000000E+00  0.000000000E+00  1.044379975E+03  1.044379975E+03  0.000000000E+00  0.00000E+00  9.000E+00
      21    -1     0     0   501   512  0.000000000E+00  0.000000000E+00 -1.096130940E+03  1.096130940E+03  0.000000000E+00  0.00000E+00  9.000E+00
      25     1     1     2     0     0  1.396225245E+02 -2.040184978E+02  6.429208902E+02  7.000644741E+02  1.250000000E+02  0.00000E+00  9.000E+00
      25     1     1     2     0     0 -1.987330676E+02  2.537136919E+02  2.909394625E+02  4.518143872E+02  1.250000000E+02  0.00000E+00  9.000E+00
      21     1     1     2   502   512  5.911054307E+01 -4.969519415E+01 -9.856113177E+02  9.886320540E+02  1.525878906E-05  0.00000E+00  9.000E+00
#rwgt            1           1   2.7715071605210646E-002           9      226957           0
</event>
<event>
      5   9999  3.19816E-02  6.35017E+01 -1.00000E+00  1.33400E-01
      -2    -1     0     0     0   501  0.000000000E+00  0.000000000E+00  3.179457482E+02  3.179457482E+02  0.000000000E+00  0.00000E+00  9.000E+00
      21    -1     0     0   501   502  0.000000000E+00  0.000000000E+00 -1.345442062E+03  1.345442062E+03  0.000000000E+00  0.00000E+00  9.000E+00
      25     1     1     2     0     0  1.064202668E+02  9.647555189E+01 -2.182221892E+02  2.896182473E+02  1.250000000E+02  0.00000E+00  9.000E+00
      25     1     1     2     0     0 -1.233183959E+02 -1.576876053E+02 -1.074979626E+03  1.100581212E+03  1.250000000E+02  0.00000E+00  9.000E+00
      -2     1     1     2     0   502  1.689812911E+01  6.121205346E+01  2.657055008E+02  2.731883515E+02  0.000000000E+00  0.00000E+00  9.000E+00
#rwgt            1           1   2.9006026917738213E-002           9      227016           0
</event>
<event>
      5   9999  3.19816E-02  2.87183E+01 -1.00000E+00  1.54369E-01
      21    -1     0     0   502   511  0.000000000E+00  0.000000000E+00  6.395171059E+02  6.395171059E+02  0.000000000E+00  0.00000E+00  9.000E+00
      21    -1     0     0   501   502  0.000000000E+00  0.000000000E+00 -1.168066581E+03  1.168066581E+03  0.000000000E+00  0.00000E+00  9.000E+00
      25     1     1     2     0     0  5.555889001E+02  2.955308548E+02 -8.075258062E+02  1.031377933E+03  1.250000000E+02  0.00000E+00  9.000E+00
      25     1     1     2     0     0 -5.309254592E+02 -2.808184776E+02  1.333986645E+02  6.278224783E+02  1.250000000E+02  0.00000E+00  9.000E+00
      21     1     1     2   501   511 -2.466344097E+01 -1.471237714E+01  1.455776669E+02  1.483832756E+02  2.697398305E-06  0.00000E+00  9.000E+00
#rwgt            1           1   2.2867393793145209E-002           9      227053           0
</event>
<event>
      5   9999  3.19816E-02  1.04096E+02 -1.00000E+00  1.23049E-01
      21    -1     0     0   502   501  0.000000000E+00  0.000000000E+00  3.727567683E+01  3.727567683E+01  0.000000000E+00  0.00000E+00  9.000E+00
       1    -1     0     0   501     0  0.000000000E+00  0.000000000E+00 -1.875934363E+03  1.875934363E+03  0.000000000E+00  0.00000E+00  9.000E+00
      25     1     1     2     0     0  8.518428617E+01  4.405072077E+01 -1.842346804E+02  2.424133785E+02  1.250000000E+02  0.00000E+00  9.000E+00
      25     1     1     2     0     0  1.722685067E+01 -2.539973508E+01 -8.587825694E+02  8.683745807E+02  1.250000000E+02  0.00000E+00  9.000E+00
       1     1     1     2   502     0 -1.024111368E+02 -1.865098569E+01 -7.956414364E+02  8.024220807E+02  1.078959322E-05  0.00000E+00  9.000E+00
#rwgt            1           1   2.7392616114812543E-002           9      227256           0
</event>
<event>
      5   9999  3.19816E-02  1.66779E+01 -1.00000E+00  1.73153E-01
      21    -1     0     0   502   501  0.000000000E+00  0.000000000E+00  6.048150968E+02  6.048150968E+02  0.000000000E+00  0.00000E+00  9.000E+00
       2    -1     0     0   501     0  0.000000000E+00  0.000000000E+00 -1.197044360E+03  1.197044360E+03  0.000000000E+00  0.00000E+00  9.000E+00
      25     1     1     2     0     0 -8.658264970E+01  9.217684038E+01 -8.413738842E+01  1.967161032E+02  1.250000000E+02  0.00000E+00  9.000E+00
      25     1     1     2     0     0  7.196178625E+01 -8.415305650E+01  5.357484092E+02  5.611698438E+02  1.250000000E+02  0.00000E+00  9.000E+00
       2     1     1     2   502     0  1.462086344E+01 -8.023783880E+00 -1.043840284E+03  1.043973510E+03  1.525878906E-05  0.00000E+00  9.000E+00
#rwgt            1           1   2.8840321403584650E-002           9      227300           0
</event>
<event>
      5   9999  3.19816E-02  4.82442E+00 -1.00000E+00  2.45660E-01
      21    -1     0     0   502   501  0.000000000E+00  0.000000000E+00  3.393053625E+02  3.393053625E+02  0.000000000E+00  0.00000E+00  9.000E+00
      21    -1     0     0   501   511  0.000000000E+00  0.000000000E+00 -7.250786355E+02  7.250786355E+02  0.000000000E+00  0.00000E+00  9.000E+00
      25     1     1     2     0     0  1.519246754E+02 -1.229180110E+02 -2.275677920E+02  3.249646818E+02  1.250000000E+02  0.00000E+00  9.000E+00
      25     1     1     2     0     0 -1.540603097E+02  1.185920361E+02  2.446315019E+02  3.365534456E+02  1.250000000E+02  0.00000E+00  9.000E+00
      21     1     1     2   502   511  2.135634274E+00  4.325974924E+00 -4.028369828E+02  4.028658706E+02  5.394796609E-06  0.00000E+00  9.000E+00
#rwgt            1           1   2.7456321944553240E-002           9      227473           0
</event>
<event>
      5   9999  3.19816E-02  8.41946E+01 -1.00000E+00  1.27284E-01
      21    -1     0     0   502   501  0.000000000E+00  0.000000000E+00  1.173240871E+02  1.173240871E+02  0.000000000E+00  0.00000E+00  9.000E+00
      21    -1     0     0   512   502  0.000000000E+00  0.000000000E+00 -1.065131928E+03  1.065131928E+03  0.000000000E+00  0.00000E+00  9.000E+00
      25     1     1     2     0     0  1.870800846E+02 -1.053577529E+02 -7.196421381E+02  7.613205770E+02  1.250000000E+02  0.00000E+00  9.000E+00
      25     1     1     2     0     0 -1.710890143E+02  2.269568675E+01 -4.253497597E+01  2.173034036E+02  1.250000000E+02  0.00000E+00  9.000E+00
      21     1     1     2   512   501 -1.599107027E+01  8.266206612E+01 -1.856307265E+02  2.038320341E+02  3.814697266E-06  0.00000E+00  9.000E+00
#rwgt            1           1   2.9568745735694128E-002           9      227862           0
</event>
<event>
      5   9999  3.19816E-02  7.81022E+01 -1.00000E+00  1.28856E-01
      21    -1     0     0   502   511  0.000000000E+00  0.000000000E+00  1.287512293E+03  1.287512293E+03  0.000000000E+00  0.00000E+00  9.000E+00
      21    -1     0     0   501   502  0.000000000E+00  0.000000000E+00 -7.112023471E+01  7.112023471E+01  0.000000000E+00  0.00000E+00  9.000E+00
      25     1     1     2     0     0  6.119521049E+00  1.134974346E+02  9.003845094E+02  9.160984559E+02  1.250000000E+02  0.00000E+00  9.000E+00
      25     1     1     2     0     0  7.182617022E+01 -1.184387702E+02  9.756404703E+01  2.105480569E+02  1.250000000E+02  0.00000E+00  9.000E+00
      21     1     1     2   501   511 -7.794569127E+01  4.941335577E+00  2.184435022E+02  2.319860152E+02  0.000000000E+00  0.00000E+00  9.000E+00
#rwgt            1           1   2.7334296744497767E-002           9      227930           0
</event>
<event>
      5   9999  3.19816E-02  6.01742E+01 -1.00000E+00  1.34636E-01
      21    -1     0     0   512   501  0.000000000E+00  0.000000000E+00  2.894348644E+02  2.894348644E+02  0.000000000E+00  0.00000E+00  9.000E+00
      21    -1     0     0   501   502  0.000000000E+00  0.000000000E+00 -2.863256614E+02  2.863256614E+02  0.000000000E+00  0.00000E+00  9.000E+00
      25     1     1     2     0     0 -1.879904966E+02 -7.677281709E+00 -4.394097933E+01  2.301199190E+02  1.250000000E+02  0.00000E+00  9.000E+00
      25     1     1     2     0     0  2.227900453E+02  5.676825460E+01 -1.114401353E+01  2.619298151E+02  1.250000000E+02  0.00000E+00  9.000E+00
      21     1     1     2   512   502 -3.479954871E+01 -4.909097289E+01  5.819419585E+01  8.371079166E+01  6.743495762E-07  0.00000E+00  9.000E+00
#rwgt            1           1   2.5530177467114119E-002           9      228015           0
</event>
<event>
      5   9999  3.19816E-02  4.40481E+01 -1.00000E+00  1.42291E-01
      21    -1     0     0   511   501  0.000000000E+00  0.000000000E+00  8.519375643E+02  8.519375643E+02  0.000000000E+00  0.00000E+00  9.000E+00
      21    -1     0     0   501   502  0.000000000E+00  0.000000000E+00 -1.382035409E+02  1.382035409E+02  0.000000000E+00  0.00000E+00  9.000E+00
      25     1     1     2     0     0 -2.983019716E+02  5.122745040E+01  2.358483393E+02  4.035563865E+02  1.250000000E+02  0.00000E+00  9.000E+00
      25     1     1     2     0     0  2.545981017E+02 -5.672373053E+01  3.670744661E+02  4.673397465E+02  1.250000000E+02  0.00000E+00  9.000E+00
      21     1     1     2   511   502  4.370386989E+01  5.496280121E+00  1.108112181E+02  1.192449722E+02  1.348699152E-06  0.00000E+00  9.000E+00
#rwgt            1           1   2.7003423135416101E-002           9      228099           0
</event>
<event>
      5   9999  3.19816E-02  4.66637E+01 -1.00000E+00  1.40809E-01
      21    -1     0     0   502   501  0.000000000E+00  0.000000000E+00  1.051285123E+03  1.051285123E+03  0.000000000E+00  0.00000E+00  9.000E+00
      21    -1     0     0   501   512  0.000000000E+00  0.000000000E+00 -1.100693960E+02  1.100693960E+02  0.000000000E+00  0.00000E+00  9.000E+00
      25     1     1     2     0     0  1.660558547E+01 -1.601283020E+02  4.306733459E+02  4.764675743E+02  1.250000000E+02  0.00000E+00  9.000E+00
      25     1     1     2     0     0 -2.374408571E+01  2.062427200E+02  5.640420697E+02  6.138959990E+02  1.250000000E+02  0.00000E+00  9.000E+00
      21     1     1     2   502   512  7.138500245E+00 -4.611441804E+01 -5.349968837E+01  7.099094585E+01  2.523185073E-06  0.00000E+00  9.000E+00
#rwgt            1           1   3.0894854321437237E-002           9      228205           0
</event>
<event>
      5   9999  3.19816E-02  7.42870E+01 -1.00000E+00  1.29926E-01
      21    -1     0     0   511   501  0.000000000E+00  0.000000000E+00  7.568920211E+02  7.568920211E+02  0.000000000E+00  0.00000E+00  9.000E+00
      21    -1     0     0   501   502  0.000000000E+00  0.000000000E+00 -1.916376545E+02  1.916376545E+02  0.000000000E+00  0.00000E+00  9.000E+00
      25     1     1     2     0     0  3.295609168E+02  4.526093765E+01  2.261513430E+02  4.212224831E+02  1.250000000E+02  0.00000E+00  9.000E+00
      25     1     1     2     0     0 -2.565994552E+02 -5.923185338E+01  1.580285554E+02  3.315866662E+02  1.250000000E+02  0.00000E+00  9.000E+00
      21     1     1     2   511   502 -7.296146165E+01  1.397091573E+01  1.810744682E+02  1.957205263E+02  0.000000000E+00  0.00000E+00  9.000E+00
#rwgt            1           1   2.5070517275360912E-002           9      228328           0
</event>
<event>
      5   9999  3.19816E-02  5.45098E+01 -1.00000E+00  1.36969E-01
      21    -1     0     0   512   501  0.000000000E+00  0.000000000E+00  4.781570680E+02  4.781570680E+02  0.000000000E+00  0.00000E+00  9.000E+00
      21    -1     0     0   501   502  0.000000000E+00  0.000000000E+00 -3.110268659E+02  3.110268659E+02  0.000000000E+00  0.00000E+00  9.000E+00
      25     1     1     2     0     0 -9.175112261E-01 -1.132228381E+02 -6.763024341E+01  1.817115921E+02  1.250000000E+02  0.00000E+00  9.000E+00
      25     1     1     2     0     0  9.780872008E+00  1.670072437E+02 -1.251457862E+02  2.434616042E+02  1.250000000E+02  0.00000E+00  9.000E+00
      21     1     1     2   512   502 -8.863360782E+00 -5.378440568E+01  3.599062318E+02  3.640107376E+02  3.814697266E-06  0.00000E+00  9.000E+00
#rwgt            1           1   2.8208917936542399E-002           9      228441           0
</event>
<event>
      5   9999  3.19816E-02  7.03495E+01 -1.00000E+00  1.31111E-01
      21    -1     0     0   511   501  0.000000000E+00  0.000000000E+00  3.639203735E+02  3.639203735E+02  0.000000000E+00  0.00000E+00  9.000E+00
      21    -1     0     0   501   502  0.000000000E+00  0.000000000E+00 -3.953575031E+02  3.953575031E+02  0.000000000E+00  0.00000E+00  9.000E+00
      25     1     1     2     0     0  1.448660441E+02 -1.553256124E+02 -2.834926354E+02  3.756398420E+02  1.250000000E+02  0.00000E+00  9.000E+00
      25     1     1     2     0     0 -1.065360475E+02  9.633523327E+01  2.486839489E+02  3.132077793E+02  1.250000000E+02  0.00000E+00  9.000E+00
      21     1     1     2   511   502 -3.832999654E+01  5.899037916E+01  3.371556848E+00  7.043025531E+01  9.830249847E-07  0.00000E+00  9.000E+00
#rwgt            1           1   3.0574725562113627E-002           9      228525           0
</event>
<event>
      5   9999  3.19816E-02  8.82338E+01 -1.00000E+00  1.26324E-01
      21    -1     0     0   502   512  0.000000000E+00  0.000000000E+00  1.955971685E+02  1.955971685E+02  0.000000000E+00  0.00000E+00  9.000E+00
      21    -1     0     0   501   502  0.000000000E+00  0.000000000E+00 -1.310570871E+03  1.310570871E+03  0.000000000E+00  0.00000E+00  9.000E+00
      25     1     1     2     0     0  4.791976389E+01 -3.138691626E+02 -2.611788065E+02  4.297086501E+02  1.250000000E+02  0.00000E+00  9.000E+00
      25     1     1     2     0     0 -1.237274835E+02  2.687206301E+02 -9.145696683E+02  9.693203523E+02  1.250000000E+02  0.00000E+00  9.000E+00
      21     1     1     2   501   512  7.580771966E+01  4.514853252E+01  6.077477221E+01  1.071390372E+02  9.536743164E-07  0.00000E+00  9.000E+00
#rwgt            1           1   2.6590453080469926E-002           9      228661           0
</event>
<event>
      5   9999  3.19816E-02  4.13070E+01 -1.00000E+00  1.43979E-01
      21    -1     0     0   502   501  0.000000000E+00  0.000000000E+00  7.273219465E+02  7.273219465E+02  0.000000000E+00  0.00000E+00  9.000E+00
      21    -1     0     0   501   511  0.000000000E+00  0.000000000E+00 -1.787423491E+02  1.787423491E+02  0.000000000E+00  0.00000E+00  9.000E+00
      25     1     1     2     0     0  1.897479049E+02 -1.066646594E+02  3.023391613E+01  2.528254470E+02  1.250000000E+02  0.00000E+00  9.000E+00
      25     1     1     2     0     0 -1.500695989E+02  9.517971713E+01  5.562502130E+02  5.971761570E+02  1.250000000E+02  0.00000E+00  9.000E+00
      21     1     1     2   502   511 -3.967830601E+01  1.148494226E+01 -3.790453168E+01  5.606269160E+01  4.768371582E-07  0.00000E+00  9.000E+00
#rwgt            1           1   2.8648051057330082E-002           9      228728           0
</event>
<event>
      5   9999  3.19816E-02  6.51154E+01 -1.00000E+00  1.32832E-01
      21    -1     0     0   502   501  0.000000000E+00  0.000000000E+00  1.135242639E+03  1.135242639E+03  0.000000000E+00  0.00000E+00  9.000E+00
      21    -1     0     0   501   512  0.000000000E+00  0.000000000E+00 -3.792395297E+02  3.792395297E+02  0.000000000E+00  0.00000E+00  9.000E+00
      25     1     1     2     0     0 -2.319888650E+02 -4.379902916E+02  4.814964397E-01  5.111551241E+02  1.250000000E+02  0.00000E+00  9.000E+00
      25     1     1     2     0     0  2.841029901E+02  4.770304016E+02  7.447764771E+02  9.373310588E+02  1.250000000E+02  0.00000E+00  9.000E+00
      21     1     1     2   502   512 -5.211412511E+01 -3.904010994E+01  1.074513590E+01  6.599598598E+01  7.152557373E-07  0.00000E+00  9.000E+00
#rwgt            1           1   3.0764308532773073E-002           9      228803           0
</event>
<event>
      5   9999  3.19816E-02  5.00765E+01 -1.00000E+00  1.39038E-01
      21    -1     0     0   502   501  0.000000000E+00  0.000000000E+00  9.971724169E+02  9.971724169E+02  0.000000000E+00  0.00000E+00  9.000E+00
      21    -1     0     0   511   502  0.000000000E+00  0.000000000E+00 -7.518518285E+01  7.518518285E+01  0.000000000E+00  0.00000E+00  9.000E+00
      25     1     1     2     0     0  5.017246584E+01 -8.207604032E+00  8.011246823E+01  1.569319874E+02  1.250000000E+02  0.00000E+00  9.000E+00
      25     1     1     2     0     0 -9.611091701E+01  2.814036587E+01  8.497677928E+02  8.647308773E+02  1.250000000E+02  0.00000E+00  9.000E+00
      21     1     1     2   511   501  4.593845118E+01 -1.993276184E+01 -7.893026928E+00  5.069473508E+01  1.092571186E-06  0.00000E+00  9.000E+00
#rwgt            1           1   2.6897854256898005E-002           9      228941           0
</event>
<event>
      5   9999  3.19816E-02  4.72461E+01 -1.00000E+00  1.40494E-01
       1    -1     0     0   502     0  0.000000000E+00  0.000000000E+00  1.003037599E+03  1.003037599E+03  0.000000000E+00  0.00000E+00  9.000E+00
      21    -1     0     0   501   502  0.000000000E+00  0.000000000E+00 -9.008687300E+02  9.008687300E+02  0.000000000E+00  0.00000E+00  9.000E+00
      25     1     1     2     0     0 -4.968472182E+02 -8.326834423E+01 -6.619260082E+02  8.411669369E+02  1.250000000E+02  0.00000E+00  9.000E+00
      25     1     1     2     0     0  4.969278833E+02  3.602230546E+01  2.971877847E+02  5.934479817E+02  1.250000000E+02  0.00000E+00  9.000E+00
       1     1     1     2   501     0 -8.066507053E-02  4.724603877E+01  4.669070924E+02  4.692914102E+02  5.394796609E-06  0.00000E+00  9.000E+00
#rwgt            1           1   3.0866236104686102E-002           9      228987           0
</event>
<event>
      5   9999  3.19816E-02  6.88602E+01 -1.00000E+00  1.31583E-01
      21    -1     0     0   511   501  0.000000000E+00  0.000000000E+00  8.395083166E+01  8.395083166E+01  0.000000000E+00  0.00000E+00  9.000E+00
      21    -1     0     0   501   502  0.000000000E+00  0.000000000E+00 -7.345418802E+02  7.345418802E+02  0.000000000E+00  0.00000E+00  9.000E+00
      25     1     1     2     0     0  6.515432927E+01  4.038370006E+00 -1.712526605E+02  2.218419906E+02  1.250000000E+02  0.00000E+00  9.000E+00
      25     1     1     2     0     0 -1.332822421E+02 -1.405375326E+01 -4.934289162E+02  5.263637140E+02  1.250000000E+02  0.00000E+00  9.000E+00
      21     1     1     2   511   502  6.812791280E+01  1.001538325E+01  1.409052822E+01  7.028700726E+01  1.488923549E-06  0.00000E+00  9.000E+00
#rwgt            1           1   3.5379263169753344E-002           9      229136           0
</event>
<event>
      5   9999  3.19816E-02  1.60048E+01 -1.00000E+00  1.74771E-01
      21    -1     0     0   502   501  0.000000000E+00  0.000000000E+00  6.034975992E+01  6.034975992E+01  0.000000000E+00  0.00000E+00  9.000E+00
      21    -1     0     0   512   502  0.000000000E+00  0.000000000E+00 -1.766931868E+03  1.766931868E+03  0.000000000E+00  0.00000E+00  9.000E+00
      25     1     1     2     0     0  8.036521615E+01 -2.374296563E+02 -4.176204827E+02  5.028551255E+02  1.250000000E+02  0.00000E+00  9.000E+00
      25     1     1     2     0     0 -9.632522529E+01  2.362336842E+02 -1.151125396E+03  1.185664194E+03  1.250000000E+02  0.00000E+00  9.000E+00
      21     1     1     2   512   501  1.596000914E+01  1.195972100E+00 -1.378362295E+02  1.387623090E+02  0.000000000E+00  0.00000E+00  9.000E+00
#rwgt            1           1   3.4220330634060658E-002           9      229190           0
</event>
<event>
      5   9999  3.19816E-02  5.93492E+01 -1.00000E+00  1.34957E-01
      21    -1     0     0   502   511  0.000000000E+00  0.000000000E+00  2.233478765E+03  2.233478765E+03  0.000000000E+00  0.00000E+00  9.000E+00
      21    -1     0     0   501   502  0.000000000E+00  0.000000000E+00 -5.232606298E+02  5.232606298E+02  0.000000000E+00  0.00000E+00  9.000E+00
      25     1     1     2     0     0  4.428037963E+02 -8.595659288E+02  3.644341370E+02  1.040848706E+03  1.250000000E+02  0.00000E+00  9.000E+00
      25     1     1     2     0     0 -3.875193217E+02  8.379799884E+02  1.006732521E+03  1.371684021E+03  1.250000000E+02  0.00000E+00  9.000E+00
      21     1     1     2   501   511 -5.528447466E+01  2.158594041E+01  3.390514770E+02  3.442066676E+02  5.394796609E-06  0.00000E+00  9.000E+00
#rwgt            1           1   3.1430257245899991E-002           9      229321           0
</event>
<event>
      5   9999  3.19816E-02  2.61530E+01 -1.00000E+00  1.57298E-01
      21    -1     0     0   502   501  0.000000000E+00  0.000000000E+00  2.366620542E+02  2.366620542E+02  0.000000000E+00  0.00000E+00  9.000E+00
       2    -1     0     0   501     0  0.000000000E+00  0.000000000E+00 -1.737646168E+03  1.737646168E+03  0.000000000E+00  0.00000E+00  9.000E+00
      25     1     1     2     0     0 -8.653616656E+01  2.676891657E+02 -1.415348859E+03  1.448441712E+03  1.250000000E+02  0.00000E+00  9.000E+00
      25     1     1     2     0     0  9.253372185E+01 -2.931452244E+02  9.355220100E+01  3.447805484E+02  1.250000000E+02  0.00000E+00  9.000E+00
       2     1     1     2   502     0 -5.997555284E+00  2.545605863E+01 -1.791874556E+02  1.810859626E+02  0.000000000E+00  0.00000E+00  9.000E+00
#rwgt            1           1   1.5380764064889193E-002           9      229488           0
</event>
<event>
      5   9999  3.19816E-02  2.82597E+01 -1.00000E+00  1.54865E-01
      21    -1     0     0   502   501  0.000000000E+00  0.000000000E+00  4.006127993E+02  4.006127993E+02  0.000000000E+00  0.00000E+00  9.000E+00
       2    -1     0     0   501     0  0.000000000E+00  0.000000000E+00 -2.639195714E+02  2.639195714E+02  0.000000000E+00  0.00000E+00  9.000E+00
      25     1     1     2     0     0  3.934400494E+01  1.543886306E+02  2.118430464E+02  2.930636045E+02  1.250000000E+02  0.00000E+00  9.000E+00
      25     1     1     2     0     0 -1.946192281E+01 -1.744712650E+02  6.766744861E+01  2.258824304E+02  1.250000000E+02  0.00000E+00  9.000E+00
       2     1     1     2   502     0 -1.988208213E+01  2.008263437E+01 -1.428172671E+02  1.455863359E+02  2.697398305E-06  0.00000E+00  9.000E+00
#rwgt            1           1   3.0042390416700294E-002           9      229721           0
</event>
<event>
      5   9999  3.19816E-02  2.60052E+02 -1.00000E+00  1.07649E-01
      21    -1     0     0   502   501  0.000000000E+00  0.000000000E+00  1.323232462E+03  1.323232462E+03  0.000000000E+00  0.00000E+00  9.000E+00
       2    -1     0     0   501     0  0.000000000E+00  0.000000000E+00 -2.320783023E+03  2.320783023E+03  0.000000000E+00  0.00000E+00  9.000E+00
      25     1     1     2     0     0  2.589834910E+02 -2.155678764E+02 -4.733365157E+02  5.943184458E+02  1.250000000E+02  0.00000E+00  9.000E+00
      25     1     1     2     0     0 -1.373208897E+02 -1.426926090E+01  1.246324358E+03  1.260162705E+03  1.250000000E+02  0.00000E+00  9.000E+00
       2     1     1     2   502     0 -1.216626012E+02  2.298371373E+02 -1.770538403E+03  1.789534334E+03  3.051757812E-05  0.00000E+00  9.000E+00
#rwgt            1           1   3.1456381422384522E-002           9      229852           0
</event>
<event>
      5   9999  3.19816E-02  8.42591E+01 -1.00000E+00  1.27269E-01
      21    -1     0     0   502   501  0.000000000E+00  0.000000000E+00  3.882115421E+02  3.882115421E+02  0.000000000E+00  0.00000E+00  9.000E+00
      21    -1     0     0   511   502  0.000000000E+00  0.000000000E+00 -5.919649868E+02  5.919649868E+02  0.000000000E+00  0.00000E+00  9.000E+00
      25     1     1     2     0     0 -9.206505413E+01 -2.450216247E+02 -6.207618966E+01  2.966311246E+02  1.250000000E+02  0.00000E+00  9.000E+00
      25     1     1     2     0     0  1.763218867E+02  2.456442066E+02  1.643355672E+02  3.661443193E+02  1.250000000E+02  0.00000E+00  9.000E+00
      21     1     1     2   511   501 -8.425683256E+01 -6.225818874E-01 -3.060128222E+02  3.174010850E+02  5.394796609E-06  0.00000E+00  9.000E+00
#rwgt            1           1   2.5514078579278211E-002           9      229907           0
</event>
<event>
      5   9999  3.19816E-02  4.93867E+01 -1.00000E+00  1.39382E-01
      21    -1     0     0   502   501  0.000000000E+00  0.000000000E+00  9.000767189E+01  9.000767189E+01  0.000000000E+00  0.00000E+00  9.000E+00
      21    -1     0     0   501   512  0.000000000E+00  0.000000000E+00 -1.075521437E+03  1.075521437E+03  0.000000000E+00  0.00000E+00  9.000E+00
      25     1     1     2     0     0 -8.093985786E-01 -2.203108127E+02 -3.769562387E+02  4.541569280E+02  1.250000000E+02  0.00000E+00  9.000E+00
      25     1     1     2     0     0 -3.084484873E+01  1.824023201E+02 -1.997065134E+02  2.995491655E+02  1.250000000E+02  0.00000E+00  9.000E+00
      21     1     1     2   502   512  3.165424731E+01  3.790849264E+01 -4.088510129E+02  4.118230153E+02  5.394796609E-06  0.00000E+00  9.000E+00
#rwgt            1           1   3.2241128896866568E-002           9      229981           0
</event>
<event>
      5   9999  3.19816E-02  3.50989E+01 -1.00000E+00  1.48451E-01
      21    -1     0     0   502   511  0.000000000E+00  0.000000000E+00  3.593810229E+02  3.593810229E+02  0.000000000E+00  0.00000E+00  9.000E+00
      21    -1     0     0   501   502  0.000000000E+00  0.000000000E+00 -2.402625938E+02  2.402625938E+02  0.000000000E+00  0.00000E+00  9.000E+00
      25     1     1     2     0     0  1.857320605E+01 -6.484773624E+01 -1.847438095E+02  2.330353365E+02  1.250000000E+02  0.00000E+00  9.000E+00
      25     1     1     2     0     0 -4.992204682E+01  8.063326179E+01  2.882634077E+02  3.281992168E+02  1.250000000E+02  0.00000E+00  9.000E+00
      21     1     1     2   501   511  3.134884077E+01 -1.578552556E+01  1.559883086E+01  3.840906350E+01  7.907449699E-07  0.00000E+00  9.000E+00
#rwgt            1           1   2.6094667178335473E-002           9      230055           0
</event>
<event>
      5   9999  3.19816E-02  7.14706E+01 -1.00000E+00  1.30765E-01
      21    -1     0     0   502   501  0.000000000E+00  0.000000000E+00  2.351392633E+02  2.351392633E+02  0.000000000E+00  0.00000E+00  9.000E+00
       2    -1     0     0   501     0  0.000000000E+00  0.000000000E+00 -2.583777001E+03  2.583777001E+03  0.000000000E+00  0.00000E+00  9.000E+00
      25     1     1     2     0     0 -5.691185604E+02  7.709953039E+01 -8.376334651E+02  1.023276647E+03  1.250000000E+02  0.00000E+00  9.000E+00
      25     1     1     2     0     0  4.979827027E+02 -8.400859068E+01 -3.378979237E+02  6.203581404E+02  1.250000000E+02  0.00000E+00  9.000E+00
       2     1     1     2   502     0  7.113585771E+01  6.909060288E+00 -1.173106349E+03  1.175281478E+03  0.000000000E+00  0.00000E+00  9.000E+00
#rwgt            1           1   2.8965529480527316E-002           9      230163           0
</event>
<event>
      5   9999  3.19816E-02  2.17035E+02 -1.00000E+00  1.10371E-01
      21    -1     0     0   502   511  0.000000000E+00  0.000000000E+00  1.734601971E+02  1.734601971E+02  0.000000000E+00  0.00000E+00  9.000E+00
      21    -1     0     0   501   502  0.000000000E+00  0.000000000E+00 -1.854035691E+03  1.854035691E+03  0.000000000E+00  0.00000E+00  9.000E+00
      25     1     1     2     0     0  2.865984647E+02  3.844104729E+01 -7.822516940E+02  8.433025002E+02  1.250000000E+02  0.00000E+00  9.000E+00
      25     1     1     2     0     0 -4.665638992E+02 -1.597526993E+02 -7.949246655E+02  9.437865334E+02  1.250000000E+02  0.00000E+00  9.000E+00
      21     1     1     2   501   511  1.799654345E+02  1.213116520E+02 -1.033991340E+02  2.404068539E+02  4.473129043E-06  0.00000E+00  9.000E+00
#rwgt            2          11   4.0963904345762258E-003           9      230265           0
</event>
<event>
      5   9999  3.19816E-02  9.48110E+01 -1.00000E+00  1.24878E-01
       2    -1     0     0   502     0  0.000000000E+00  0.000000000E+00  2.834269784E+02  2.834269784E+02  0.000000000E+00  0.00000E+00  9.000E+00
      21    -1     0     0   501   502  0.000000000E+00  0.000000000E+00 -4.270142995E+02  4.270142995E+02  0.000000000E+00  0.00000E+00  9.000E+00
      25     1     1     2     0     0  1.140179595E+02  3.875178506E+01 -3.552608272E+01  1.771691240E+02  1.250000000E+02  0.00000E+00  9.000E+00
      25     1     1     2     0     0 -2.083395743E+01 -2.126284524E+01 -2.960470154E+02  3.227305342E+02  1.250000000E+02  0.00000E+00  9.000E+00
       2     1     1     2   501     0 -9.318400205E+01 -1.748893982E+01  1.879857770E+02  2.105416197E+02  3.814697266E-06  0.00000E+00  9.000E+00
#rwgt            1           1   2.8761772201148419E-002           9      230285           0
</event>
<event>
      5   9999  3.19816E-02  1.26945E+02 -1.00000E+00  1.19340E-01
      21    -1     0     0   502   501  0.000000000E+00  0.000000000E+00  2.027249011E+02  2.027249011E+02  0.000000000E+00  0.00000E+00  9.000E+00
      21    -1     0     0   501   511  0.000000000E+00  0.000000000E+00 -5.691452717E+02  5.691452717E+02  0.000000000E+00  0.00000E+00  9.000E+00
      25     1     1     2     0     0  1.038328183E+02  3.274195796E+01 -7.469593084E+01  1.818179641E+02  1.250000000E+02  0.00000E+00  9.000E+00
      25     1     1     2     0     0 -1.258002349E+02 -1.577721754E+02  3.462846713E+01  2.398789052E+02  1.250000000E+02  0.00000E+00  9.000E+00
      21     1     1     2   502   511  2.196741655E+01  1.250302175E+02 -3.263529069E+02  3.501733035E+02  0.000000000E+00  0.00000E+00  9.000E+00
#rwgt            1           1   2.7778317850902023E-002           9      230338           0
</event>
<event>
      5   9999  3.19816E-02  6.60897E+01 -1.00000E+00  1.32498E-01
      21    -1     0     0   502   512  0.000000000E+00  0.000000000E+00  3.512546574E+02  3.512546574E+02  0.000000000E+00  0.00000E+00  9.000E+00
      21    -1     0     0   501   502  0.000000000E+00  0.000000000E+00 -4.431485818E+02  4.431485818E+02  0.000000000E+00  0.00000E+00  9.000E+00
      25     1     1     2     0     0 -1.076161040E+02 -4.498518054E+01  2.382601143E+02  2.932537713E+02  1.250000000E+02  0.00000E+00  9.000E+00
      25     1     1     2     0     0  1.258692881E+02  1.085042049E+02 -3.696731148E+02  4.241455552E+02  1.250000000E+02  0.00000E+00  9.000E+00
      21     1     1     2   501   512 -1.825318404E+01 -6.351902439E+01  3.951907615E+01  7.700391267E+01  9.536743164E-07  0.00000E+00  9.000E+00
#rwgt            1           1   2.6074672753162872E-002           9      230382           0
</event>
<event>
      5   9999  3.19816E-02  1.13660E+02 -1.00000E+00  1.21377E-01
      21    -1     0     0   502   501  0.000000000E+00  0.000000000E+00  3.602616256E+02  3.602616256E+02  0.000000000E+00  0.00000E+00  9.000E+00
       1    -1     0     0   501     0  0.000000000E+00  0.000000000E+00 -1.384722319E+03  1.384722319E+03  0.000000000E+00  0.00000E+00  9.000E+00
      25     1     1     2     0     0  9.688389340E+01  2.480713377E+01 -2.292110768E+02  2.795793276E+02  1.250000000E+02  0.00000E+00  9.000E+00
      25     1     1     2     0     0 -6.804121792E+00  4.450616737E+01  3.189014384E+02  3.454710153E+02  1.250000000E+02  0.00000E+00  9.000E+00
       1     1     1     2   502     0 -9.007977161E+01 -6.931330114E+01 -1.114151055E+03  1.119933602E+03  0.000000000E+00  0.00000E+00  9.000E+00
#rwgt            1           1   2.8018607704455981E-002           9      230468           0
</event>
<event>
      5   9999  3.19816E-02  6.30740E+01 -1.00000E+00  1.33554E-01
       1    -1     0     0   502     0  0.000000000E+00  0.000000000E+00  3.620525271E+02  3.620525271E+02  0.000000000E+00  0.00000E+00  9.000E+00
      21    -1     0     0   501   502  0.000000000E+00  0.000000000E+00 -9.117301714E+02  9.117301714E+02  0.000000000E+00  0.00000E+00  9.000E+00
      25     1     1     2     0     0  3.248951813E+02 -3.376936872E+01 -6.275944755E+02  7.184685621E+02  1.250000000E+02  0.00000E+00  9.000E+00
      25     1     1     2     0     0 -2.780589792E+02  7.601514433E+01 -1.285125590E+02  3.394636591E+02  1.250000000E+02  0.00000E+00  9.000E+00
       1     1     1     2   501     0 -4.683620218E+01 -4.224577561E+01  2.064293902E+02  2.158504773E+02  5.394796609E-06  0.00000E+00  9.000E+00
#rwgt            1           1   2.9746458687034273E-002           9      230507           0
</event>
<event>
      5   9999  3.19816E-02  2.52316E+01 -1.00000E+00  1.58451E-01
      21    -1     0     0   502   501  0.000000000E+00  0.000000000E+00  5.176261678E+02  5.176261678E+02  0.000000000E+00  0.00000E+00  9.000E+00
      21    -1     0     0   501   511  0.000000000E+00  0.000000000E+00 -2.234536470E+02  2.234536470E+02  0.000000000E+00  0.00000E+00  9.000E+00
      25     1     1     2     0     0 -6.226576578E+01 -7.524801928E+01 -1.009973221E+02  1.880551756E+02  1.250000000E+02  0.00000E+00  9.000E+00
      25     1     1     2     0     0  3.725202333E+01  7.193916192E+01  4.599688147E+02  4.834865735E+02  1.250000000E+02  0.00000E+00  9.000E+00
      21     1     1     2   502   511  2.501374246E+01  3.308857359E+00 -6.479897180E+01  6.953806579E+01  1.348699152E-06  0.00000E+00  9.000E+00
#rwgt            1           1   3.5201185031830347E-002           9      230582           0
</event>
<event>
      5   9999  3.19816E-02  2.78677E+01 -1.00000E+00  1.55298E-01
      21    -1     0     0   502   501  0.000000000E+00  0.000000000E+00  9.486266274E+01  9.486266274E+01  0.000000000E+00  0.00000E+00  9.000E+00
      -1    -1     0     0     0   502  0.000000000E+00  0.000000000E+00 -3.536466589E+02  3.536466589E+02  0.000000000E+00  0.00000E+00  9.000E+00
      25     1     1     2     0     0 -8.957430639E+01 -7.165896303E+01 -1.629180672E+02  2.352144978E+02  1.250000000E+02  0.00000E+00  9.000E+00
      25     1     1     2     0     0  9.094834119E+01  4.382511545E+01 -6.996559896E+01  1.752496121E+02  1.250000000E+02  0.00000E+00  9.000E+00
      -1     1     1     2     0   501 -1.374034801E+00  2.783384758E+01 -2.590033001E+01  3.804521175E+01  0.000000000E+00  0.00000E+00  9.000E+00
#rwgt            1           1   2.7508467594042605E-002           9      230790           0
</event>
<event>
      5   9999  3.19816E-02  7.38275E+01 -1.00000E+00  1.30060E-01
      21    -1     0     0   502   501  0.000000000E+00  0.000000000E+00  3.277918683E+02  3.277918683E+02  0.000000000E+00  0.00000E+00  9.000E+00
      21    -1     0     0   501   511  0.000000000E+00  0.000000000E+00 -1.522685871E+03  1.522685871E+03  0.000000000E+00  0.00000E+00  9.000E+00
      25     1     1     2     0     0  6.252323090E+01 -1.376964312E+02  7.243110823E-02  1.962000683E+02  1.250000000E+02  0.00000E+00  9.000E+00
      25     1     1     2     0     0 -9.151215690E+01  2.055944135E+02  1.561909073E+02  3.011048609E+02  1.250000000E+02  0.00000E+00  9.000E+00
      21     1     1     2   502   511  2.898892599E+01 -6.789798232E+01 -1.351157341E+03  1.353172810E+03  2.157918644E-05  0.00000E+00  9.000E+00
#rwgt            1           1   2.8033911978998679E-002           9      230920           0
</event>
<event>
      5   9999  3.19816E-02  2.12767E+02 -1.00000E+00  1.10678E-01
      21    -1     0     0   512   501  0.000000000E+00  0.000000000E+00  1.235989800E+03  1.235989800E+03  0.000000000E+00  0.00000E+00  9.000E+00
      21    -1     0     0   501   502  0.000000000E+00  0.000000000E+00 -1.714489886E+02  1.714489886E+02  0.000000000E+00  0.00000E+00  9.000E+00
      25     1     1     2     0     0 -2.203912088E+02  2.675828869E+02  1.770253155E+02  4.088225148E+02  1.250000000E+02  0.00000E+00  9.000E+00
      25     1     1     2     0     0  8.479294383E+01 -1.036227105E+02  1.688771771E+02  2.491425504E+02  1.250000000E+02  0.00000E+00  9.000E+00
      21     1     1     2   512   502  1.355982650E+02 -1.639601764E+02  7.186383184E+02  7.494737231E+02  7.629394531E-06  0.00000E+00  9.000E+00
#rwgt            1           1   3.0588748934826396E-002           9      230980           0
</event>
<event>
      5   9999  3.19816E-02  2.66670E+01 -1.00000E+00  1.56679E-01
      21    -1     0     0   502   501  0.000000000E+00  0.000000000E+00  1.606004234E+02  1.606004234E+02  0.000000000E+00  0.00000E+00  9.000E+00
      21    -1     0     0   511   502  0.000000000E+00  0.000000000E+00 -1.491537540E+03  1.491537540E+03  0.000000000E+00  0.00000E+00  9.000E+00
      25     1     1     2     0     0 -1.503486803E+02  3.987833717E+02 -9.519601742E+02  1.050469455E+03  1.250000000E+02  0.00000E+00  9.000E+00
      25     1     1     2     0     0  1.241768395E+02 -3.936683792E+02 -3.203314792E+02  5.372447644E+02  1.250000000E+02  0.00000E+00  9.000E+00
      21     1     1     2   511   501  2.617184079E+01 -5.114992518E+00 -5.864546304E+01  6.442374356E+01  0.000000000E+00  0.00000E+00  9.000E+00
#rwgt            1           1   3.0233626663588711E-002           9      231022           0
</event>
<event>
      5   9999  3.19816E-02  5.38801E+01 -1.00000E+00  1.37249E-01
      21    -1     0     0   502   501  0.000000000E+00  0.000000000E+00  2.495199566E+03  2.495199566E+03  0.000000000E+00  0.00000E+00  9.000E+00
      21    -1     0     0   512   502  0.000000000E+00  0.000000000E+00 -4.805635394E+02  4.805635394E+02  0.000000000E+00  0.00000E+00  9.000E+00
      25     1     1     2     0     0  5.565759531E+02  7.164706505E+02  1.458452655E+03  1.722154502E+03  1.250000000E+02  0.00000E+00  9.000E+00
      25     1     1     2     0     0 -6.099319664E+02 -7.239670955E+02  6.431772377E+02  1.151280729E+03  1.250000000E+02  0.00000E+00  9.000E+00
      21     1     1     2   512   501  5.335601334E+01  7.496445028E+00 -8.699386619E+01  1.023278730E+02  0.000000000E+00  0.00000E+00  9.000E+00
#rwgt            1           1   2.8412452273185739E-002           9      231174           0
</event>
<event>
      5   9999  3.19816E-02  1.64587E+02 -1.00000E+00  1.14818E-01
      21    -1     0     0   502   501  0.000000000E+00  0.000000000E+00  1.481006501E+03  1.481006501E+03  0.000000000E+00  0.00000E+00  9.000E+00
      21    -1     0     0   511   502  0.000000000E+00  0.000000000E+00 -1.148271749E+03  1.148271749E+03  0.000000000E+00  0.00000E+00  9.000E+00
      25     1     1     2     0     0 -5.317514896E+02  3.180079079E+02  7.870487961E+02  1.009435230E+03  1.250000000E+02  0.00000E+00  9.000E+00
      25     1     1     2     0     0  6.647502843E+02 -2.210530465E+02  3.541039415E+02  7.948408590E+02  1.250000000E+02  0.00000E+00  9.000E+00
      21     1     1     2   511   501 -1.329987947E+02 -9.695486143E+01 -8.084179860E+02  8.250021604E+02  0.000000000E+00  0.00000E+00  9.000E+00
#rwgt            1           1   3.0657017974894646E-002           9      231370           0
</event>
<event>
      5   9999  3.19816E-02  1.03004E+02 -1.00000E+00  1.23253E-01
      21    -1     0     0   502   501  0.000000000E+00  0.000000000E+00  8.014042143E+02  8.014042143E+02  0.000000000E+00  0.00000E+00  9.000E+00
      21    -1     0     0   512   502  0.000000000E+00  0.000000000E+00 -1.002144555E+02  1.002144555E+02  0.000000000E+00  0.00000E+00  9.000E+00
      25     1     1     2     0     0 -1.179251535E+02 -7.907739596E+01  1.462319898E+02  2.390990824E+02  1.250000000E+02  0.00000E+00  9.000E+00
      25     1     1     2     0     0  1.905579433E+02  6.041604970E+00  4.908131932E+02  5.411759616E+02  1.250000000E+02  0.00000E+00  9.000E+00
      21     1     1     2   512   501 -7.263278981E+01  7.303579099E+01  6.414457579E+01  1.213436258E+02  2.523185073E-06  0.00000E+00  9.000E+00
#rwgt            1           1   3.0398136906952460E-002           9      231454           0
</event>
<event>
      5   9999  3.19816E-02  4.79028E+01 -1.00000E+00  1.40146E-01
       1    -1     0     0   502     0  0.000000000E+00  0.000000000E+00  5.886051301E+02  5.886051301E+02  0.000000000E+00  0.00000E+00  9.000E+00
      21    -1     0     0   501   502  0.000000000E+00  0.000000000E+00 -2.347816761E+02  2.347816761E+02  0.000000000E+00  0.00000E+00  9.000E+00
      25     1     1     2     0     0  1.311688387E+02  5.072246449E+01 -9.700479637E+01  2.116907253E+02  1.250000000E+02  0.00000E+00  9.000E+00
      25     1     1     2     0     0 -1.488154973E+02 -9.525637619E+01  6.942822166E+01  2.272995984E+02  1.250000000E+02  0.00000E+00  9.000E+00
       1     1     1     2   501     0  1.764665863E+01  4.453391171E+01  3.814000287E+02  3.843964825E+02  0.000000000E+00  0.00000E+00  9.000E+00
#rwgt            1           1   2.5924079075107562E-002           9      231508           0
</event>
<event>
      5   9999  3.19816E-02  1.98818E+02 -1.00000E+00  1.11742E-01
      21    -1     0     0   502   511  0.000000000E+00  0.000000000E+00  5.158897315E+02  5.158897315E+02  0.000000000E+00  0.00000E+00  9.000E+00
      21    -1     0     0   501   502  0.000000000E+00  0.000000000E+00 -3.010267467E+02  3.010267467E+02  0.000000000E+00  0.00000E+00  9.000E+00
      25     1     1     2     0     0 -3.420229132E+01 -1.416532519E+02 -1.925116230E+02  2.718844708E+02  1.250000000E+02  0.00000E+00  9.000E+00
      25     1     1     2     0     0  9.173582972E+01 -4.865803862E+01  1.657213497E+02  2.321026345E+02  1.250000000E+02  0.00000E+00  9.000E+00
      21     1     1     2   501   511 -5.753353840E+01  1.903112905E+02  2.416532581E+02  3.129293730E+02  5.394796609E-06  0.00000E+00  9.000E+00
#rwgt            1           1   2.9006462080172796E-002           9      231616           0
</event>
<event>
      5   9999  3.19816E-02  3.58203E+01 -1.00000E+00  1.47877E-01
       2    -1     0     0   502     0  0.000000000E+00  0.000000000E+00  2.374559353E+03  2.374559353E+03  0.000000000E+00  0.00000E+00  9.000E+00
      21    -1     0     0   501   502  0.000000000E+00  0.000000000E+00 -4.677486496E+02  4.677486496E+02  0.000000000E+00  0.00000E+00  9.000E+00
      25     1     1     2     0     0 -4.318047981E+02  2.817281534E+02 -1.808273477E+02  5.604905582E+02  1.250000000E+02  0.00000E+00  9.000E+00
      25     1     1     2     0     0  4.323777990E+02 -2.459124516E+02  5.819463225E+02  7.756996952E+02  1.250000000E+02  0.00000E+00  9.000E+00
       2     1     1     2   501     0 -5.730008716E-01 -3.581570182E+01  1.505691729E+03  1.506117749E+03  2.157918644E-05  0.00000E+00  9.000E+00
#rwgt            1           1   3.0287902986867867E-002           9      231683           0
</event>
<event>
      5   9999  3.19816E-02  2.32923E+01 -1.00000E+00  1.61087E-01
      21    -1     0     0   502   501  0.000000000E+00  0.000000000E+00  3.070382504E+02  3.070382504E+02  0.000000000E+00  0.00000E+00  9.000E+00
      21    -1     0     0   501   511  0.000000000E+00  0.000000000E+00 -1.087720726E+03  1.087720726E+03  0.000000000E+00  0.00000E+00  9.000E+00
      25     1     1     2     0     0 -9.240097006E+01 -1.424364503E+01  2.753334082E+02  3.165032486E+02  1.250000000E+02  0.00000E+00  9.000E+00
      25     1     1     2     0     0  1.138219607E+02  5.096400232E+00 -6.523726883E+02  6.739410482E+02  1.250000000E+02  0.00000E+00  9.000E+00
      21     1     1     2   502   511 -2.142099069E+01  9.147244802E+00 -4.036431958E+02  4.043146800E+02  5.394796609E-06  0.00000E+00  9.000E+00
#rwgt            1           1   2.7148481840075886E-002           9      231851           0
</event>
<event>
      5   9999  3.19816E-02  5.32310E+01 -1.00000E+00  1.37541E-01
      21    -1     0     0   502   512  0.000000000E+00  0.000000000E+00  4.275456836E+01  4.275456836E+01  0.000000000E+00  0.00000E+00  9.000E+00
      21    -1     0     0   501   502  0.000000000E+00  0.000000000E+00 -1.532218497E+03  1.532218497E+03  0.000000000E+00  0.00000E+00  9.000E+00
      25     1     1     2     0     0 -1.168877887E+02 -1.078380678E+02 -3.637847710E+02  4.162405118E+02  1.250000000E+02  0.00000E+00  9.000E+00
      25     1     1     2     0     0  9.693745841E+01  5.848706420E+01 -1.063898165E+03  1.077182396E+03  1.250000000E+02  0.00000E+00  9.000E+00
      21     1     1     2   501   512  1.995033029E+01  4.935100360E+01 -6.178099233E+01  8.155015787E+01  1.651812370E-06  0.00000E+00  9.000E+00
#rwgt            1           1   3.0517924245430837E-002           9      232009           0
</event>
<event>
      5   9999  3.19816E-02  6.07777E+01 -1.00000E+00  1.34405E-01
      21    -1     0     0   502   501  0.000000000E+00  0.000000000E+00  9.272960673E+01  9.272960673E+01  0.000000000E+00  0.00000E+00  9.000E+00
       2    -1     0     0   501     0  0.000000000E+00  0.000000000E+00 -9.912200418E+02  9.912200418E+02  0.000000000E+00  0.00000E+00  9.000E+00
      25     1     1     2     0     0 -1.244630850E+02  1.717762494E+02 -2.031932122E+02  3.192344293E+02  1.250000000E+02  0.00000E+00  9.000E+00
      25     1     1     2     0     0  6.388705018E+01 -1.767229765E+02 -3.670343105E+02  4.308732420E+02  1.250000000E+02  0.00000E+00  9.000E+00
       2     1     1     2   502     0  6.057603481E+01  4.946727077E+00 -3.282629123E+02  3.338419771E+02  6.607249480E-06  0.00000E+00  9.000E+00
#rwgt            1           1   2.5182945720949715E-002           9      232105           0
</event>
<event>
      5   9999  3.19816E-02  1.22334E+02 -1.00000E+00  1.20014E-01
      21    -1     0     0   502   501  0.000000000E+00  0.000000000E+00  3.206579165E+02  3.206579165E+02  0.000000000E+00  0.00000E+00  9.000E+00
      21    -1     0     0   501   511  0.000000000E+00  0.000000000E+00 -7.516435924E+02  7.516435924E+02  0.000000000E+00  0.00000E+00  9.000E+00
      25     1     1     2     0     0  1.997260196E+02 -8.825228703E+01  2.352597396E+02  3.444576812E+02  1.250000000E+02  0.00000E+00  9.000E+00
      25     1     1     2     0     0 -1.161800302E+02 -1.110748435E+00 -3.946867490E+02  4.300019338E+02  1.250000000E+02  0.00000E+00  9.000E+00
      21     1     1     2   502   511 -8.354598934E+01  8.936303547E+01 -2.715586665E+02  2.978418939E+02  0.000000000E+00  0.00000E+00  9.000E+00
#rwgt            1           1   2.5355826479359671E-002           9      232146           0
</event>
<event>
      5   9999  3.19816E-02  8.25447E+01 -1.00000E+00  1.27695E-01
      21    -1     0     0   502   501  0.000000000E+00  0.000000000E+00  8.940254721E+02  8.940254721E+02  0.000000000E+00  0.00000E+00  9.000E+00
      21    -1     0     0   512   502  0.000000000E+00  0.000000000E+00 -9.029580279E+02  9.029580279E+02  0.000000000E+00  0.00000E+00  9.000E+00
      25     1     1     2     0     0 -6.720381141E+02  1.396424122E+01  4.800313772E+02  8.353953255E+02  1.250000000E+02  0.00000E+00  9.000E+00
      25     1     1     2     0     0  7.180640178E+02 -8.248606749E+01 -4.841786246E+02  8.789049013E+02  1.250000000E+02  0.00000E+00  9.000E+00
      21     1     1     2   512   501 -4.602590378E+01  6.852182627E+01 -4.785308419E+00  8.268327322E+01  5.022376641E-07  0.00000E+00  9.000E+00
#rwgt            1           1   3.5457173906033812E-002           9      232252           0
</event>
<event>
      5   9999  3.19816E-02  2.43760E+02 -1.00000E+00  1.08607E-01
      21    -1     0     0   502   501  0.000000000E+00  0.000000000E+00  2.498810052E+02  2.498810052E+02  0.000000000E+00  0.00000E+00  9.000E+00
       2    -1     0     0   501     0  0.000000000E+00  0.000000000E+00 -5.465732624E+02  5.465732624E+02  0.000000000E+00  0.00000E+00  9.000E+00
      25     1     1     2     0     0 -1.276668716E+02 -2.238633899E+02 -6.718571788E+01  2.941981783E+02  1.250000000E+02  0.00000E+00  9.000E+00
      25     1     1     2     0     0 -9.623950581E+01  1.275050031E+02 -9.773926041E+01  2.251611230E+02  1.250000000E+02  0.00000E+00  9.000E+00
       2     1     1     2   502     0  2.239063774E+02  9.635838679E+01 -1.317672789E+02  2.770949663E+02  3.814697266E-06  0.00000E+00  9.000E+00
#rwgt            2          13   3.1119454497399095E-004           9      232678           0
</event>
<event>
      5   9999  3.19816E-02  2.77760E+01 -1.00000E+00  1.55400E-01
      21    -1     0     0   511   501  0.000000000E+00  0.000000000E+00  3.725687147E+02  3.725687147E+02  0.000000000E+00  0.00000E+00  9.000E+00
      21    -1     0     0   501   502  0.000000000E+00  0.000000000E+00 -1.877565285E+02  1.877565285E+02  0.000000000E+00  0.00000E+00  9.000E+00
      25     1     1     2     0     0  5.129452369E+01  9.154865763E+01  3.241365684E+00  1.632415123E+02  1.250000000E+02  0.00000E+00  9.000E+00
      25     1     1     2     0     0 -3.416722481E+01 -1.134155477E+02 -3.751300878E+01  1.762461674E+02  1.250000000E+02  0.00000E+00  9.000E+00
      21     1     1     2   511   502 -1.712729888E+01  2.186689003E+01  2.190838293E+02  2.208375636E+02  0.000000000E+00  0.00000E+00  9.000E+00
#rwgt            1           1   2.8028669198275531E-002           9      232712           0
</event>
<event>
      5   9999  3.19816E-02  2.58756E+02 -1.00000E+00  1.07722E-01
      21    -1     0     0   512   501  0.000000000E+00  0.000000000E+00  1.332566573E+02  1.332566573E+02  0.000000000E+00  0.00000E+00  9.000E+00
      21    -1     0     0   501   502  0.000000000E+00  0.000000000E+00 -1.355223429E+03  1.355223429E+03  0.000000000E+00  0.00000E+00  9.000E+00
      25     1     1     2     0     0  1.564512760E+02  1.188145508E+02 -9.532657746E+02  9.812922787E+02  1.250000000E+02  0.00000E+00  9.000E+00
      25     1     1     2     0     0 -6.807110595E+00  9.228112036E+01 -1.695786618E+02  2.300957724E+02  1.250000000E+02  0.00000E+00  9.000E+00
      21     1     1     2   512   502 -1.496441654E+02 -2.110956712E+02 -9.912233526E+01  2.770920352E+02  1.348699152E-06  0.00000E+00  9.000E+00
#rwgt            2          11   5.7665037471238073E-003           9      232882           0
</event>
<event>
      5   9999  3.19816E-02  1.97276E+02 -1.00000E+00  1.11865E-01
      21    -1     0     0   511   501  0.000000000E+00  0.000000000E+00  9.143570496E+02  9.143570496E+02  0.000000000E+00  0.00000E+00  9.000E+00
      21    -1     0     0   501   502  0.000000000E+00  0.000000000E+00 -9.345731963E+01  9.345731963E+01  0.000000000E+00  0.00000E+00  9.000E+00
      25     1     1     2     0     0 -4.741449337E+01  3.004685875E+01  1.059560164E+02  1.732126592E+02  1.250000000E+02  0.00000E+00  9.000E+00
      25     1     1     2     0     0 -8.637886629E+01 -1.750200316E+02  3.507364999E+02  4.203979215E+02  1.250000000E+02  0.00000E+00  9.000E+00
      21     1     1     2   511   502  1.337933597E+02  1.449731729E+02  3.642072138E+02  4.142037886E+02  5.394796609E-06  0.00000E+00  9.000E+00
#rwgt            1           1   2.4254367851112318E-002           9      232932           0
</event>
<event>
      5   9999  3.19816E-02  6.05354E+01 -1.00000E+00  1.34498E-01
      21    -1     0     0   512   501  0.000000000E+00  0.000000000E+00  6.857367005E+02  6.857367005E+02  0.000000000E+00  0.00000E+00  9.000E+00
      21    -1     0     0   501   502  0.000000000E+00  0.000000000E+00 -3.888244392E+02  3.888244392E+02  0.000000000E+00  0.00000E+00  9.000E+00
      25     1     1     2     0     0 -2.520114360E+02  3.035161472E+02 -1.426900599E+02  4.377410978E+02  1.250000000E+02  0.00000E+00  9.000E+00
      25     1     1     2     0     0  1.951195389E+02 -3.242005002E+02  3.990735180E+02  5.639700981E+02  1.250000000E+02  0.00000E+00  9.000E+00
      21     1     1     2   512   502  5.689189714E+01  2.068435302E+01  4.052880323E+01  7.284994380E+01  4.768371582E-07  0.00000E+00  9.000E+00
#rwgt            1           1   2.7766603093769888E-002           9      232984           0
</event>
<event>
      5   9999  3.19816E-02  5.00237E+01 -1.00000E+00  1.39064E-01
      21    -1     0     0   511   501  0.000000000E+00  0.000000000E+00  2.375992930E+02  2.375992930E+02  0.000000000E+00  0.00000E+00  9.000E+00
      21    -1     0     0   501   502  0.000000000E+00  0.000000000E+00 -4.524119335E+02  4.524119335E+02  0.000000000E+00  0.00000E+00  9.000E+00
      25     1     1     2     0     0  1.976197687E+02  1.022810183E+02 -3.088389629E+02  4.006513256E+02  1.250000000E+02  0.00000E+00  9.000E+00
      25     1     1     2     0     0 -1.476218729E+02 -1.006756948E+02  5.237860789E+01  2.242684361E+02  1.250000000E+02  0.00000E+00  9.000E+00
      21     1     1     2   511   502 -4.999789584E+01 -1.605323475E+00  4.164771458E+01  6.509146474E+01  1.261592536E-06  0.00000E+00  9.000E+00
#rwgt            1           1   2.8588503727631314E-002           9      233063           0
</event>
<event>
      5   9999  3.19816E-02  1.73852E+01 -1.00000E+00  1.71551E-01
      21    -1     0     0   512   501  0.000000000E+00  0.000000000E+00  1.042539678E+03  1.042539678E+03  0.000000000E+00  0.00000E+00  9.000E+00
      21    -1     0     0   501   502  0.000000000E+00  0.000000000E+00 -5.689827429E+02  5.689827429E+02  0.000000000E+00  0.00000E+00  9.000E+00
      25     1     1     2     0     0 -1.215114744E+02 -1.566693699E+02 -5.236881567E+02  5.737461244E+02  1.250000000E+02  0.00000E+00  9.000E+00
      25     1     1     2     0     0  1.385094030E+02  1.603182349E+02  9.878450244E+02  1.018012565E+03  1.250000000E+02  0.00000E+00  9.000E+00
      21     1     1     2   512   502 -1.699792860E+01 -3.648864970E+00  9.400067000E+00  1.976373071E+01  3.371747881E-07  0.00000E+00  9.000E+00
#rwgt            1           1   3.1297647284068156E-002           9      233155           0
</event>
<event>
      5   9999  3.19816E-02  3.66413E+01 -1.00000E+00  1.47243E-01
      21    -1     0     0   511   501  0.000000000E+00  0.000000000E+00  5.352179623E+02  5.352179623E+02  0.000000000E+00  0.00000E+00  9.000E+00
      21    -1     0     0   501   502  0.000000000E+00  0.000000000E+00 -1.140375803E+02  1.140375803E+02  0.000000000E+00  0.00000E+00  9.000E+00
      25     1     1     2     0     0 -1.481197513E+02  2.348643978E+01  1.817019332E+02  2.667052045E+02  1.250000000E+02  0.00000E+00  9.000E+00
      25     1     1     2     0     0  1.265693502E+02  6.147464228E+00  4.357838469E+01  1.832530145E+02  1.250000000E+02  0.00000E+00  9.000E+00
      21     1     1     2   511   502  2.155040108E+01 -2.963390400E+01  1.959000641E+02  1.992973236E+02  2.697398305E-06  0.00000E+00  9.000E+00
#rwgt            1           1   2.5208819288213145E-002           9      233407           0
</event>
<event>
      5   9999  3.19816E-02  3.18098E+01 -1.00000E+00  1.51294E-01
       2    -1     0     0   502     0  0.000000000E+00  0.000000000E+00  2.593816742E+03  2.593816742E+03  0.000000000E+00  0.00000E+00  9.000E+00
      21    -1     0     0   501   502  0.000000000E+00  0.000000000E+00 -4.882158352E+01  4.882158352E+01  0.000000000E+00  0.00000E+00  9.000E+00
      25     1     1     2     0     0  4.366031179E+01  4.877975236E+01  9.866507638E+01  1.721786408E+02  1.250000000E+02  0.00000E+00  9.000E+00
      25     1     1     2     0     0 -2.146675855E+01 -2.599139852E+01  3.388649847E+02  3.627545346E+02  1.250000000E+02  0.00000E+00  9.000E+00
       2     1     1     2   501     0 -2.219355324E+01 -2.278835383E+01  2.107465098E+03  2.107705150E+03  4.315837288E-05  0.00000E+00  9.000E+00
#rwgt            1           1   6.0457464224092886E-002           9      233500           0
</event>
<event>
      5   9999  3.19816E-02  9.90347E+01 -1.00000E+00  1.24018E-01
      21    -1     0     0   502   501  0.000000000E+00  0.000000000E+00  8.142400306E+02  8.142400306E+02  0.000000000E+00  0.00000E+00  9.000E+00
      21    -1     0     0   511   502  0.000000000E+00  0.000000000E+00 -8.961367640E+02  8.961367640E+02  0.000000000E+00  0.00000E+00  9.000E+00
      25     1     1     2     0     0  3.881352977E+00  2.397925218E+02  3.947583019E+02  4.785129417E+02  1.250000000E+02  0.00000E+00  9.000E+00
      25     1     1     2     0     0 -7.098124714E+01 -3.126311934E+02  2.953892756E+02  4.534935774E+02  1.250000000E+02  0.00000E+00  9.000E+00
      21     1     1     2   511   501  6.709989417E+01  7.283867162E+01 -7.720443109E+02  7.783702756E+02  0.000000000E+00  0.00000E+00  9.000E+00
#rwgt            1           1   3.2691806625267210E-002           9      233561           0
</event>
<event>
      5   9999  3.19816E-02  8.48514E+00 -1.00000E+00  2.04383E-01
      21    -1     0     0   502   512  0.000000000E+00  0.000000000E+00  2.355652917E+02  2.355652917E+02  0.000000000E+00  0.00000E+00  9.000E+00
      21    -1     0     0   501   502  0.000000000E+00  0.000000000E+00 -8.379575711E+02  8.379575711E+02  0.000000000E+00  0.00000E+00  9.000E+00
      25     1     1     2     0     0 -2.883762532E+02  1.155559354E+02 -3.045517804E+02  4.526486768E+02  1.250000000E+02  0.00000E+00  9.000E+00
      25     1     1     2     0     0  2.807763168E+02 -1.193293451E+02 -4.000001504E+02  5.183627620E+02  1.250000000E+02  0.00000E+00  9.000E+00
      21     1     1     2   501   512  7.599936441E+00  3.773409669E+00  1.021596515E+02  1.025114240E+02  0.000000000E+00  0.00000E+00  9.000E+00
#rwgt            1           1   2.7956300337017164E-002           9      233622           0
</event>
<event>
      5   9999  3.19816E-02  3.19235E+01 -1.00000E+00  1.51189E-01
      21    -1     0     0   511   501  0.000000000E+00  0.000000000E+00  1.020339910E+03  1.020339910E+03  0.000000000E+00  0.00000E+00  9.000E+00
      21    -1     0     0   501   502  0.000000000E+00  0.000000000E+00 -1.206335682E+02  1.206335682E+02  0.000000000E+00  0.00000E+00  9.000E+00
      25     1     1     2     0     0 -4.626143497E+01 -1.369535786E+02  3.652936243E+02  4.122630653E+02  1.250000000E+02  0.00000E+00  9.000E+00
      25     1     1     2     0     0  2.759824614E+01  1.110538053E+02 -2.243605151E+01  1.709473231E+02  1.250000000E+02  0.00000E+00  9.000E+00
      21     1     1     2   511   502  1.866318883E+01  2.589977336E+01  5.568487688E+02  5.577630897E+02  7.629394531E-06  0.00000E+00  9.000E+00
#rwgt            1           1   2.8460661698211882E-002           9      233928           0
</event>
<event>
      5   9999  3.19816E-02  1.70798E+02 -1.00000E+00  1.14202E-01
       2    -1     0     0   502     0  0.000000000E+00  0.000000000E+00  1.454231209E+03  1.454231209E+03  0.000000000E+00  0.00000E+00  9.000E+00
      21    -1     0     0   501   502  0.000000000E+00  0.000000000E+00 -3.503562391E+02  3.503562391E+02  0.000000000E+00  0.00000E+00  9.000E+00
      25     1     1     2     0     0  6.348834784E+01  1.453679084E+01 -2.778506751E+02  3.115575167E+02  1.250000000E+02  0.00000E+00  9.000E+00
      25     1     1     2     0     0 -8.765828918E+01 -1.836158916E+02  2.398633906E+02  3.384644995E+02  1.250000000E+02  0.00000E+00  9.000E+00
       2     1     1     2   501     0  2.416994134E+01  1.690791007E+02  1.141862255E+03  1.154565432E+03  0.000000000E+00  0.00000E+00  9.000E+00
#rwgt            1           1   2.6681494773092011E-002           9      234036           0
</event>
<event>
      5   9999  3.19816E-02  2.94876E+01 -1.00000E+00  1.53561E-01
      21    -1     0     0   502   501  0.000000000E+00  0.000000000E+00  4.563354856E+02  4.563354856E+02  0.000000000E+00  0.00000E+00  9.000E+00
      21    -1     0     0   501   511  0.000000000E+00  0.000000000E+00 -2.014799449E+03  2.014799449E+03  0.000000000E+00  0.00000E+00  9.000E+00
      25     1     1     2     0     0 -5.154826902E+02  1.025313044E+02  2.380835362E+02  5.903760179E+02  1.250000000E+02  0.00000E+00  9.000E+00
      25     1     1     2     0     0  4.963118873E+02 -1.249366936E+02 -1.690951317E+03  1.771122815E+03  1.250000000E+02  0.00000E+00  9.000E+00
      21     1     1     2   502   511  1.917080293E+01  2.240538923E+01 -1.055961826E+02  1.096361024E+02  0.000000000E+00  0.00000E+00  9.000E+00
#rwgt            1           1   2.9257310534148959E-002           9      234090           0
</event>
<event>
      5   9999  3.19816E-02  3.27870E+01 -1.00000E+00  1.50408E-01
      21    -1     0     0   502   512  0.000000000E+00  0.000000000E+00  2.560794140E+02  2.560794140E+02  0.000000000E+00  0.00000E+00  9.000E+00
      21    -1     0     0   501   502  0.000000000E+00  0.000000000E+00 -2.058055314E+02  2.058055314E+02  0.000000000E+00  0.00000E+00  9.000E+00
      25     1     1     2     0     0 -5.474376613E+01 -2.740364996E+00 -1.504506165E+02  2.031373367E+02  1.250000000E+02  0.00000E+00  9.000E+00
      25     1     1     2     0     0  2.592461495E+01  1.837512629E+01  1.731508168E+02  2.159072400E+02  1.250000000E+02  0.00000E+00  9.000E+00
      21     1     1     2   501   512  2.881915118E+01 -1.563476130E+01  2.757368241E+01  4.284036878E+01  0.000000000E+00  0.00000E+00  9.000E+00
#rwgt            1           1   3.1516268180148722E-002           9      234413           0
</event>
<event>
      5   9999  3.19816E-02  4.69323E+01 -1.00000E+00  1.40663E-01
      21    -1     0     0   502   501  0.000000000E+00  0.000000000E+00  2.317763107E+02  2.317763107E+02  0.000000000E+00  0.00000E+00  9.000E+00
      21    -1     0     0   501   511  0.000000000E+00  0.000000000E+00 -3.409691134E+02  3.409691134E+02  0.000000000E+00  0.00000E+00  9.000E+00
      25     1     1     2     0     0  1.402913818E+02  1.886823588E+01  8.740451945E+01  2.080918839E+02  1.250000000E+02  0.00000E+00  9.000E+00
      25     1     1     2     0     0 -1.869185463E+02 -2.421097559E+01 -8.157533706E+01  2.404251441E+02  1.250000000E+02  0.00000E+00  9.000E+00
      21     1     1     2   502   511  4.662716453E+01  5.342739707E+00 -1.150219851E+02  1.242283961E+02  1.907348633E-06  0.00000E+00  9.000E+00
#rwgt            1           1   2.5654192618688905E-002           9      234504           0
</event>
<event>
      5   9999  3.19816E-02  3.78682E+01 -1.00000E+00  1.46331E-01
      21    -1     0     0   502   512  0.000000000E+00  0.000000000E+00  1.286213800E+02  1.286213800E+02  0.000000000E+00  0.00000E+00  9.000E+00
      21    -1     0     0   501   502  0.000000000E+00  0.000000000E+00 -4.088184924E+02  4.088184924E+02  0.000000000E+00  0.00000E+00  9.000E+00
      25     1     1     2     0     0 -1.276288191E+02 -8.267692035E+01 -2.440280750E+02  3.135271759E+02  1.250000000E+02  0.00000E+00  9.000E+00
      25     1     1     2     0     0  1.214485660E+02  4.531643335E+01 -1.543296178E+01  1.807387884E+02  1.250000000E+02  0.00000E+00  9.000E+00
      21     1     1     2   501   512  6.180253052E+00  3.736048700E+01 -2.073607564E+01  4.317390820E+01  9.536743164E-07  0.00000E+00  9.000E+00
#rwgt            1           1   2.7694184898496961E-002           9      234635           0
</event>
<event>
      5   9999  3.19816E-02  4.14759E+02 -1.00000E+00  1.01214E-01
      21    -1     0     0   502   501  0.000000000E+00  0.000000000E+00  5.518950016E+02  5.518950016E+02  0.000000000E+00  0.00000E+00  9.000E+00
      21    -1     0     0   501   511  0.000000000E+00  0.000000000E+00 -1.382067513E+03  1.382067513E+03  0.000000000E+00  0.00000E+00  9.000E+00
      25     1     1     2     0     0  5.766642236E+01 -4.287127305E+02  9.064208289E+01  4.593049191E+02  1.250000000E+02  0.00000E+00  9.000E+00
      25     1     1     2     0     0 -1.338514851E+02  2.101058082E+01  2.045110684E+02  2.753315123E+02  1.250000000E+02  0.00000E+00  9.000E+00
      21     1     1     2   502   511  7.618506269E+01  4.077021496E+02 -1.125325663E+03  1.199326083E+03  1.525878906E-05  0.00000E+00  9.000E+00
#rwgt            2          11   3.4375479982879462E-003           9      234749           0
</event>
<event>
      5   9999  3.19816E-02  2.88171E+01 -1.00000E+00  1.54263E-01
      21    -1     0     0   502   501  0.000000000E+00  0.000000000E+00  3.589435433E+02  3.589435433E+02  0.000000000E+00  0.00000E+00  9.000E+00
       2    -1     0     0   501     0  0.000000000E+00  0.000000000E+00 -7.345686957E+02  7.345686957E+02  0.000000000E+00  0.00000E+00  9.000E+00
      25     1     1     2     0     0  3.819321977E+02 -5.182424335E+01  6.862777488E+01  4.109656035E+02  1.250000000E+02  0.00000E+00  9.000E+00
      25     1     1     2     0     0 -4.050769207E+02  3.465598472E+01 -2.653162467E+02  5.013043583E+02  1.250000000E+02  0.00000E+00  9.000E+00
       2     1     1     2   502     0  2.314472303E+01  1.716825863E+01 -1.789366807E+02  1.812422771E+02  0.000000000E+00  0.00000E+00  9.000E+00
#rwgt            1           1   2.8696892878047029E-002           9      234769           0
</event>
<event>
      5   9999  3.19816E-02  6.08541E+01 -1.00000E+00  1.34376E-01
      21    -1     0     0   502   511  0.000000000E+00  0.000000000E+00  6.216275320E+02  6.216275320E+02  0.000000000E+00  0.00000E+00  9.000E+00
      21    -1     0     0   501   502  0.000000000E+00  0.000000000E+00 -3.718545842E+02  3.718545842E+02  0.000000000E+00  0.00000E+00  9.000E+00
      25     1     1     2     0     0  2.951836966E+02  2.383759564E+02  1.927104100E+01  3.999411011E+02  1.250000000E+02  0.00000E+00  9.000E+00
      25     1     1     2     0     0 -3.387556118E+02 -1.958940410E+02  6.334684161E+01  4.156532956E+02  1.250000000E+02  0.00000E+00  9.000E+00
      21     1     1     2   501   511  4.357191515E+01 -4.248191540E+01  1.671550653E+02  1.778877196E+02  1.907348633E-06  0.00000E+00  9.000E+00
#rwgt            1           1   2.8730068808627787E-002           9      234934           0
</event>
<event>
      5   9999  3.19816E-02  8.19984E+01 -1.00000E+00  1.27833E-01
      21    -1     0     0   502   501  0.000000000E+00  0.000000000E+00  8.396530442E+02  8.396530442E+02  0.000000000E+00  0.00000E+00  9.000E+00
      21    -1     0     0   501   512  0.000000000E+00  0.000000000E+00 -1.383264632E+03  1.383264632E+03  0.000000000E+00  0.00000E+00  9.000E+00
      25     1     1     2     0     0 -4.654859726E+02 -2.441170532E+02  5.764477219E+02  7.900552528E+02  1.250000000E+02  0.00000E+00  9.000E+00
      25     1     1     2     0     0  4.781718989E+02  3.251281976E+02 -4.140173495E+02  7.220748406E+02  1.250000000E+02  0.00000E+00  9.000E+00
      21     1     1     2   502   512 -1.268592633E+01 -8.101114444E+01 -7.060419598E+02  7.107875823E+02  1.078959322E-05  0.00000E+00  9.000E+00
#rwgt            1           1   3.6009914415515654E-002           9      235043           0
</event>
<event>
      5   9999  3.19816E-02  1.18952E+02 -1.00000E+00  1.20530E-01
      21    -1     0     0   502   511  0.000000000E+00  0.000000000E+00  7.459831763E+01  7.459831763E+01  0.000000000E+00  0.00000E+00  9.000E+00
      21    -1     0     0   501   502  0.000000000E+00  0.000000000E+00 -1.089760437E+03  1.089760437E+03  0.000000000E+00  0.00000E+00  9.000E+00
      25     1     1     2     0     0  9.452896729E+00 -1.869840620E+01 -7.490591743E+02  7.597062816E+02  1.250000000E+02  0.00000E+00  9.000E+00
      25     1     1     2     0     0  3.947612945E+01  1.271215689E+02 -1.895455215E+02  2.631933943E+02  1.250000000E+02  0.00000E+00  9.000E+00
      21     1     1     2   501   511 -4.892902618E+01 -1.084231627E+02 -7.655742327E+01  1.414590784E+02  3.015782986E-06  0.00000E+00  9.000E+00
#rwgt            1           1   3.4891756323760389E-002           9      235161           0
</event>
<event>
      5   9999  3.19816E-02  1.64891E+02 -1.00000E+00  1.14787E-01
       1    -1     0     0   502     0  0.000000000E+00  0.000000000E+00  7.507022315E+02  7.507022315E+02  0.000000000E+00  0.00000E+00  9.000E+00
      21    -1     0     0   501   502  0.000000000E+00  0.000000000E+00 -1.895748449E+02  1.895748449E+02  0.000000000E+00  0.00000E+00  9.000E+00
      25     1     1     2     0     0  6.559697362E+01  1.054088549E+02 -9.139411085E+01  1.984738601E+02  1.250000000E+02  0.00000E+00  9.000E+00
      25     1     1     2     0     0 -1.319396642E+02  4.554740760E+01  3.260466972E+02  3.760506483E+02  1.250000000E+02  0.00000E+00  9.000E+00
       1     1     1     2   501     0  6.634269056E+01 -1.509562625E+02  3.264748002E+02  3.657525680E+02  0.000000000E+00  0.00000E+00  9.000E+00
#rwgt            2          17   2.9360118188330865E-004           9      235305           0
</event>
<event>
      5   9999  3.19816E-02  1.85370E+02 -1.00000E+00  1.12862E-01
      21    -1     0     0   502   511  0.000000000E+00  0.000000000E+00  9.776796513E+01  9.776796513E+01  0.000000000E+00  0.00000E+00  9.000E+00
      21    -1     0     0   501   502  0.000000000E+00  0.000000000E+00 -8.680524588E+02  8.680524588E+02  0.000000000E+00  0.00000E+00  9.000E+00
      25     1     1     2     0     0 -7.481419268E+00  9.822351191E+01 -3.004956017E+02  3.400388750E+02  1.250000000E+02  0.00000E+00  9.000E+00
      25     1     1     2     0     0 -1.752198980E+02 -6.688030709E+01 -2.926445236E+02  3.693789454E+02  1.250000000E+02  0.00000E+00  9.000E+00
      21     1     1     2   501   511  1.827013172E+02 -3.134320482E+01 -1.771443684E+02  2.564026035E+02  2.697398305E-06  0.00000E+00  9.000E+00
#rwgt            1           1   2.8929706120704387E-002           9      235339           0
</event>
<event>
      5   9999  3.37987E-02  5.54815E+01 -1.00000E+00  1.36546E-01
      21    -1     0     0   502   512  0.000000000E+00  0.000000000E+00  2.210664228E+02  2.210664228E+02  0.000000000E+00  0.00000E+00  9.000E+00
      21    -1     0     0   501   502  0.000000000E+00  0.000000000E+00 -1.768373143E+03  1.768373143E+03  0.000000000E+00  0.00000E+00  9.000E+00
      25     1     1     2     0     0  9.987474730E+01  3.229027888E+02 -1.540119071E+03  1.581718347E+03  1.250000000E+02  0.00000E+00  9.000E+00
      25     1     1     2     0     0 -4.504611660E+01 -3.144163872E+02  2.724422560E+01  3.424238090E+02  1.250000000E+02  0.00000E+00  9.000E+00
      21     1     1     2   501   512 -5.482863070E+01 -8.486401629E+00 -3.443187515E+01  6.529741024E+01  9.536743164E-07  0.00000E+00  9.000E+00
#rwgt            1           1   2.8701369968551396E-002           9      235385           0
</event>
<event>
      5   9999  3.19816E-02  5.51161E+01 -1.00000E+00  1.36704E-01
      21    -1     0     0   502   501  0.000000000E+00  0.000000000E+00  9.333704002E+02  9.333704002E+02  0.000000000E+00  0.00000E+00  9.000E+00
       1    -1     0     0   501     0  0.000000000E+00  0.000000000E+00 -8.215475570E+02  8.215475570E+02  0.000000000E+00  0.00000E+00  9.000E+00
      25     1     1     2     0     0  1.097172417E+02 -3.139219132E+02  8.111859914E+02  8.855690562E+02  1.250000000E+02  0.00000E+00  9.000E+00
      25     1     1     2     0     0 -8.595551307E+01  2.641909799E+02 -1.944036853E+02  3.613903941E+02  1.250000000E+02  0.00000E+00  9.000E+00
       1     1     1     2   502     0 -2.376172866E+01  4.973093331E+01 -5.049594629E+02  5.079585068E+02  5.394796609E-06  0.00000E+00  9.000E+00
#rwgt            1           1   2.9905618290876908E-002           9      235520           0
</event>
<event>
      5   9999  3.19816E-02  1.32115E+02 -1.00000E+00  1.18622E-01
      21    -1     0     0   502   511  0.000000000E+00  0.000000000E+00  4.765022188E+02  4.765022188E+02  0.000000000E+00  0.00000E+00  9.000E+00
      21    -1     0     0   501   502  0.000000000E+00  0.000000000E+00 -2.848105456E+02  2.848105456E+02  0.000000000E+00  0.00000E+00  9.000E+00
      25     1     1     2     0     0 -2.186525169E+02  2.086248217E+02 -9.527716982E+00  3.271834605E+02  1.250000000E+02  0.00000E+00  9.000E+00
      25     1     1     2     0     0  1.959299555E+02 -7.847838151E+01  8.952624685E+01  2.611270815E+02  1.250000000E+02  0.00000E+00  9.000E+00
      21     1     1     2   501   511  2.272256144E+01 -1.301464402E+02  1.116931433E+02  1.730022224E+02  4.046097457E-06  0.00000E+00  9.000E+00
#rwgt            1           1   2.5346855617003203E-002           9      235626           0
</event>
<event>
      5   9999  3.19816E-02  2.49854E+01 -1.00000E+00  1.58770E-01
      21    -1     0     0   502   501  0.000000000E+00  0.000000000E+00  1.312544923E+02  1.312544923E+02  0.000000000E+00  0.00000E+00  9.000E+00
      21    -1     0     0   512   502  0.000000000E+00  0.000000000E+00 -5.569280476E+02  5.569280476E+02  0.000000000E+00  0.00000E+00  9.000E+00
      25     1     1     2     0     0  1.973899668E+02 -6.631271976E+01 -1.123409133E+02  2.675923328E+02  1.250000000E+02  0.00000E+00  9.000E+00
      25     1     1     2     0     0 -2.115304253E+02  4.571377285E+01 -2.546035371E+02  3.567671944E+02  1.250000000E+02  0.00000E+00  9.000E+00
      21     1     1     2   512   501  1.414045855E+01  2.059894691E+01 -5.872910493E+01  6.382301268E+01  9.536743164E-07  0.00000E+00  9.000E+00
#rwgt            1           1   2.6301938172734247E-002           9      235704           0
</event>
<event>
      5   9999  3.19816E-02  1.39012E+02 -1.00000E+00  1.17718E-01
      21    -1     0     0   511   501  0.000000000E+00  0.000000000E+00  3.012335866E+02  3.012335866E+02  0.000000000E+00  0.00000E+00  9.000E+00
      21    -1     0     0   501   502  0.000000000E+00  0.000000000E+00 -3.594671288E+02  3.594671288E+02  0.000000000E+00  0.00000E+00  9.000E+00
      25     1     1     2     0     0  1.282997103E+02  1.113349473E+02 -9.121755460E+01  2.297867020E+02  1.250000000E+02  0.00000E+00  9.000E+00
      25     1     1     2     0     0  1.016124540E+01 -9.896997813E+01 -1.376089427E+02  2.108542829E+02  1.250000000E+02  0.00000E+00  9.000E+00
      21     1     1     2   511   502 -1.384609557E+02 -1.236496915E+01  1.705929551E+02  2.200597306E+02  3.303624740E-06  0.00000E+00  9.000E+00
#rwgt            1           1   2.7745774433878864E-002           9      235813           0
</event>
<event>
      5   9999  3.19816E-02  5.95584E+01 -1.00000E+00  1.34875E-01
      21    -1     0     0   502   512  0.000000000E+00  0.000000000E+00  1.465158527E+02  1.465158527E+02  0.000000000E+00  0.00000E+00  9.000E+00
      21    -1     0     0   501   502  0.000000000E+00  0.000000000E+00 -1.110782211E+03  1.110782211E+03  0.000000000E+00  0.00000E+00  9.000E+00
      25     1     1     2     0     0  2.688619867E+02 -6.471356025E+01 -1.535554959E+02  3.401160142E+02  1.250000000E+02  0.00000E+00  9.000E+00
      25     1     1     2     0     0 -3.284023263E+02  6.324842168E+01 -7.570415561E+02  8.370097779E+02  1.250000000E+02  0.00000E+00  9.000E+00
      21     1     1     2   501   512  5.954033956E+01  1.465138578E+00 -5.366930595E+01  8.017227118E+01  1.348699152E-06  0.00000E+00  9.000E+00
#rwgt            1           1   3.0329082901103251E-002           9      235881           0
</event>
<event>
      5   9999  3.19816E-02  2.73154E+02 -1.00000E+00  1.06932E-01
      21    -1     0     0   502   501  0.000000000E+00  0.000000000E+00  1.335459726E+03  1.335459726E+03  0.000000000E+00  0.00000E+00  9.000E+00
      21    -1     0     0   511   502  0.000000000E+00  0.000000000E+00 -1.826303883E+02  1.826303883E+02  0.000000000E+00  0.00000E+00  9.000E+00
      25     1     1     2     0     0  5.506436710E+01 -6.819704841E+01 -3.198870778E+01  1.559846126E+02  1.250000000E+02  0.00000E+00  9.000E+00
      25     1     1     2     0     0 -3.172601003E+02 -8.395310791E+00  9.218864739E+02  9.829670001E+02  1.250000000E+02  0.00000E+00  9.000E+00
      21     1     1     2   511   501  2.621957332E+02  7.659235920E+01  2.629315710E+02  3.791385012E+02  3.814697266E-06  0.00000E+00  9.000E+00
#rwgt            2          11   3.1660154481901455E-003           9      236006           0
</event>
<event>
      5   9999  3.19816E-02  5.27951E+01 -1.00000E+00  1.37741E-01
      21    -1     0     0   502   512  0.000000000E+00  0.000000000E+00  1.447628167E+03  1.447628167E+03  0.000000000E+00  0.00000E+00  9.000E+00
      21    -1     0     0   501   502  0.000000000E+00  0.000000000E+00 -4.933462430E+02  4.933462430E+02  0.000000000E+00  0.00000E+00  9.000E+00
      25     1     1     2     0     0 -8.585329371E+01 -2.976640055E+02 -4.000139099E+02  5.211629077E+02  1.250000000E+02  0.00000E+00  9.000E+00
      25     1     1     2     0     0  1.353028935E+02  3.161589589E+02  1.256257584E+03  1.308461492E+03  1.250000000E+02  0.00000E+00  9.000E+00
      21     1     1     2   501   512 -4.944959983E+01 -1.849495338E+01  9.803825012E+01  1.113500099E+02  0.000000000E+00  0.00000E+00  9.000E+00
#rwgt            1           1   3.6186101413924920E-002           9      236026           0
</event>
<event>
      5   9999  3.19816E-02  4.98802E+01 -1.00000E+00  1.39135E-01
      21    -1     0     0   502   511  0.000000000E+00  0.000000000E+00  2.692965601E+02  2.692965601E+02  0.000000000E+00  0.00000E+00  9.000E+00
      21    -1     0     0   501   502  0.000000000E+00  0.000000000E+00 -7.367721582E+02  7.367721582E+02  0.000000000E+00  0.00000E+00  9.000E+00
      25     1     1     2     0     0  3.597989967E+02 -5.516836128E+01 -2.486686491E+02  4.582138836E+02  1.250000000E+02  0.00000E+00  9.000E+00
      25     1     1     2     0     0 -3.111218722E+02  6.605739509E+01 -2.985600093E+02  4.537879218E+02  1.250000000E+02  0.00000E+00  9.000E+00
      21     1     1     2   501   511 -4.867712448E+01 -1.088903381E+01  7.975306015E+01  9.406691293E+01  1.651812370E-06  0.00000E+00  9.000E+00
#rwgt            1           1   3.3847111861296457E-002           9      236176           0
</event>
<event>
      5   9999  3.19816E-02  4.72084E+02 -1.00000E+00  9.95660E-02
      21    -1     0     0   512   501  0.000000000E+00  0.000000000E+00  2.595736661E+02  2.595736661E+02  0.000000000E+00  0.00000E+00  9.000E+00
      21    -1     0     0   501   502  0.000000000E+00  0.000000000E+00 -2.273566904E+03  2.273566904E+03  0.000000000E+00  0.00000E+00  9.000E+00
      25     1     1     2     0     0 -1.254543953E+02  4.882881804E+01 -1.575924855E+03  1.586596107E+03  1.250000000E+02  0.00000E+00  9.000E+00
      25     1     1     2     0     0 -2.670940756E+02  2.134093842E+02 -2.303928839E+02  4.308000597E+02  1.250000000E+02  0.00000E+00  9.000E+00
      21     1     1     2   512   502  3.925484708E+02 -2.622382023E+02 -2.076754992E+02  5.157444034E+02  7.629394531E-06  0.00000E+00  9.000E+00
#rwgt            2          11   3.1411198089496221E-003           9      236334           0
</event>
<event>
      5   9999  3.19816E-02  2.66545E+01 -1.00000E+00  1.56694E-01
      21    -1     0     0   511   501  0.000000000E+00  0.000000000E+00  7.832188846E+02  7.832188846E+02  0.000000000E+00  0.00000E+00  9.000E+00
      21    -1     0     0   501   502  0.000000000E+00  0.000000000E+00 -1.979089260E+02  1.979089260E+02  0.000000000E+00  0.00000E+00  9.000E+00
      25     1     1     2     0     0  2.791210239E+02 -8.925398655E+01  4.776036675E+02  5.741124309E+02  1.250000000E+02  0.00000E+00  9.000E+00
      25     1     1     2     0     0 -3.045878959E+02  9.712161674E+01  5.458052114E+01  3.475779453E+02  1.250000000E+02  0.00000E+00  9.000E+00
      21     1     1     2   511   502  2.546687194E+01 -7.867630193E+00  5.312576994E+01  5.943743436E+01  6.743495762E-07  0.00000E+00  9.000E+00
#rwgt            1           1   2.9235109768956373E-002           9      236384           0
</event>
<event>
      5   9999  3.19816E-02  1.15680E+02 -1.00000E+00  1.21048E-01
      21    -1     0     0   502   512  0.000000000E+00  0.000000000E+00  3.089655360E+02  3.089655360E+02  0.000000000E+00  0.00000E+00  9.000E+00
      21    -1     0     0   501   502  0.000000000E+00  0.000000000E+00 -8.199618235E+02  8.199618235E+02  0.000000000E+00  0.00000E+00  9.000E+00
      25     1     1     2     0     0 -4.677405768E+01 -3.454389966E+02 -3.971293212E+02  5.430033246E+02  1.250000000E+02  0.00000E+00  9.000E+00
      25     1     1     2     0     0  1.574256186E+02  3.791758530E+02 -1.645484992E+02  4.596285038E+02  1.250000000E+02  0.00000E+00  9.000E+00
      21     1     1     2   501   512 -1.106515609E+02 -3.373685642E+01  5.068153280E+01  1.262955311E+02  6.743495762E-07  0.00000E+00  9.000E+00
#rwgt            1           1   2.7431874387989209E-002           9      236514           0
</event>
<event>
      5   9999  3.19816E-02  2.13594E+02 -1.00000E+00  1.10618E-01
       2    -1     0     0   502     0  0.000000000E+00  0.000000000E+00  1.928364716E+03  1.928364716E+03  0.000000000E+00  0.00000E+00  9.000E+00
      21    -1     0     0   501   502  0.000000000E+00  0.000000000E+00 -3.636551536E+02  3.636551536E+02  0.000000000E+00  0.00000E+00  9.000E+00
      25     1     1     2     0     0  5.355687291E+02 -2.317208704E+02  4.134420695E+02  7.260081062E+02  1.250000000E+02  0.00000E+00  9.000E+00
      25     1     1     2     0     0 -3.246397906E+02  1.980877652E+02  5.346124211E+00  4.003540151E+02  1.250000000E+02  0.00000E+00  9.000E+00
       2     1     1     2   501     0 -2.109289385E+02  3.363310526E+01  1.145921369E+03  1.165657749E+03  0.000000000E+00  0.00000E+00  9.000E+00
#rwgt            2          18   1.7534027576694233E-003           9      236655           0
</event>
<event>
      5   9999  3.19816E-02  2.47853E+01 -1.00000E+00  1.59032E-01
      21    -1     0     0   511   501  0.000000000E+00  0.000000000E+00  1.580734696E+03  1.580734696E+03  0.000000000E+00  0.00000E+00  9.000E+00
      21    -1     0     0   501   502  0.000000000E+00  0.000000000E+00 -2.444902251E+02  2.444902251E+02  0.000000000E+00  0.00000E+00  9.000E+00
      25     1     1     2     0     0  2.436113370E+02  3.617225677E+02  1.195026287E+03  1.278241967E+03  1.250000000E+02  0.00000E+00  9.000E+00
      25     1     1     2     0     0 -2.287829041E+02 -3.815827608E+02  6.481675244E+01  4.666617961E+02  1.250000000E+02  0.00000E+00  9.000E+00
      21     1     1     2   511   502 -1.482843296E+01  1.986019311E+01  7.640143051E+01  8.032115711E+01  9.536743164E-07  0.00000E+00  9.000E+00
#rwgt            1           1   3.2080580924040730E-002           9      236674           0
</event>
<event>
      5   9999  3.19816E-02  2.27355E+02 -1.00000E+00  1.09658E-01
      21    -1     0     0   502   501  0.000000000E+00  0.000000000E+00  1.194539820E+03  1.194539820E+03  0.000000000E+00  0.00000E+00  9.000E+00
      21    -1     0     0   501   512  0.000000000E+00  0.000000000E+00 -2.349117621E+02  2.349117621E+02  0.000000000E+00  0.00000E+00  9.000E+00
      25     1     1     2     0     0  3.164347811E+01 -1.460636226E-01  8.723283022E+02  8.818066669E+02  1.250000000E+02  0.00000E+00  9.000E+00
      25     1     1     2     0     0  1.874364766E+02 -6.063308821E+01  1.873768840E+02  2.992388691E+02  1.250000000E+02  0.00000E+00  9.000E+00
      21     1     1     2   502   512 -2.190799547E+02  6.077915183E+01 -1.000771287E+02  2.484060457E+02  2.697398305E-06  0.00000E+00  9.000E+00
#rwgt            2          11   6.4175092840176272E-003           9      236946           0
</event>
<event>
      5   9999  3.19816E-02  1.17442E+02 -1.00000E+00  1.20767E-01
      21    -1     0     0   502   511  0.000000000E+00  0.000000000E+00  1.731134454E+02  1.731134454E+02  0.000000000E+00  0.00000E+00  9.000E+00
      21    -1     0     0   501   502  0.000000000E+00  0.000000000E+00 -4.774525340E+02  4.774525340E+02  0.000000000E+00  0.00000E+00  9.000E+00
      25     1     1     2     0     0  9.180643340E+01  1.053752935E+02 -2.050231766E+02  2.778342611E+02  1.250000000E+02  0.00000E+00  9.000E+00
      25     1     1     2     0     0 -1.863452125E+02 -3.569671519E+01 -1.142974187E+02  2.543377550E+02  1.250000000E+02  0.00000E+00  9.000E+00
      21     1     1     2   501   511  9.453877908E+01 -6.967857831E+01  1.498150670E+01  1.183939634E+02  2.573374885E-06  0.00000E+00  9.000E+00
#rwgt            1           1   2.7577903137696209E-002           9      236966           0
</event>
<event>
      5   9999  3.19816E-02  2.50407E+02 -1.00000E+00  1.08206E-01
      21    -1     0     0   502   501  0.000000000E+00  0.000000000E+00  1.608223981E+02  1.608223981E+02  0.000000000E+00  0.00000E+00  9.000E+00
      21    -1     0     0   512   502  0.000000000E+00  0.000000000E+00 -1.275328359E+03  1.275328359E+03  0.000000000E+00  0.00000E+00  9.000E+00
      25     1     1     2     0     0  2.072530471E+02  1.143017629E+02 -2.817210717E+02  3.886006701E+02  1.250000000E+02  0.00000E+00  9.000E+00
      25     1     1     2     0     0 -2.954027335E+02  1.200766194E+02 -2.862040759E+02  4.463394925E+02  1.250000000E+02  0.00000E+00  9.000E+00
      21     1     1     2   512   501  8.814968640E+01 -2.343783823E+02 -5.465808130E+02  6.012105941E+02  0.000000000E+00  0.00000E+00  9.000E+00
#rwgt            1           1   2.7365850185688937E-002           9      237036           0
</event>
<event>
      5   9999  3.19816E-02  4.39643E+01 -1.00000E+00  1.42340E-01
      21    -1     0     0   511   501  0.000000000E+00  0.000000000E+00  3.403184936E+02  3.403184936E+02  0.000000000E+00  0.00000E+00  9.000E+00
      21    -1     0     0   501   502  0.000000000E+00  0.000000000E+00 -5.690283237E+02  5.690283237E+02  0.000000000E+00  0.00000E+00  9.000E+00
      25     1     1     2     0     0  1.437674179E+01 -2.232823226E+02 -4.712575324E+02  5.364423065E+02  1.250000000E+02  0.00000E+00  9.000E+00
      25     1     1     2     0     0 -1.683751303E+01  1.793869507E+02  1.370026335E+02  2.585689493E+02  1.250000000E+02  0.00000E+00  9.000E+00
      21     1     1     2   511   502  2.460771237E+00  4.389537184E+01  1.055450689E+02  1.143355616E+02  1.907348633E-06  0.00000E+00  9.000E+00
#rwgt            1           1   2.8922792798678008E-002           9      237085           0
</event>
<event>
      5   9999  3.19816E-02  2.99049E+01 -1.00000E+00  1.53136E-01
      21    -1     0     0   502   501  0.000000000E+00  0.000000000E+00  2.815246165E+02  2.815246165E+02  0.000000000E+00  0.00000E+00  9.000E+00
      21    -1     0     0   501   512  0.000000000E+00  0.000000000E+00 -1.531657439E+02  1.531657439E+02  0.000000000E+00  0.00000E+00  9.000E+00
      25     1     1     2     0     0  3.665152143E+01 -7.600375254E+01 -4.082927404E+01  1.562431888E+02  1.250000000E+02  0.00000E+00  9.000E+00
      25     1     1     2     0     0 -5.463160530E+01  9.989981493E+01  1.797060383E+02  2.467465208E+02  1.250000000E+02  0.00000E+00  9.000E+00
      21     1     1     2   502   512  1.798008388E+01 -2.389606239E+01 -1.051789170E+01  3.170065078E+01  4.460403188E-07  0.00000E+00  9.000E+00
#rwgt            1           1   2.7170286013573814E-002           9      237177           0
</event>
<event>
      5   9999  3.19816E-02  4.96395E+01 -1.00000E+00  1.39255E-01
      21    -1     0     0   502   501  0.000000000E+00  0.000000000E+00  1.329239142E+03  1.329239142E+03  0.000000000E+00  0.00000E+00  9.000E+00
      21    -1     0     0   501   511  0.000000000E+00  0.000000000E+00 -4.243866532E+02  4.243866532E+02  0.000000000E+00  0.00000E+00  9.000E+00
      25     1     1     2     0     0  7.299334386E+02 -5.688668321E+01  5.201481468E+02  9.067623801E+02  1.250000000E+02  0.00000E+00  9.000E+00
      25     1     1     2     0     0 -6.845059052E+02  7.689707033E+01  3.811524566E+02  7.970970385E+02  1.250000000E+02  0.00000E+00  9.000E+00
      21     1     1     2   502   511 -4.542753339E+01 -2.001038712E+01  3.551885738E+00  4.976637695E+01  6.597025282E-07  0.00000E+00  9.000E+00
#rwgt            1           1   2.8700416461458031E-002           9      237308           0
</event>
<event>
      5   9999  3.19816E-02  9.13955E+01 -1.00000E+00  1.25611E-01
      21    -1     0     0   502   501  0.000000000E+00  0.000000000E+00  6.924272358E+02  6.924272358E+02  0.000000000E+00  0.00000E+00  9.000E+00
      21    -1     0     0   512   502  0.000000000E+00  0.000000000E+00 -7.791321973E+02  7.791321973E+02  0.000000000E+00  0.00000E+00  9.000E+00
      25     1     1     2     0     0  6.360176764E+01  1.545363697E+02  5.525054615E+02  5.906047404E+02  1.250000000E+02  0.00000E+00  9.000E+00
      25     1     1     2     0     0 -6.554401012E+00 -8.313093328E+01  7.007950073E+01  1.658006293E+02  1.250000000E+02  0.00000E+00  9.000E+00
      21     1     1     2   512   501 -5.704736662E+01 -7.140543645E+01 -7.092899238E+02  7.151540634E+02  7.629394531E-06  0.00000E+00  9.000E+00
#rwgt            1           1   3.3120206729738401E-002           9      237477           0
</event>
<event>
      5   9999  3.19816E-02  2.58923E+01 -1.00000E+00  1.57619E-01
      21    -1     0     0   502   501  0.000000000E+00  0.000000000E+00  9.010137324E+02  9.010137324E+02  0.000000000E+00  0.00000E+00  9.000E+00
      21    -1     0     0   501   511  0.000000000E+00  0.000000000E+00 -5.316336089E+01  5.316336089E+01  0.000000000E+00  0.00000E+00  9.000E+00
      25     1     1     2     0     0 -9.475866720E+01  9.925668496E+01  5.639070483E+02  5.936726823E+02  1.250000000E+02  0.00000E+00  9.000E+00
      25     1     1     2     0     0  1.197365248E+02 -9.243642052E+01  2.502740698E+02  3.180305602E+02  1.250000000E+02  0.00000E+00  9.000E+00
      21     1     1     2   502   511 -2.497785764E+01 -6.820264441E+00  3.366925341E+01  4.247385084E+01  6.743495762E-07  0.00000E+00  9.000E+00
#rwgt            1           1   3.0053980999531542E-002           9      237526           0
</event>
<event>
      5   9999  3.19816E-02  2.65074E+01 -1.00000E+00  1.56870E-01
      21    -1     0     0   512   501  0.000000000E+00  0.000000000E+00  1.381588898E+02  1.381588898E+02  0.000000000E+00  0.00000E+00  9.000E+00
      21    -1     0     0   501   502  0.000000000E+00  0.000000000E+00 -7.754750516E+02  7.754750516E+02  0.000000000E+00  0.00000E+00  9.000E+00
      25     1     1     2     0     0  2.897110213E+02 -6.769520790E+01 -2.705663260E+02  4.211249860E+02  1.250000000E+02  0.00000E+00  9.000E+00
      25     1     1     2     0     0 -2.636575585E+02  6.281046637E+01 -3.541786020E+02  4.631716150E+02  1.250000000E+02  0.00000E+00  9.000E+00
      21     1     1     2   512   502 -2.605346282E+01  4.884741535E+00 -1.257123373E+01  2.933734041E+01  6.078504936E-07  0.00000E+00  9.000E+00
#rwgt            1           1   2.7041077625896241E-002           9      237678           0
</event>
<event>
      5   9999  3.19816E-02  1.32629E+01 -1.00000E+00  1.82572E-01
      21    -1     0     0   511   501  0.000000000E+00  0.000000000E+00  5.784322927E+02  5.784322927E+02  0.000000000E+00  0.00000E+00  9.000E+00
      21    -1     0     0   501   502  0.000000000E+00  0.000000000E+00 -1.301103965E+02  1.301103965E+02  0.000000000E+00  0.00000E+00  9.000E+00
      25     1     1     2     0     0 -3.511103584E+01  1.068589698E+02  3.608023271E+02  3.980639942E+02  1.250000000E+02  0.00000E+00  9.000E+00
      25     1     1     2     0     0  3.588485850E+01 -9.361867519E+01 -5.342427506E+01  1.689122038E+02  1.250000000E+02  0.00000E+00  9.000E+00
      21     1     1     2   511   502 -7.738226625E-01 -1.324029466E+01  1.409438442E+02  1.415664912E+02  1.907348633E-06  0.00000E+00  9.000E+00
#rwgt            1           1   2.9635021728306430E-002           9      237864           0
</event>
<event>
      5   9999  3.19816E-02  7.04338E+00 -1.00000E+00  2.15175E-01
      21    -1     0     0   502   501  0.000000000E+00  0.000000000E+00  5.775307929E+01  5.775307929E+01  0.000000000E+00  0.00000E+00  9.000E+00
      21    -1     0     0   512   502  0.000000000E+00  0.000000000E+00 -7.946150016E+02  7.946150016E+02  0.000000000E+00  0.00000E+00  9.000E+00
      25     1     1     2     0     0 -1.155018637E+02  8.217122924E+01 -3.121289696E+02  3.648866743E+02  1.250000000E+02  0.00000E+00  9.000E+00
      25     1     1     2     0     0  1.116108491E+02 -7.630017804E+01 -2.394256548E+02  3.020403002E+02  1.250000000E+02  0.00000E+00  9.000E+00
      21     1     1     2   512   501  3.891014611E+00 -5.871051194E+00 -1.853072979E+02  1.854411063E+02  2.697398305E-06  0.00000E+00  9.000E+00
#rwgt            1           1   3.2549412706725574E-002           9      238060           0
</event>
<event>
      5   9999  3.19816E-02  5.47230E+01 -1.00000E+00  1.36875E-01
      21    -1     0     0   511   501  0.000000000E+00  0.000000000E+00  3.408259433E+02  3.408259433E+02  0.000000000E+00  0.00000E+00  9.000E+00
      21    -1     0     0   501   502  0.000000000E+00  0.000000000E+00 -2.670688761E+02  2.670688761E+02  0.000000000E+00  0.00000E+00  9.000E+00
      25     1     1     2     0     0  2.295419617E+02  3.652335022E+00  1.126984318E+02  2.846555607E+02  1.250000000E+02  0.00000E+00  9.000E+00
      25     1     1     2     0     0 -1.908956055E+02  3.509119139E+01 -9.058204439E+01  2.479972392E+02  1.250000000E+02  0.00000E+00  9.000E+00
      21     1     1     2   511   502 -3.864635622E+01 -3.874352641E+01  5.164067970E+01  7.524201943E+01  6.743495762E-07  0.00000E+00  9.000E+00
#rwgt            1           1   2.8734585991883811E-002           9      238247           0
</event>
<event>
      5   9999  3.19816E-02  7.04766E+01 -1.00000E+00  1.31072E-01
      21    -1     0     0   502   512  0.000000000E+00  0.000000000E+00  2.562549256E+02  2.562549256E+02  0.000000000E+00  0.00000E+00  9.000E+00
      21    -1     0     0   501   502  0.000000000E+00  0.000000000E+00 -1.954947024E+02  1.954947024E+02  0.000000000E+00  0.00000E+00  9.000E+00
      25     1     1     2     0     0 -1.002700675E+02  5.134549142E+01  9.287677214E+01  1.922018229E+02  1.250000000E+02  0.00000E+00  9.000E+00
      25     1     1     2     0     0  1.223444335E+02  1.558489415E+01 -5.728870239E+01  1.847107056E+02  1.250000000E+02  0.00000E+00  9.000E+00
      21     1     1     2   501   512 -2.207436602E+01 -6.693038557E+01  2.517215346E+01  7.483709947E+01  1.545128989E-06  0.00000E+00  9.000E+00
#rwgt            1           1   2.4973394779850670E-002           9      238325           0
</event>
<event>
      5   9999  3.19816E-02  3.19363E+02 -1.00000E+00  1.04717E-01
      21    -1     0     0   502   501  0.000000000E+00  0.000000000E+00  2.701857755E+02  2.701857755E+02  0.000000000E+00  0.00000E+00  9.000E+00
      21    -1     0     0   511   502  0.000000000E+00  0.000000000E+00 -1.837925329E+03  1.837925329E+03  0.000000000E+00  0.00000E+00  9.000E+00
      25     1     1     2     0     0  1.236740080E+02  1.381099518E+02  6.546957442E+01  2.329825835E+02  1.250000000E+02  0.00000E+00  9.000E+00
      25     1     1     2     0     0  1.458992256E+02 -3.093486624E+02 -2.181892845E+02  4.245170701E+02  1.250000000E+02  0.00000E+00  9.000E+00
      21     1     1     2   511   501 -2.695732336E+02  1.712387105E+02 -1.415019843E+03  1.450611451E+03  1.525878906E-05  0.00000E+00  9.000E+00
#rwgt            1           1   3.0876632035178462E-002           9      238409           0
</event>
<event>
      5   9999  3.19816E-02  1.11103E+02 -1.00000E+00  1.21806E-01
      21    -1     0     0   502   501  0.000000000E+00  0.000000000E+00  2.047699925E+03  2.047699925E+03  0.000000000E+00  0.00000E+00  9.000E+00
      21    -1     0     0   501   512  0.000000000E+00  0.000000000E+00 -3.510890391E+02  3.510890391E+02  0.000000000E+00  0.00000E+00  9.000E+00
      25     1     1     2     0     0 -4.269922499E+02  4.162134200E+00  1.660196529E+03  1.718783645E+03  1.250000000E+02  0.00000E+00  9.000E+00
      25     1     1     2     0     0  3.478224488E+02 -8.211030089E+01  2.398619580E+02  4.481978540E+02  1.250000000E+02  0.00000E+00  9.000E+00
      21     1     1     2   502   512  7.916980110E+01  7.794816669E+01 -2.034476013E+02  2.318074645E+02  5.394796609E-06  0.00000E+00  9.000E+00
#rwgt            1           1   3.1950025997442712E-002           9      238443           0
</event>
<event>
      5   9999  3.19816E-02  1.31677E+02 -1.00000E+00  1.18681E-01
      21    -1     0     0   502   511  0.000000000E+00  0.000000000E+00  1.090537551E+02  1.090537551E+02  0.000000000E+00  0.00000E+00  9.000E+00
      21    -1     0     0   501   502  0.000000000E+00  0.000000000E+00 -1.956998086E+03  1.956998086E+03  0.000000000E+00  0.00000E+00  9.000E+00
      25     1     1     2     0     0 -2.939778022E+02  1.804888743E+02 -8.845181719E+02  9.575993830E+02  1.250000000E+02  0.00000E+00  9.000E+00
      25     1     1     2     0     0  2.535828774E+02 -3.058172515E+02 -7.335079245E+02  8.434970909E+02  1.250000000E+02  0.00000E+00  9.000E+00
      21     1     1     2   501   511  4.039492484E+01  1.253283772E+02 -2.299182348E+02  2.649553676E+02  2.697398305E-06  0.00000E+00  9.000E+00
#rwgt            1           1   3.2332132700222546E-002           9      238520           0
</event>
<event>
      5   9999  3.19816E-02  1.08098E+01 -1.00000E+00  1.91927E-01
      21    -1     0     0   502   501  0.000000000E+00  0.000000000E+00  7.973418184E+01  7.973418184E+01  0.000000000E+00  0.00000E+00  9.000E+00
      21    -1     0     0   501   512  0.000000000E+00  0.000000000E+00 -1.308983752E+03  1.308983752E+03  0.000000000E+00  0.00000E+00  9.000E+00
      25     1     1     2     0     0 -2.773022391E+01 -1.531071107E+02 -1.124767835E+03  1.142339019E+03  1.250000000E+02  0.00000E+00  9.000E+00
      25     1     1     2     0     0  3.828084206E+01  1.554601086E+02 -7.766059013E+01  2.174613426E+02  1.250000000E+02  0.00000E+00  9.000E+00
      21     1     1     2   502   512 -1.055061814E+01 -2.352997960E+00 -2.682114552E+01  2.891757233E+01  3.371747881E-07  0.00000E+00  9.000E+00
#rwgt            1           1   3.0609090020614356E-002           9      238655           0
</event>
<event>
      5   9999  3.19816E-02  3.91693E+02 -1.00000E+00  1.01960E-01
      21    -1     0     0   502   501  0.000000000E+00  0.000000000E+00  4.590910014E+02  4.590910014E+02  0.000000000E+00  0.00000E+00  9.000E+00
      21    -1     0     0   511   502  0.000000000E+00  0.000000000E+00 -2.577571142E+03  2.577571142E+03  0.000000000E+00  0.00000E+00  9.000E+00
      25     1     1     2     0     0  7.166593262E+02 -2.175635175E+00 -2.312204389E+02  7.633434447E+02  1.250000000E+02  0.00000E+00  9.000E+00
      25     1     1     2     0     0 -3.348211016E+02 -8.513224602E+01 -2.273538059E+01  3.680958665E+02  1.250000000E+02  0.00000E+00  9.000E+00
      21     1     1     2   511   501 -3.818382246E+02  8.730788120E+01 -1.864524321E+03  1.905222832E+03  3.051757812E-05  0.00000E+00  9.000E+00
#rwgt            2          11   7.2147145331948005E-004           9      238935           0
</event>
<event>
      5   9999  3.19816E-02  4.92242E+01 -1.00000E+00  1.39464E-01
      21    -1     0     0   512   501  0.000000000E+00  0.000000000E+00  1.295668158E+03  1.295668158E+03  0.000000000E+00  0.00000E+00  9.000E+00
      21    -1     0     0   501   502  0.000000000E+00  0.000000000E+00 -1.137901584E+02  1.137901584E+02  0.000000000E+00  0.00000E+00  9.000E+00
      25     1     1     2     0     0  5.224634056E+01 -1.016905018E+02  1.385856117E+02  2.188643645E+02  1.250000000E+02  0.00000E+00  9.000E+00
      25     1     1     2     0     0 -2.802452541E+01  1.445428399E+02  5.464431759E+01  2.007212197E+02  1.250000000E+02  0.00000E+00  9.000E+00
      21     1     1     2   512   502 -2.422181515E+01 -4.285233802E+01  9.886480707E+02  9.898727327E+02  1.078959322E-05  0.00000E+00  9.000E+00
#rwgt            1           1   3.6466334777658531E-002           9      238955           0
</event>
<event>
      5   9999  3.19816E-02  4.86392E+01 -1.00000E+00  1.39763E-01
      21    -1     0     0   511   501  0.000000000E+00  0.000000000E+00  9.886535048E+02  9.886535048E+02  0.000000000E+00  0.00000E+00  9.000E+00
      21    -1     0     0   501   502  0.000000000E+00  0.000000000E+00 -3.210297690E+02  3.210297690E+02  0.000000000E+00  0.00000E+00  9.000E+00
      25     1     1     2     0     0 -4.790344872E+02  2.077751317E+02  4.644456183E+02  7.099149792E+02  1.250000000E+02  0.00000E+00  9.000E+00
      25     1     1     2     0     0  4.607386789E+02 -1.627081029E+02  1.467607801E+02  5.252787675E+02  1.250000000E+02  0.00000E+00  9.000E+00
      21     1     1     2   511   502  1.829580832E+01 -4.506702885E+01  5.641733752E+01  7.448952721E+01  0.000000000E+00  0.00000E+00  9.000E+00
#rwgt            1           1   3.0668795339538594E-002           9      239009           0
</event>
<event>
      5   9999  3.19816E-02  2.84500E+02 -1.00000E+00  1.06346E-01
      21    -1     0     0   502   501  0.000000000E+00  0.000000000E+00  4.034045683E+02  4.034045683E+02  0.000000000E+00  0.00000E+00  9.000E+00
       2    -1     0     0   501     0  0.000000000E+00  0.000000000E+00 -7.575933910E+02  7.575933910E+02  0.000000000E+00  0.00000E+00  9.000E+00
      25     1     1     2     0     0  2.323471238E+02  2.142241760E+01 -1.616534518E+02  3.101627708E+02  1.250000000E+02  0.00000E+00  9.000E+00
      25     1     1     2     0     0  5.197804264E+01 -1.144249633E+01  2.731787260E+02  3.050971386E+02  1.250000000E+02  0.00000E+00  9.000E+00
       2     1     1     2   502     0 -2.843251664E+02 -9.979921264E+00 -4.657140969E+02  5.457380499E+02  9.344061824E-06  0.00000E+00  9.000E+00
#rwgt            2          13   9.7283712339166510E-004           9      239283           0
</event>
<event>
      5   9999  3.19816E-02  4.44885E+01 -1.00000E+00  1.42033E-01
      21    -1     0     0   511   501  0.000000000E+00  0.000000000E+00  8.681241629E+02  8.681241629E+02  0.000000000E+00  0.00000E+00  9.000E+00
      21    -1     0     0   501   502  0.000000000E+00  0.000000000E+00 -6.937556256E+02  6.937556256E+02  0.000000000E+00  0.00000E+00  9.000E+00
      25     1     1     2     0     0 -3.167284895E+01 -1.326291314E+02  6.299948178E+01  1.954164542E+02  1.250000000E+02  0.00000E+00  9.000E+00
      25     1     1     2     0     0  3.689185890E+01  1.768104012E+02 -6.076176790E+02  6.461015176E+02  1.250000000E+02  0.00000E+00  9.000E+00
      21     1     1     2   511   502 -5.219009947E+00 -4.418126975E+01  7.189867345E+02  7.203618167E+02  0.000000000E+00  0.00000E+00  9.000E+00
#rwgt            1           1   2.9653497162805856E-002           9      239302           0
</event>
<event>
      5   9999  3.19816E-02  5.10328E+01 -1.00000E+00  1.38571E-01
      21    -1     0     0   502   501  0.000000000E+00  0.000000000E+00  1.034480487E+03  1.034480487E+03  0.000000000E+00  0.00000E+00  9.000E+00
       3    -1     0     0   501     0  0.000000000E+00  0.000000000E+00 -5.936118027E+02  5.936118027E+02  0.000000000E+00  0.00000E+00  9.000E+00
      25     1     1     2     0     0 -7.307102539E+01 -5.286403765E+02  5.512894834E+02  7.773963705E+02  1.250000000E+02  0.00000E+00  9.000E+00
      25     1     1     2     0     0  9.186786081E+01  4.811953734E+02  1.943731940E+02  5.416591454E+02  1.250000000E+02  0.00000E+00  9.000E+00
       3     1     1     2   502     0 -1.879683542E+01  4.744500306E+01 -3.047939930E+02  3.090367738E+02  3.814697266E-06  0.00000E+00  9.000E+00
#rwgt            1           1   2.7069972331510116E-002           9      239386           0
</event>
<event>
      5   9999  3.19816E-02  1.08297E+01 -1.00000E+00  1.91839E-01
      21    -1     0     0   502   511  0.000000000E+00  0.000000000E+00  1.203696007E+03  1.203696007E+03  0.000000000E+00  0.00000E+00  9.000E+00
      21    -1     0     0   501   502  0.000000000E+00  0.000000000E+00 -7.015993119E+01  7.015993119E+01  0.000000000E+00  0.00000E+00  9.000E+00
      25     1     1     2     0     0  1.952880549E+02  1.408166438E+02  6.852994247E+02  7.370393837E+02  1.250000000E+02  0.00000E+00  9.000E+00
      25     1     1     2     0     0 -1.845596756E+02 -1.393384677E+02  3.486639506E+02  4.366566533E+02  1.250000000E+02  0.00000E+00  9.000E+00
      21     1     1     2   501   511 -1.072837933E+01 -1.478176106E+00  9.957270090E+01  1.001599016E+02  1.348699152E-06  0.00000E+00  9.000E+00
#rwgt            1           1   3.1533391938350398E-002           9      239525           0
</event>
<event>
      5   9999  3.19816E-02  9.21277E+01 -1.00000E+00  1.25451E-01
      21    -1     0     0   512   501  0.000000000E+00  0.000000000E+00  9.984646660E+02  9.984646660E+02  0.000000000E+00  0.00000E+00  9.000E+00
      21    -1     0     0   501   502  0.000000000E+00  0.000000000E+00 -8.934774267E+02  8.934774267E+02  0.000000000E+00  0.00000E+00  9.000E+00
      25     1     1     2     0     0  8.644784907E+02  3.572924843E+01 -9.008163045E+01  8.788283907E+02  1.250000000E+02  0.00000E+00  9.000E+00
      25     1     1     2     0     0 -7.918512508E+02  2.095229085E+01  5.058007135E+00  8.019463731E+02  1.250000000E+02  0.00000E+00  9.000E+00
      21     1     1     2   512   502 -7.262723993E+01 -5.668153928E+01  1.900108626E+02  2.111673289E+02  0.000000000E+00  0.00000E+00  9.000E+00
#rwgt            1           1   3.1560351819784040E-002           9      239720           0
</event>
<event>
      5   9999  3.19816E-02  1.72017E+02 -1.00000E+00  1.14084E-01
       2    -1     0     0   502     0  0.000000000E+00  0.000000000E+00  3.301600422E+03  3.301600422E+03  0.000000000E+00  0.00000E+00  9.000E+00
      21    -1     0     0   501   502  0.000000000E+00  0.000000000E+00 -1.733163582E+02  1.733163582E+02  0.000000000E+00  0.00000E+00  9.000E+00
      25     1     1     2     0     0  1.664005335E+02 -3.941696767E+02  3.656757621E+02  5.765436970E+02  1.250000000E+02  0.00000E+00  9.000E+00
      25     1     1     2     0     0 -3.382199959E+02  4.024016765E+02  1.086249341E+03  1.213211649E+03  1.250000000E+02  0.00000E+00  9.000E+00
       2     1     1     2   501     0  1.718194624E+02 -8.231999749E+00  1.676358961E+03  1.685161434E+03  0.000000000E+00  0.00000E+00  9.000E+00
#rwgt            1           1   2.8958918770782324E-002           9      239792           0
</event>
<event>
      5   9999  3.19816E-02  4.21532E+02 -1.00000E+00  1.01005E-01
      21    -1     0     0   502   501  0.000000000E+00  0.000000000E+00  4.461798257E+02  4.461798257E+02  0.000000000E+00  0.00000E+00  9.000E+00
      21    -1     0     0   511   502  0.000000000E+00  0.000000000E+00 -6.914661094E+02  6.914661094E+02  0.000000000E+00  0.00000E+00  9.000E+00
      25     1     1     2     0     0  2.541083897E+02  2.262473045E+02 -1.610952881E+02  3.966555285E+02  1.250000000E+02  0.00000E+00  9.000E+00
      25     1     1     2     0     0  1.647471321E+02 -1.788222701E+02  8.569928740E+01  2.865107148E+02  1.250000000E+02  0.00000E+00  9.000E+00
      21     1     1     2   511   501 -4.188555218E+02 -4.742503437E+01 -1.698902831E+02  4.544796918E+02  6.325959759E-06  0.00000E+00  9.000E+00
#rwgt            2          11   2.8245993016895693E-003           9      239854           0
</event>
<event>
      5   9999  3.19816E-02  5.97517E+01 -1.00000E+00  1.34800E-01
      21    -1     0     0   502   512  0.000000000E+00  0.000000000E+00  2.509263875E+02  2.509263875E+02  0.000000000E+00  0.00000E+00  9.000E+00
      21    -1     0     0   501   502  0.000000000E+00  0.000000000E+00 -5.346334396E+02  5.346334396E+02  0.000000000E+00  0.00000E+00  9.000E+00
      25     1     1     2     0     0 -7.216744816E+00  2.609292114E+02 -2.152157904E+02  3.606646242E+02  1.250000000E+02  0.00000E+00  9.000E+00
      25     1     1     2     0     0 -2.371730383E+01 -2.098082630E+02 -1.759535984E+02  3.019382164E+02  1.250000000E+02  0.00000E+00  9.000E+00
      21     1     1     2   501   512  3.093404864E+01 -5.112094837E+01  1.074623367E+02  1.229569865E+02  1.907348633E-06  0.00000E+00  9.000E+00
#rwgt            1           1   3.0679518155893860E-002           9      239874           0
</event>
<event>
      5   9999  3.19816E-02  6.42388E+01 -1.00000E+00  1.33138E-01
      21    -1     0     0   502   511  0.000000000E+00  0.000000000E+00  5.762165344E+02  5.762165344E+02  0.000000000E+00  0.00000E+00  9.000E+00
      21    -1     0     0   501   502  0.000000000E+00  0.000000000E+00 -2.070998296E+02  2.070998296E+02  0.000000000E+00  0.00000E+00  9.000E+00
      25     1     1     2     0     0 -7.708138278E+00  9.919516995E+01  3.083729495E+02  3.473009835E+02  1.250000000E+02  0.00000E+00  9.000E+00
      25     1     1     2     0     0  5.303314580E+01 -1.447172799E+02 -1.283316926E+02  2.363252610E+02  1.250000000E+02  0.00000E+00  9.000E+00
      21     1     1     2   501   511 -4.532500752E+01  4.552211000E+01  1.890754479E+02  1.996901195E+02  3.814697266E-06  0.00000E+00  9.000E+00
#rwgt            2          11   1.8044999518245287E-003           9      239928           0
</event>
<event>
      5   9999  3.19816E-02  1.37251E+02 -1.00000E+00  1.17943E-01
      21    -1     0     0   502   512  0.000000000E+00  0.000000000E+00  6.756083001E+02  6.756083001E+02  0.000000000E+00  0.00000E+00  9.000E+00
      21    -1     0     0   501   502  0.000000000E+00  0.000000000E+00 -1.992671731E+03  1.992671731E+03  0.000000000E+00  0.00000E+00  9.000E+00
      25     1     1     2     0     0  2.742882632E+02 -3.631445144E+02 -7.518065962E+02  8.876633076E+02  1.250000000E+02  0.00000E+00  9.000E+00
      25     1     1     2     0     0 -1.372909358E+02  3.714876657E+02 -1.127661828E+03  1.201706322E+03  1.250000000E+02  0.00000E+00  9.000E+00
      21     1     1     2   501   512 -1.369973273E+02 -8.343151279E+00  5.624049934E+02  5.789104011E+02  1.078959322E-05  0.00000E+00  9.000E+00
#rwgt            1           1   2.9952350271705092E-002           9      239948           0
</event>
<event>
      5   9999  3.19816E-02  4.21380E+01 -1.00000E+00  1.43451E-01
      21    -1     0     0   502   501  0.000000000E+00  0.000000000E+00  7.275396086E+02  7.275396086E+02  0.000000000E+00  0.00000E+00  9.000E+00
      21    -1     0     0   511   502  0.000000000E+00  0.000000000E+00 -1.801340481E+02  1.801340481E+02  0.000000000E+00  0.00000E+00  9.000E+00
      25     1     1     2     0     0  4.051503509E+01  3.219176177E+02  3.067082620E+02  4.636457469E+02  1.250000000E+02  0.00000E+00  9.000E+00
      25     1     1     2     0     0 -5.175788617E+01 -2.813071360E+02  2.511164810E+02  4.006208564E+02  1.250000000E+02  0.00000E+00  9.000E+00
      21     1     1     2   511   501  1.124285108E+01 -4.061048167E+01 -1.041918243E+01  4.340705340E+01  2.064765462E-07  0.00000E+00  9.000E+00
#rwgt            1           1   3.1487896138263916E-002           9      240029           0
</event>
<event>
      5   9999  3.19816E-02  3.75751E+01 -1.00000E+00  1.46545E-01
      21    -1     0     0   502   501  0.000000000E+00  0.000000000E+00  1.665257712E+03  1.665257712E+03  0.000000000E+00  0.00000E+00  9.000E+00
      21    -1     0     0   501   512  0.000000000E+00  0.000000000E+00 -4.241522831E+01  4.241522831E+01  0.000000000E+00  0.00000E+00  9.000E+00
      25     1     1     2     0     0 -1.664967287E+00 -1.734436445E+02  4.088488849E+02  4.613760728E+02  1.250000000E+02  0.00000E+00  9.000E+00
      25     1     1     2     0     0  3.910884184E+01  1.765810856E+02  1.159154457E+03  1.179819663E+03  1.250000000E+02  0.00000E+00  9.000E+00
      21     1     1     2   502   512 -3.744387455E+01 -3.137441125E+00  5.483914176E+01  6.647720472E+01  9.536743164E-07  0.00000E+00  9.000E+00
#rwgt            1           1   3.0646368879765008E-002           9      240119           0
</event>
<event>
      5   9999  3.19816E-02  3.69340E+01 -1.00000E+00  1.47021E-01
      21    -1     0     0   502   501  0.000000000E+00  0.000000000E+00  7.557844387E+01  7.557844387E+01  0.000000000E+00  0.00000E+00  9.000E+00
      21    -1     0     0   511   502  0.000000000E+00  0.000000000E+00 -2.338532590E+03  2.338532590E+03  0.000000000E+00  0.00000E+00  9.000E+00
      25     1     1     2     0     0 -1.197819064E+02  3.235783840E+02 -6.260228663E+02  7.256585318E+02  1.250000000E+02  0.00000E+00  9.000E+00
      25     1     1     2     0     0  8.358531055E+01 -3.162347013E+02 -1.202291240E+03  1.252246029E+03  1.250000000E+02  0.00000E+00  9.000E+00
      21     1     1     2   511   501  3.619659583E+01 -7.343682632E+00 -4.346400401E+02  4.362064737E+02  0.000000000E+00  0.00000E+00  9.000E+00
#rwgt            1           1   2.8342449189910558E-002           9      240213           0
</event>
<event>
      5   9999  3.19816E-02  1.30521E+02 -1.00000E+00  1.18839E-01
      21    -1     0     0   512   501  0.000000000E+00  0.000000000E+00  4.965427764E+02  4.965427764E+02  0.000000000E+00  0.00000E+00  9.000E+00
      21    -1     0     0   501   502  0.000000000E+00  0.000000000E+00 -2.153418303E+02  2.153418303E+02  0.000000000E+00  0.00000E+00  9.000E+00
      25     1     1     2     0     0  2.693533839E+02 -3.588192529E+01  8.270879561E+01  3.103296680E+02  1.250000000E+02  0.00000E+00  9.000E+00
      25     1     1     2     0     0 -1.494004960E+02 -1.556735335E+01  4.586045706E+01  2.007262619E+02  1.250000000E+02  0.00000E+00  9.000E+00
      21     1     1     2   512   502 -1.199528879E+02  5.144927864E+01  1.526316934E+02  2.008286768E+02  1.907348633E-06  0.00000E+00  9.000E+00
#rwgt            1           1   2.7191509662652418E-002           9      240336           0
</event>
<event>
      5   9999  3.19816E-02  1.66696E+02 -1.00000E+00  1.14606E-01
      21    -1     0     0   511   501  0.000000000E+00  0.000000000E+00  3.382460915E+02  3.382460915E+02  0.000000000E+00  0.00000E+00  9.000E+00
      21    -1     0     0   501   502  0.000000000E+00  0.000000000E+00 -7.105360721E+02  7.105360721E+02  0.000000000E+00  0.00000E+00  9.000E+00
      25     1     1     2     0     0 -3.646138617E+02 -5.797533703E+01 -1.559694754E+02  4.198283995E+02  1.250000000E+02  0.00000E+00  9.000E+00
      25     1     1     2     0     0  3.098096690E+02  2.154052247E+02 -2.340990438E+02  4.613120464E+02  1.250000000E+02  0.00000E+00  9.000E+00
      21     1     1     2   511   502  5.480419269E+01 -1.574298877E+02  1.777853867E+01  1.676417177E+02  3.495902609E-06  0.00000E+00  9.000E+00
#rwgt            1           1   2.7791096790234560E-002           9      240406           0
</event>
<event>
      5   9999  3.19816E-02  1.90936E+02 -1.00000E+00  1.12386E-01
       2    -1     0     0   502     0  0.000000000E+00  0.000000000E+00  1.114484703E+03  1.114484703E+03  0.000000000E+00  0.00000E+00  9.000E+00
      21    -1     0     0   501   502  0.000000000E+00  0.000000000E+00 -1.035347708E+03  1.035347708E+03  0.000000000E+00  0.00000E+00  9.000E+00
      25     1     1     2     0     0 -5.805683948E+02  1.705802989E+02 -9.219616347E+01  6.247258855E+02  1.250000000E+02  0.00000E+00  9.000E+00
      25     1     1     2     0     0  4.734676628E+02 -1.251122949E+01 -5.746361151E+02  7.550892817E+02  1.250000000E+02  0.00000E+00  9.000E+00
       2     1     1     2   501     0  1.071007320E+02 -1.580690694E+02  7.459692740E+02  7.700172435E+02  1.078959322E-05  0.00000E+00  9.000E+00
#rwgt            1           1   2.3276545543418580E-002           9      240464           0
</event>
<event>
      5   9999  3.19816E-02  2.14350E+02 -1.00000E+00  1.10563E-01
      21    -1     0     0   502   501  0.000000000E+00  0.000000000E+00  6.359949853E+02  6.359949853E+02  0.000000000E+00  0.00000E+00  9.000E+00
      21    -1     0     0   501   511  0.000000000E+00  0.000000000E+00 -4.775924391E+02  4.775924391E+02  0.000000000E+00  0.00000E+00  9.000E+00
      25     1     1     2     0     0 -2.965942265E+02  3.203010056E+02  1.330163322E+02  4.731587619E+02  1.250000000E+02  0.00000E+00  9.000E+00
      25     1     1     2     0     0  8.797705315E+01 -3.695436277E+02  1.021470003E+02  4.127486697E+02  1.250000000E+02  0.00000E+00  9.000E+00
      21     1     1     2   502   511  2.086171733E+02  4.924262212E+01 -7.676078627E+01  2.276799928E+02  4.264961200E-06  0.00000E+00  9.000E+00
#rwgt            2          11   3.8688032636202767E-003           9      240506           0
</event>
<event>
      5   9999  3.19816E-02  3.88747E+01 -1.00000E+00  1.45613E-01
      21    -1     0     0   502   501  0.000000000E+00  0.000000000E+00  1.255495776E+02  1.255495776E+02  0.000000000E+00  0.00000E+00  9.000E+00
       2    -1     0     0   501     0  0.000000000E+00  0.000000000E+00 -1.622061955E+03  1.622061955E+03  0.000000000E+00  0.00000E+00  9.000E+00
      25     1     1     2     0     0  6.281973375E+01  1.075552090E+02 -3.082960951E+02  3.552265815E+02  1.250000000E+02  0.00000E+00  9.000E+00
      25     1     1     2     0     0 -9.989630674E+01 -1.192415854E+02  3.939548697E+00  1.995954604E+02  1.250000000E+02  0.00000E+00  9.000E+00
       2     1     1     2   502     0  3.707657299E+01  1.168637636E+01 -1.192155831E+03  1.192789491E+03  1.525878906E-05  0.00000E+00  9.000E+00
#rwgt            1           1   2.6299627007820788E-002           9      240571           0
</event>
<event>
      5   9999  3.19816E-02  1.54616E+02 -1.00000E+00  1.15874E-01
      21    -1     0     0   502   501  0.000000000E+00  0.000000000E+00  7.083561890E+02  7.083561890E+02  0.000000000E+00  0.00000E+00  9.000E+00
      21    -1     0     0   501   511  0.000000000E+00  0.000000000E+00 -3.804441269E+02  3.804441269E+02  0.000000000E+00  0.00000E+00  9.000E+00
      25     1     1     2     0     0 -2.775086395E+02  4.055222681E+01 -1.020964743E+02  3.235803118E+02  1.250000000E+02  0.00000E+00  9.000E+00
      25     1     1     2     0     0  2.098217724E+02 -1.795651063E+02  5.083626349E+02  5.918837488E+02  1.250000000E+02  0.00000E+00  9.000E+00
      21     1     1     2   502   511  6.768686711E+01  1.390128795E+02 -7.835409853E+01  1.733362553E+02  1.651812370E-06  0.00000E+00  9.000E+00
#rwgt            1           1   2.8824747002561015E-002           9      240676           0
</event>
<event>
      5   9999  3.19816E-02  2.58960E+01 -1.00000E+00  1.57614E-01
      21    -1     0     0   502   501  0.000000000E+00  0.000000000E+00  6.828763936E+02  6.828763936E+02  0.000000000E+00  0.00000E+00  9.000E+00
      21    -1     0     0   501   512  0.000000000E+00  0.000000000E+00 -2.366169601E+02  2.366169601E+02  0.000000000E+00  0.00000E+00  9.000E+00
      25     1     1     2     0     0  2.343152975E+02 -2.163679593E+02  1.701385752E+02  3.824799174E+02  1.250000000E+02  0.00000E+00  9.000E+00
      25     1     1     2     0     0 -2.294928104E+02  2.418109501E+02  3.247625885E+02  4.819079004E+02  1.250000000E+02  0.00000E+00  9.000E+00
      21     1     1     2   502   512 -4.822487092E+00 -2.544299078E+01 -4.864173023E+01  5.510553585E+01  6.743495762E-07  0.00000E+00  9.000E+00
#rwgt            1           1   2.8802204826977762E-002           9      240720           0
</event>
<event>
      5   9999  3.19816E-02  6.07489E+01 -1.00000E+00  1.34416E-01
      21    -1     0     0   502   501  0.000000000E+00  0.000000000E+00  2.415514606E+02  2.415514606E+02  0.000000000E+00  0.00000E+00  9.000E+00
       2    -1     0     0   501     0  0.000000000E+00  0.000000000E+00 -2.549884851E+03  2.549884851E+03  0.000000000E+00  0.00000E+00  9.000E+00
      25     1     1     2     0     0  2.364276503E+02  1.698724596E+02 -1.515124183E+02  3.511918269E+02  1.250000000E+02  0.00000E+00  9.000E+00
      25     1     1     2     0     0 -2.368519631E+02 -1.091250727E+02 -6.704422161E+00  2.892699141E+02  1.250000000E+02  0.00000E+00  9.000E+00
       2     1     1     2   502     0  4.243127972E-01 -6.074738687E+01 -2.150116550E+03  2.150974570E+03  3.051757812E-05  0.00000E+00  9.000E+00
#rwgt            1           1   2.8751662759829263E-002           9      240859           0
</event>
<event>
      5   9999  3.19816E-02  1.85755E+02 -1.00000E+00  1.12829E-01
      21    -1     0     0   502   501  0.000000000E+00  0.000000000E+00  1.487527869E+03  1.487527869E+03  0.000000000E+00  0.00000E+00  9.000E+00
      21    -1     0     0   501   511  0.000000000E+00  0.000000000E+00 -8.662493817E+02  8.662493817E+02  0.000000000E+00  0.00000E+00  9.000E+00
      25     1     1     2     0     0 -2.727281244E+02  2.575817532E+02  4.089912830E+02  5.688829923E+02  1.250000000E+02  0.00000E+00  9.000E+00
      25     1     1     2     0     0  4.494728708E+02 -2.004302945E+02  9.212965099E+02  1.051955524E+03  1.250000000E+02  0.00000E+00  9.000E+00
      21     1     1     2   502   511 -1.767447464E+02 -5.715145862E+01 -7.090093052E+02  7.329387352E+02  0.000000000E+00  0.00000E+00  9.000E+00
#rwgt            2          11   8.4918915493573562E-003           9      241482           0
</event>
<event>
      5   9999  3.19816E-02  1.59175E+01 -1.00000E+00  1.74989E-01
      21    -1     0     0   502   501  0.000000000E+00  0.000000000E+00  7.349252371E+02  7.349252371E+02  0.000000000E+00  0.00000E+00  9.000E+00
      21    -1     0     0   501   512  0.000000000E+00  0.000000000E+00 -5.698541547E+02  5.698541547E+02  0.000000000E+00  0.00000E+00  9.000E+00
      25     1     1     2     0     0 -8.589037599E+01 -1.576075005E+02 -5.253609471E+02  5.690750440E+02  1.250000000E+02  0.00000E+00  9.000E+00
      25     1     1     2     0     0  7.219170389E+01  1.495012144E+02  6.890737539E+02  7.197290418E+02  1.250000000E+02  0.00000E+00  9.000E+00
      21     1     1     2   502   512  1.369867210E+01  8.106286126E+00  1.358275574E+00  1.597530609E+01  8.815645848E-08  0.00000E+00  9.000E+00
#rwgt            1           1   2.2767991879045681E-002           9      241502           0
</event>
<event>
      5   9999  3.19816E-02  8.31664E+01 -1.00000E+00  1.27539E-01
      21    -1     0     0   502   501  0.000000000E+00  0.000000000E+00  5.097325912E+02  5.097325912E+02  0.000000000E+00  0.00000E+00  9.000E+00
       2    -1     0     0   501     0  0.000000000E+00  0.000000000E+00 -4.973705518E+02  4.973705518E+02  0.000000000E+00  0.00000E+00  9.000E+00
      25     1     1     2     0     0  4.698528528E+00 -2.736149228E+02  2.817889432E+02  4.122101535E+02  1.250000000E+02  0.00000E+00  9.000E+00
      25     1     1     2     0     0  6.136033703E+01  3.241409758E+02 -4.511306486E+01  3.556580546E+02  1.250000000E+02  0.00000E+00  9.000E+00
       2     1     1     2   502     0 -6.605886556E+01 -5.052605303E+01 -2.243138389E+02  2.392349349E+02  3.814697266E-06  0.00000E+00  9.000E+00
#rwgt            1           1   3.1216926267910498E-002           9      241753           0
</event>
<event>
      5   9999  3.19816E-02  6.01697E+01 -1.00000E+00  1.34638E-01
      21    -1     0     0   502   511  0.000000000E+00  0.000000000E+00  1.156391785E+03  1.156391785E+03  0.000000000E+00  0.00000E+00  9.000E+00
      21    -1     0     0   501   502  0.000000000E+00  0.000000000E+00 -2.877604575E+02  2.877604575E+02  0.000000000E+00  0.00000E+00  9.000E+00
      25     1     1     2     0     0  1.998695405E+02 -9.546448569E+00 -1.547570280E+02  2.821590077E+02  1.250000000E+02  0.00000E+00  9.000E+00
      25     1     1     2     0     0 -1.511681651E+02 -2.578864252E+01  7.481943571E+01  2.115178862E+02  1.250000000E+02  0.00000E+00  9.000E+00
      21     1     1     2   501   511 -4.870137544E+01  3.533509109E+01  9.485689198E+02  9.504753485E+02  1.078959322E-05  0.00000E+00  9.000E+00
#rwgt            1           1   2.6242408466204105E-002           9      241818           0
</event>
<event>
      5   9999  3.19816E-02  2.14491E+02 -1.00000E+00  1.10553E-01
      21    -1     0     0   512   501  0.000000000E+00  0.000000000E+00  1.210366294E+03  1.210366294E+03  0.000000000E+00  0.00000E+00  9.000E+00
      21    -1     0     0   501   502  0.000000000E+00  0.000000000E+00 -6.803924325E+02  6.803924325E+02  0.000000000E+00  0.00000E+00  9.000E+00
      25     1     1     2     0     0 -5.194961640E+01 -3.069307442E+02  1.785624665E+02  3.800194717E+02  1.250000000E+02  0.00000E+00  9.000E+00
      25     1     1     2     0     0 -9.593085163E+00  5.124026079E+02 -4.423938256E+02  6.884662350E+02  1.250000000E+02  0.00000E+00  9.000E+00
      21     1     1     2   512   502  6.154270156E+01 -2.054718637E+02  7.938052202E+02  8.222730194E+02  0.000000000E+00  0.00000E+00  9.000E+00
#rwgt            1           1   2.7633547986246291E-002           9      241900           0
</event>
<event>
      5   9999  3.19816E-02  2.27624E+01 -1.00000E+00  1.61863E-01
      21    -1     0     0   502   511  0.000000000E+00  0.000000000E+00  2.672728720E+01  2.672728720E+01  0.000000000E+00  0.00000E+00  9.000E+00
      21    -1     0     0   501   502  0.000000000E+00  0.000000000E+00 -2.253759630E+03  2.253759630E+03  0.000000000E+00  0.00000E+00  9.000E+00
      25     1     1     2     0     0 -1.125432597E+02  1.129806199E+02 -5.313665779E+02  5.686880040E+02  1.250000000E+02  0.00000E+00  9.000E+00
      25     1     1     2     0     0  1.322598814E+02 -1.016060027E+02 -1.596882780E+03  1.610427293E+03  1.250000000E+02  0.00000E+00  9.000E+00
      21     1     1     2   501   511 -1.971662172E+01 -1.137461726E+01 -9.878298584E+01  1.013716202E+02  1.348699152E-06  0.00000E+00  9.000E+00
#rwgt            1           1   8.6456899215197086E-002           9      241970           0
</event>
<event>
      5   9999  3.19816E-02  1.08197E+02 -1.00000E+00  1.22308E-01
      21    -1     0     0   502   501  0.000000000E+00  0.000000000E+00  6.724808052E+02  6.724808052E+02  0.000000000E+00  0.00000E+00  9.000E+00
      21    -1     0     0   501   512  0.000000000E+00  0.000000000E+00 -1.612000962E+03  1.612000962E+03  0.000000000E+00  0.00000E+00  9.000E+00
      25     1     1     2     0     0  5.682150236E+02 -6.216333719E+02 -5.111870422E+02  9.930929233E+02  1.250000000E+02  0.00000E+00  9.000E+00
      25     1     1     2     0     0 -4.952695211E+02  7.015426441E+02 -1.901227099E+01  8.680094737E+02  1.250000000E+02  0.00000E+00  9.000E+00
      21     1     1     2   502   512 -7.294550251E+01 -7.990927222E+01 -4.093208437E+02  4.233793703E+02  0.000000000E+00  0.00000E+00  9.000E+00
#rwgt            1           1   3.1802022337572844E-002           9      242099           0
</event>
<event>
      5   9999  3.19816E-02  1.13321E+02 -1.00000E+00  1.21434E-01
      21    -1     0     0   502   511  0.000000000E+00  0.000000000E+00  9.821166778E+01  9.821166778E+01  0.000000000E+00  0.00000E+00  9.000E+00
      21    -1     0     0   501   502  0.000000000E+00  0.000000000E+00 -1.651368825E+03  1.651368825E+03  0.000000000E+00  0.00000E+00  9.000E+00
      25     1     1     2     0     0 -2.413757146E+01 -1.858447776E+02 -4.820749391E+02  5.321110323E+02  1.250000000E+02  0.00000E+00  9.000E+00
      25     1     1     2     0     0 -3.027590532E+01  2.852468288E+02 -1.058113460E+03  1.103409025E+03  1.250000000E+02  0.00000E+00  9.000E+00
      21     1     1     2   501   511  5.441347679E+01 -9.940205118E+01 -1.296875875E+01  1.140604355E+02  1.498437535E-06  0.00000E+00  9.000E+00
#rwgt            1           1   2.8676890493576943E-002           9      242197           0
</event>
<event>
      5   9999  3.19816E-02  8.24861E+01 -1.00000E+00  1.27709E-01
      21    -1     0     0   512   501  0.000000000E+00  0.000000000E+00  4.242066511E+02  4.242066511E+02  0.000000000E+00  0.00000E+00  9.000E+00
      21    -1     0     0   501   502  0.000000000E+00  0.000000000E+00 -2.806808264E+02  2.806808264E+02  0.000000000E+00  0.00000E+00  9.000E+00
      25     1     1     2     0     0  1.321563129E+02  1.568638727E+02 -2.530243250E+01  2.415300782E+02  1.250000000E+02  0.00000E+00  9.000E+00
      25     1     1     2     0     0 -1.496628151E+02 -2.374708006E+02  3.927323663E+01  3.097720557E+02  1.250000000E+02  0.00000E+00  9.000E+00
      21     1     1     2   512   502  1.750650222E+01  8.060692791E+01  1.295550206E+02  1.535853437E+02  0.000000000E+00  0.00000E+00  9.000E+00
#rwgt            1           1   2.8865062001404849E-002           9      242247           0
</event>
<event>
      5   9999  3.19816E-02  4.27447E+01 -1.00000E+00  1.43075E-01
      21    -1     0     0   511   501  0.000000000E+00  0.000000000E+00  5.344699511E+02  5.344699511E+02  0.000000000E+00  0.00000E+00  9.000E+00
      21    -1     0     0   501   502  0.000000000E+00  0.000000000E+00 -7.538285456E+02  7.538285456E+02  0.000000000E+00  0.00000E+00  9.000E+00
      25     1     1     2     0     0 -4.257774573E+01 -1.468602641E+02 -6.961603062E+02  7.236331760E+02  1.250000000E+02  0.00000E+00  9.000E+00
      25     1     1     2     0     0  5.551475843E+01  1.876001706E+02  4.659166496E+02  5.205564684E+02  1.250000000E+02  0.00000E+00  9.000E+00
      21     1     1     2   511   502 -1.293701270E+01 -4.073990649E+01  1.088506203E+01  4.410885232E+01  4.768371582E-07  0.00000E+00  9.000E+00
#rwgt            1           1   3.4838005225344949E-002           9      242295           0
</event>
<event>
      5   9999  3.19816E-02  2.10825E+01 -1.00000E+00  1.64502E-01
      21    -1     0     0   502   501  0.000000000E+00  0.000000000E+00  8.676186030E+01  8.676186030E+01  0.000000000E+00  0.00000E+00  9.000E+00
      21    -1     0     0   501   512  0.000000000E+00  0.000000000E+00 -2.425316511E+02  2.425316511E+02  0.000000000E+00  0.00000E+00  9.000E+00
      25     1     1     2     0     0  1.838187283E+01  1.314644321E+01 -1.120879241E+02  1.694090462E+02  1.250000000E+02  0.00000E+00  9.000E+00
      25     1     1     2     0     0 -2.192862181E+01  7.635553067E+00 -2.090061708E+01  1.288448754E+02  1.250000000E+02  0.00000E+00  9.000E+00
      21     1     1     2   502   512  3.546748984E+00 -2.078199628E+01 -2.278124956E+01  3.103958970E+01  5.840038640E-07  0.00000E+00  9.000E+00
#rwgt            1           1   4.0608796964752758E-003           9      242411           0
</event>
<event>
      5   9999  3.19816E-02  2.91452E+02 -1.00000E+00  1.06002E-01
      21    -1     0     0   502   501  0.000000000E+00  0.000000000E+00  4.274170603E+02  4.274170603E+02  0.000000000E+00  0.00000E+00  9.000E+00
      21    -1     0     0   511   502  0.000000000E+00  0.000000000E+00 -1.791515897E+03  1.791515897E+03  0.000000000E+00  0.00000E+00  9.000E+00
      25     1     1     2     0     0  4.945951243E+02 -1.886820851E+02 -2.235672984E+02  5.880753380E+02  1.250000000E+02  0.00000E+00  9.000E+00
      25     1     1     2     0     0 -7.252325673E+02  3.668686641E+02 -6.040567820E+02  1.020325678E+03  1.250000000E+02  0.00000E+00  9.000E+00
      21     1     1     2   511   501  2.306374430E+02 -1.781865790E+02 -5.364747563E+02  6.105319412E+02  0.000000000E+00  0.00000E+00  9.000E+00
#rwgt            1           1   3.6691624824818442E-002           9      242508           0
</event>
<event>
      5   9999  3.19816E-02  6.24880E+01 -1.00000E+00  1.33767E-01
      21    -1     0     0   512   501  0.000000000E+00  0.000000000E+00  2.942156738E+03  2.942156738E+03  0.000000000E+00  0.00000E+00  9.000E+00
      21    -1     0     0   501   502  0.000000000E+00  0.000000000E+00 -4.138063738E+02  4.138063738E+02  0.000000000E+00  0.00000E+00  9.000E+00
      25     1     1     2     0     0  8.343878602E+02 -2.810407056E+02  3.583221713E+02  9.587527094E+02  1.250000000E+02  0.00000E+00  9.000E+00
      25     1     1     2     0     0 -7.762800178E+02  2.580575356E+02  1.412177732E+03  1.636788106E+03  1.250000000E+02  0.00000E+00  9.000E+00
      21     1     1     2   512   502 -5.810784242E+01  2.298317002E+01  7.578504610E+02  7.604222963E+02  1.078959322E-05  0.00000E+00  9.000E+00
#rwgt            1           1   2.2761824316729108E-002           9      242604           0
</event>
<event>
      5   9999  3.19816E-02  1.46814E+02 -1.00000E+00  1.16764E-01
      -4    -1     0     0     0   501  0.000000000E+00  0.000000000E+00  8.394968599E+02  8.394968599E+02  0.000000000E+00  0.00000E+00  9.000E+00
      21    -1     0     0   501   502  0.000000000E+00  0.000000000E+00 -1.836488249E+03  1.836488249E+03  0.000000000E+00  0.00000E+00  9.000E+00
      25     1     1     2     0     0 -2.684092888E+02  4.474798155E+00 -6.692170437E+02  7.318060000E+02  1.250000000E+02  0.00000E+00  9.000E+00
      25     1     1     2     0     0  1.557524205E+02  8.966791618E+01 -1.118610632E+03  1.139830644E+03  1.250000000E+02  0.00000E+00  9.000E+00
      -4     1     1     2     0   502  1.126568683E+02 -9.414271433E+01  7.908362864E+02  8.043484646E+02  1.525878906E-05  0.00000E+00  9.000E+00
#rwgt            1           1   2.8016732243829934E-002           9      242725           0
</event>
<event>
      5   9999  3.19816E-02  7.38981E+01 -1.00000E+00  1.30040E-01
      21    -1     0     0   502   511  0.000000000E+00  0.000000000E+00  2.901591378E+02  2.901591378E+02  0.000000000E+00  0.00000E+00  9.000E+00
      21    -1     0     0   501   502  0.000000000E+00  0.000000000E+00 -3.502654146E+02  3.502654146E+02  0.000000000E+00  0.00000E+00  9.000E+00
      25     1     1     2     0     0 -1.982004354E+02 -1.612925568E+02 -1.053403736E+02  3.033484725E+02  1.250000000E+02  0.00000E+00  9.000E+00
      25     1     1     2     0     0  1.250881822E+02  1.720410338E+02 -6.607270722E+00  2.468072662E+02  1.250000000E+02  0.00000E+00  9.000E+00
      21     1     1     2   501   511  7.311225320E+01 -1.074847697E+01  5.184136756E+01  9.026881364E+01  9.536743164E-07  0.00000E+00  9.000E+00
#rwgt            1           1   2.8245457956246039E-002           9      242798           0
</event>
<event>
      5   9999  3.19816E-02  1.72224E+02 -1.00000E+00  1.14064E-01
      21    -1     0     0   502   501  0.000000000E+00  0.000000000E+00  4.833197237E+02  4.833197237E+02  0.000000000E+00  0.00000E+00  9.000E+00
       2    -1     0     0   501     0  0.000000000E+00  0.000000000E+00 -1.413380995E+03  1.413380995E+03  0.000000000E+00  0.00000E+00  9.000E+00
      25     1     1     2     0     0 -5.300536522E+02 -3.268594237E+02 -1.531290111E+02  6.533509403E+02  1.250000000E+02  0.00000E+00  9.000E+00
      25     1     1     2     0     0  7.022568860E+02  3.295041180E+02 -7.086408888E+02  1.058080624E+03  1.250000000E+02  0.00000E+00  9.000E+00
       2     1     1     2   502     0 -1.722032338E+02 -2.644694270E+00 -6.829137120E+01  1.852691542E+02  1.651812370E-06  0.00000E+00  9.000E+00
#rwgt            1           1   3.0478053136089051E-002           9      242873           0
</event>
<event>
      5   9999  3.19816E-02  1.53455E+02 -1.00000E+00  1.16003E-01
      21    -1     0     0   502   501  0.000000000E+00  0.000000000E+00  4.860914892E+02  4.860914892E+02  0.000000000E+00  0.00000E+00  9.000E+00
      21    -1     0     0   511   502  0.000000000E+00  0.000000000E+00 -1.168713245E+03  1.168713245E+03  0.000000000E+00  0.00000E+00  9.000E+00
      25     1     1     2     0     0  4.581871452E+02 -2.271827462E+01 -5.589926162E+02  7.338591997E+02  1.250000000E+02  0.00000E+00  9.000E+00
      25     1     1     2     0     0 -4.086001698E+02  1.679411901E+02  2.459023689E+02  5.208179309E+02  1.250000000E+02  0.00000E+00  9.000E+00
      21     1     1     2   511   501 -4.958697544E+01 -1.452229155E+02 -3.695315091E+02  4.001276041E+02  9.344061824E-06  0.00000E+00  9.000E+00
#rwgt            1           1   2.4698024908956468E-002           9      242966           0
</event>
<event>
      5   9999  3.19816E-02  2.96018E+02 -1.00000E+00  1.05781E-01
      21    -1     0     0   512   501  0.000000000E+00  0.000000000E+00  3.966954080E+02  3.966954080E+02  0.000000000E+00  0.00000E+00  9.000E+00
      21    -1     0     0   501   502  0.000000000E+00  0.000000000E+00 -1.442229633E+03  1.442229633E+03  0.000000000E+00  0.00000E+00  9.000E+00
      25     1     1     2     0     0  2.053986918E+02 -6.432447361E+02 -2.738420686E+02  7.393016242E+02  1.250000000E+02  0.00000E+00  9.000E+00
      25     1     1     2     0     0 -2.513070502E+02  3.508078371E+02 -6.237163387E+02  7.686796753E+02  1.250000000E+02  0.00000E+00  9.000E+00
      21     1     1     2   512   502  4.590835842E+01  2.924368990E+02 -1.479758172E+02  3.309437411E+02  7.136645101E-06  0.00000E+00  9.000E+00
#rwgt            1           1   3.1822616843991708E-002           9      243058           0
</event>
<event>
      5   9999  3.57008E-02  2.01543E+01 -1.00000E+00  1.66094E-01
      21    -1     0     0   502   501  0.000000000E+00  0.000000000E+00  1.672953331E+03  1.672953331E+03  0.000000000E+00  0.00000E+00  9.000E+00
       2    -1     0     0   501     0  0.000000000E+00  0.000000000E+00 -2.380494713E+02  2.380494713E+02  0.000000000E+00  0.00000E+00  9.000E+00
      25     1     1     2     0     0  1.087456718E+02 -7.390288629E+01  9.910340990E+02  1.007502279E+03  1.250000000E+02  0.00000E+00  9.000E+00
      25     1     1     2     0     0 -8.895239798E+01  7.010504931E+01  6.626562734E+02  6.837876744E+02  1.250000000E+02  0.00000E+00  9.000E+00
       2     1     1     2   502     0 -1.979327380E+01  3.797836980E+00 -2.187865131E+02  2.197128480E+02  4.672030912E-06  0.00000E+00  9.000E+00
#rwgt            1           1  0.10424068068597661                9      243131           0
</event>
<event>
      5   9999  3.19816E-02  1.16399E+02 -1.00000E+00  1.20933E-01
      21    -1     0     0   502   501  0.000000000E+00  0.000000000E+00  8.001410247E+02  8.001410247E+02  0.000000000E+00  0.00000E+00  9.000E+00
      21    -1     0     0   501   511  0.000000000E+00  0.000000000E+00 -8.674695141E+02  8.674695141E+02  0.000000000E+00  0.00000E+00  9.000E+00
      25     1     1     2     0     0  3.766982376E+02 -3.119704507E+02 -6.587939966E+01  5.091092414E+02  1.250000000E+02  0.00000E+00  9.000E+00
      25     1     1     2     0     0 -3.066539256E+02  4.049360549E+02  4.513956016E+02  6.909361965E+02  1.250000000E+02  0.00000E+00  9.000E+00
      21     1     1     2   502   511 -7.004431208E+01 -9.296560415E+01 -4.528446913E+02  4.675651009E+02  9.344061824E-06  0.00000E+00  9.000E+00
#rwgt            1           1   3.1864276011749487E-002           9      243270           0
</event>
<event>
      5   9999  3.19816E-02  2.78125E+02 -1.00000E+00  1.06671E-01
      21    -1     0     0   502   501  0.000000000E+00  0.000000000E+00  2.482740839E+03  2.482740839E+03  0.000000000E+00  0.00000E+00  9.000E+00
      21    -1     0     0   501   512  0.000000000E+00  0.000000000E+00 -4.865510510E+02  4.865510510E+02  0.000000000E+00  0.00000E+00  9.000E+00
      25     1     1     2     0     0 -4.563351215E+02 -4.751704341E+02  1.490396549E+03  1.634299715E+03  1.250000000E+02  0.00000E+00  9.000E+00
      25     1     1     2     0     0  5.506090491E+02  7.368304272E+02  2.604804090E+02  9.641392259E+02  1.250000000E+02  0.00000E+00  9.000E+00
      21     1     1     2   502   512 -9.427392759E+01 -2.616599931E+02  2.453128298E+02  3.708529492E+02  2.697398305E-06  0.00000E+00  9.000E+00
#rwgt            2          11   6.2760846094983575E-003           9      243402           0
</event>
<event>
      5   9999  3.19816E-02  1.88129E+02 -1.00000E+00  1.12624E-01
      21    -1     0     0   502   501  0.000000000E+00  0.000000000E+00  1.717498660E+03  1.717498660E+03  0.000000000E+00  0.00000E+00  9.000E+00
      21    -1     0     0   511   502  0.000000000E+00  0.000000000E+00 -1.052347297E+02  1.052347297E+02  0.000000000E+00  0.00000E+00  9.000E+00
      25     1     1     2     0     0 -2.299324129E+02  1.869736282E+02  6.970072309E+02  7.676406269E+02  1.250000000E+02  0.00000E+00  9.000E+00
      25     1     1     2     0     0  3.066237567E+02 -1.518609875E+01  6.533025957E+02  7.325831198E+02  1.250000000E+02  0.00000E+00  9.000E+00
      21     1     1     2   511   501 -7.669134379E+01 -1.717875295E+02  2.619541041E+02  3.225096435E+02  0.000000000E+00  0.00000E+00  9.000E+00
#rwgt            1           1   2.8785735350901731E-002           9      243422           0
</event>
<event>
      5   9999  3.19816E-02  4.03303E+02 -1.00000E+00  1.01578E-01
       2    -1     0     0   502     0  0.000000000E+00  0.000000000E+00  3.949813301E+03  3.949813301E+03  0.000000000E+00  0.00000E+00  9.000E+00
      21    -1     0     0   501   502  0.000000000E+00  0.000000000E+00 -5.480787985E+02  5.480787985E+02  0.000000000E+00  0.00000E+00  9.000E+00
      25     1     1     2     0     0  4.063459919E+02 -8.350831937E+01 -4.320540144E+02  6.118712086E+02  1.250000000E+02  0.00000E+00  9.000E+00
      25     1     1     2     0     0 -5.441096423E+01 -1.134554836E+02  5.582679195E+02  5.857651148E+02  1.250000000E+02  0.00000E+00  9.000E+00
       2     1     1     2   501     0 -3.519350277E+02  1.969638030E+02  3.275520598E+03  3.300255777E+03  0.000000000E+00  0.00000E+00  9.000E+00
#rwgt            1           1   3.0090068126936338E-002           9      243471           0
</event>
<event>
      5   9999  3.19816E-02  4.42612E+01 -1.00000E+00  1.42165E-01
      21    -1     0     0   502   501  0.000000000E+00  0.000000000E+00  1.696847410E+02  1.696847410E+02  0.000000000E+00  0.00000E+00  9.000E+00
      21    -1     0     0   501   511  0.000000000E+00  0.000000000E+00 -1.083518346E+03  1.083518346E+03  0.000000000E+00  0.00000E+00  9.000E+00
      25     1     1     2     0     0  8.923709586E+01  3.496582729E+02 -3.677182044E+02  5.301564344E+02  1.250000000E+02  0.00000E+00  9.000E+00
      25     1     1     2     0     0 -4.656811719E+01 -3.614230786E+02 -3.451056739E+02  5.172215748E+02  1.250000000E+02  0.00000E+00  9.000E+00
      21     1     1     2   502   511 -4.266897867E+01  1.176480575E+01 -2.010097272E+02  2.058250782E+02  2.697398305E-06  0.00000E+00  9.000E+00
#rwgt            1           1   2.8089250758340092E-002           9      243533           0
</event>
<event>
      5   9999  3.19816E-02  1.25057E+02 -1.00000E+00  1.19612E-01
       2    -1     0     0   502     0  0.000000000E+00  0.000000000E+00  1.251901304E+03  1.251901304E+03  0.000000000E+00  0.00000E+00  9.000E+00
      21    -1     0     0   501   502  0.000000000E+00  0.000000000E+00 -2.747399882E+02  2.747399882E+02  0.000000000E+00  0.00000E+00  9.000E+00
      25     1     1     2     0     0  3.143813779E+02 -8.624409623E+01  6.522368418E+02  7.398051045E+02  1.250000000E+02  0.00000E+00  9.000E+00
      25     1     1     2     0     0 -3.443958242E+02 -3.515771156E+01 -6.817610053E+01  3.743227606E+02  1.250000000E+02  0.00000E+00  9.000E+00
       2     1     1     2   501     0  3.001444631E+01  1.214018078E+02  3.931005744E+02  4.125134270E+02  5.394796609E-06  0.00000E+00  9.000E+00
#rwgt            2          18   6.3528254071246117E-004           9      243947           0
</event>
<event>
      5   9999  3.19816E-02  1.10562E+02 -1.00000E+00  1.21898E-01
      21    -1     0     0   502   511  0.000000000E+00  0.000000000E+00  5.982599097E+02  5.982599097E+02  0.000000000E+00  0.00000E+00  9.000E+00
      21    -1     0     0   501   502  0.000000000E+00  0.000000000E+00 -1.459187220E+03  1.459187220E+03  0.000000000E+00  0.00000E+00  9.000E+00
      25     1     1     2     0     0 -3.335591044E+02 -3.281511347E+02  1.028114722E+02  4.951161905E+02  1.250000000E+02  0.00000E+00  9.000E+00
      25     1     1     2     0     0  2.528412105E+02  2.525959956E+02 -1.223112431E+03  1.280375896E+03  1.250000000E+02  0.00000E+00  9.000E+00
      21     1     1     2   501   511  8.071789385E+01  7.555513911E+01  2.593736483E+02  2.819550440E+02  3.814697266E-06  0.00000E+00  9.000E+00
#rwgt            1           1   2.6754083028578481E-002           9      243981           0
</event>
<event>
      5   9999  3.19816E-02  1.24853E+02 -1.00000E+00  1.19642E-01
       2    -1     0     0   502     0  0.000000000E+00  0.000000000E+00  8.142540573E+02  8.142540573E+02  0.000000000E+00  0.00000E+00  9.000E+00
      21    -1     0     0   501   502  0.000000000E+00  0.000000000E+00 -1.298522907E+03  1.298522907E+03  0.000000000E+00  0.00000E+00  9.000E+00
      25     1     1     2     0     0  6.747045159E+02  2.505010938E+02 -6.440402706E+02  9.738530957E+02  1.250000000E+02  0.00000E+00  9.000E+00
      25     1     1     2     0     0 -7.647020028E+02 -1.639635920E+02 -1.489662461E+02  8.058964915E+02  1.250000000E+02  0.00000E+00  9.000E+00
       2     1     1     2   501     0  8.999748681E+01 -8.653750178E+01  3.087376670E+02  3.330273771E+02  3.814697266E-06  0.00000E+00  9.000E+00
#rwgt            1           1   3.0827305409184519E-002           9      244085           0
</event>
<event>
      5   9999  3.19816E-02  2.10485E+01 -1.00000E+00  1.64559E-01
       2    -1     0     0   502     0  0.000000000E+00  0.000000000E+00  7.598508115E+02  7.598508115E+02  0.000000000E+00  0.00000E+00  9.000E+00
      21    -1     0     0   501   502  0.000000000E+00  0.000000000E+00 -6.756993972E+02  6.756993972E+02  0.000000000E+00  0.00000E+00  9.000E+00
      25     1     1     2     0     0  2.544796403E+02  3.562614544E+02 -1.168518382E+02  4.700653819E+02  1.250000000E+02  0.00000E+00  9.000E+00
      25     1     1     2     0     0 -2.711359217E+02 -3.691302787E+02 -2.344703874E+02  5.295027981E+02  1.250000000E+02  0.00000E+00  9.000E+00
       2     1     1     2   501     0  1.665628143E+01  1.286882429E+01  4.354736398E+02  4.359820287E+02  5.394796609E-06  0.00000E+00  9.000E+00
#rwgt            1           1   3.1933244606053693E-002           9      244163           0
</event>
<event>
      5   9999  3.19816E-02  2.87014E+01 -1.00000E+00  1.54387E-01
      21    -1     0     0   502   501  0.000000000E+00  0.000000000E+00  3.044994237E+02  3.044994237E+02  0.000000000E+00  0.00000E+00  9.000E+00
      21    -1     0     0   511   502  0.000000000E+00  0.000000000E+00 -1.706001049E+02  1.706001049E+02  0.000000000E+00  0.00000E+00  9.000E+00
      25     1     1     2     0     0  1.143926541E+01 -7.162822315E+01 -5.503014236E+01  1.546440290E+02  1.250000000E+02  0.00000E+00  9.000E+00
      25     1     1     2     0     0 -2.522395334E+01  4.645382851E+01  2.319510568E+02  2.687387184E+02  1.250000000E+02  0.00000E+00  9.000E+00
      21     1     1     2   511   501  1.378468793E+01  2.517439464E+01 -4.302159562E+01  5.171678119E+01  9.536743164E-07  0.00000E+00  9.000E+00
#rwgt            1           1   3.0066403413035910E-002           9      244384           0
</event>
<event>
      5   9999  3.19816E-02  5.03435E+01 -1.00000E+00  1.38906E-01
      21    -1     0     0   512   501  0.000000000E+00  0.000000000E+00  3.568047383E+02  3.568047383E+02  0.000000000E+00  0.00000E+00  9.000E+00
      21    -1     0     0   501   502  0.000000000E+00  0.000000000E+00 -2.162991657E+02  2.162991657E+02  0.000000000E+00  0.00000E+00  9.000E+00
      25     1     1     2     0     0  1.140992120E+02 -1.387878170E+02  1.731081150E+02  2.790557432E+02  1.250000000E+02  0.00000E+00  9.000E+00
      25     1     1     2     0     0 -6.998964884E+01  1.630533192E+02 -7.353242723E+01  2.291657778E+02  1.250000000E+02  0.00000E+00  9.000E+00
      21     1     1     2   512   502 -4.410956317E+01 -2.426550216E+01  4.092988480E+01  6.488238303E+01  1.261592536E-06  0.00000E+00  9.000E+00
#rwgt            1           1   2.5902666250070202E-002           9      244570           0
</event>
<event>
      5   9999  3.46835E-02  6.16802E+01 -1.00000E+00  1.34066E-01
      21    -1     0     0   502   501  0.000000000E+00  0.000000000E+00  1.533938072E+03  1.533938072E+03  0.000000000E+00  0.00000E+00  9.000E+00
      21    -1     0     0   511   502  0.000000000E+00  0.000000000E+00 -9.025160340E+02  9.025160340E+02  0.000000000E+00  0.00000E+00  9.000E+00
      25     1     1     2     0     0  8.265695321E+02  7.889041278E+02  1.917669985E+02  1.165326776E+03  1.250000000E+02  0.00000E+00  9.000E+00
      25     1     1     2     0     0 -8.490290210E+02 -7.314583563E+02  4.371920499E+02  1.209397988E+03  1.250000000E+02  0.00000E+00  9.000E+00
      21     1     1     2   511   501  2.245948896E+01 -5.744577149E+01  2.462990034E+00  6.172934170E+01  6.637292341E-07  0.00000E+00  9.000E+00
#rwgt            1           1   8.0930918917136413E-002           9      244686           0
</event>
<event>
      5   9999  3.19816E-02  1.14516E+02 -1.00000E+00  1.21237E-01
      21    -1     0     0   512   501  0.000000000E+00  0.000000000E+00  3.402309804E+02  3.402309804E+02  0.000000000E+00  0.00000E+00  9.000E+00
      21    -1     0     0   501   502  0.000000000E+00  0.000000000E+00 -5.165367598E+02  5.165367598E+02  0.000000000E+00  0.00000E+00  9.000E+00
      25     1     1     2     0     0 -1.226570017E+02  2.284262991E+02  3.475881197E+01  2.899249716E+02  1.250000000E+02  0.00000E+00  9.000E+00
      25     1     1     2     0     0  1.212282016E+02 -3.429332485E+02 -2.337933505E+02  4.500931243E+02  1.250000000E+02  0.00000E+00  9.000E+00
      21     1     1     2   512   502  1.428800135E+00  1.145069494E+02  2.272875920E+01  1.167496442E+02  1.215700987E-06  0.00000E+00  9.000E+00
#rwgt            1           1   3.3129775475704795E-002           9      244867           0
</event>
<event>
      5   9999  3.19816E-02  3.57432E+01 -1.00000E+00  1.47937E-01
      21    -1     0     0   502   501  0.000000000E+00  0.000000000E+00  1.096610276E+02  1.096610276E+02  0.000000000E+00  0.00000E+00  9.000E+00
      21    -1     0     0   501   511  0.000000000E+00  0.000000000E+00 -1.415520653E+03  1.415520653E+03  0.000000000E+00  0.00000E+00  9.000E+00
      25     1     1     2     0     0 -7.663985078E+01  1.203433399E+02 -1.256676230E+01  1.901028924E+02  1.250000000E+02  0.00000E+00  9.000E+00
      25     1     1     2     0     0  7.392861704E+01 -8.470313335E+01 -3.230612045E+02  3.641889662E+02  1.250000000E+02  0.00000E+00  9.000E+00
      21     1     1     2   502   511  2.711233742E+00 -3.564020659E+01 -9.702316590E+02  9.708898224E+02  1.078959322E-05  0.00000E+00  9.000E+00
#rwgt            1           1   2.6700750252559989E-002           9      244926           0
</event>
<event>
      5   9999  3.19816E-02  3.95234E+01 -1.00000E+00  1.45164E-01
      21    -1     0     0   502   501  0.000000000E+00  0.000000000E+00  3.194060710E+03  3.194060710E+03  0.000000000E+00  0.00000E+00  9.000E+00
      21    -1     0     0   512   502  0.000000000E+00  0.000000000E+00 -8.500057950E+01  8.500057950E+01  0.000000000E+00  0.00000E+00  9.000E+00
      25     1     1     2     0     0  8.351866591E+01 -1.339988883E+02  2.991578423E+03  2.998349134E+03  1.250000000E+02  0.00000E+00  9.000E+00
      25     1     1     2     0     0 -4.962253049E+01  1.136728395E+02  1.485953087E+02  2.304115356E+02  1.250000000E+02  0.00000E+00  9.000E+00
      21     1     1     2   512   501 -3.389613542E+01  2.032604877E+01 -3.111360062E+01  5.030062026E+01  2.311553887E-06  0.00000E+00  9.000E+00
#rwgt            1           1   2.8212855671730472E-002           9      244992           0
</event>
<event>
      5   9999  3.19816E-02  8.76443E+00 -1.00000E+00  2.02620E-01
      21    -1     0     0   502   501  0.000000000E+00  0.000000000E+00  6.135645244E+02  6.135645244E+02  0.000000000E+00  0.00000E+00  9.000E+00
      21    -1     0     0   501   511  0.000000000E+00  0.000000000E+00 -2.276938048E+03  2.276938048E+03  0.000000000E+00  0.00000E+00  9.000E+00
      25     1     1     2     0     0 -1.816618476E+02  9.977743889E+02 -7.860585928E+02  1.289212112E+03  1.250000000E+02  0.00000E+00  9.000E+00
      25     1     1     2     0     0  1.885373482E+02 -9.923390731E+02 -3.535517381E+02  1.077453943E+03  1.250000000E+02  0.00000E+00  9.000E+00
      21     1     1     2   502   511 -6.875500529E+00 -5.435315852E+00 -5.237631922E+02  5.238365171E+02  0.000000000E+00  0.00000E+00  9.000E+00
#rwgt            1           1   3.1225298483378568E-002           9      245106           0
</event>
<event>
      5   9999  3.19816E-02  2.92540E+01 -1.00000E+00  1.53803E-01
      21    -1     0     0   502   501  0.000000000E+00  0.000000000E+00  2.448839302E+02  2.448839302E+02  0.000000000E+00  0.00000E+00  9.000E+00
      21    -1     0     0   501   512  0.000000000E+00  0.000000000E+00 -2.890833172E+02  2.890833172E+02  0.000000000E+00  0.00000E+00  9.000E+00
      25     1     1     2     0     0  1.013175651E+02 -1.527100101E+01  1.687670660E+02  2.336787861E+02  1.250000000E+02  0.00000E+00  9.000E+00
      25     1     1     2     0     0 -1.294595240E+02  7.281756245E+00 -1.658832701E+02  2.448572066E+02  1.250000000E+02  0.00000E+00  9.000E+00
      21     1     1     2   502   512  2.814195884E+01  7.989244766E+00 -4.708318299E+01  5.543125472E+01  6.743495762E-07  0.00000E+00  9.000E+00
#rwgt            1           1   2.9577631739431089E-002           9      245403           0
</event>
<event>
      5   9999  3.19816E-02  1.40555E+02 -1.00000E+00  1.17524E-01
      21    -1     0     0   502   501  0.000000000E+00  0.000000000E+00  1.311592744E+02  1.311592744E+02  0.000000000E+00  0.00000E+00  9.000E+00
      21    -1     0     0   511   502  0.000000000E+00  0.000000000E+00 -1.956605219E+03  1.956605219E+03  0.000000000E+00  0.00000E+00  9.000E+00
      25     1     1     2     0     0  2.927898381E+02 -3.046281707E+02 -4.122609477E+02  6.034138718E+02  1.250000000E+02  0.00000E+00  9.000E+00
      25     1     1     2     0     0 -2.030372518E+02  1.964606709E+02 -1.063811250E+03  1.107763646E+03  1.250000000E+02  0.00000E+00  9.000E+00
      21     1     1     2   511   501 -8.975258629E+01  1.081674998E+02 -3.493737469E+02  3.765869751E+02  3.814697266E-06  0.00000E+00  9.000E+00
#rwgt            1           1   2.6879943905494842E-002           9      245541           0
</event>
<event>
      5   9999  3.19816E-02  2.60294E+01 -1.00000E+00  1.57449E-01
      21    -1     0     0   502   501  0.000000000E+00  0.000000000E+00  1.081151353E+02  1.081151353E+02  0.000000000E+00  0.00000E+00  9.000E+00
      21    -1     0     0   501   512  0.000000000E+00  0.000000000E+00 -1.242009624E+03  1.242009624E+03  0.000000000E+00  0.00000E+00  9.000E+00
      25     1     1     2     0     0  1.643937247E+02  8.565841704E+01 -4.730817582E+02  5.232532953E+02  1.250000000E+02  0.00000E+00  9.000E+00
      25     1     1     2     0     0 -1.445933824E+02 -1.025545085E+02 -5.939985282E+01  2.248955668E+02  1.250000000E+02  0.00000E+00  9.000E+00
      21     1     1     2   502   512 -1.980034225E+01  1.689609143E+01 -6.014128776E+02  6.019758972E+02  7.629394531E-06  0.00000E+00  9.000E+00
#rwgt            1           1   3.0640824928404010E-002           9      245613           0
</event>
<event>
      5   9999  3.19816E-02  3.57599E+01 -1.00000E+00  1.47924E-01
      21    -1     0     0   502   501  0.000000000E+00  0.000000000E+00  1.587078311E+03  1.587078311E+03  0.000000000E+00  0.00000E+00  9.000E+00
      21    -1     0     0   511   502  0.000000000E+00  0.000000000E+00 -5.235421933E+01  5.235421933E+01  0.000000000E+00  0.00000E+00  9.000E+00
      25     1     1     2     0     0  3.790344813E+00 -1.361605897E+02  1.225216157E+03  1.239085834E+03  1.250000000E+02  0.00000E+00  9.000E+00
      25     1     1     2     0     0 -2.906075231E+01  1.614622395E+02  2.986998124E+02  3.629892010E+02  1.250000000E+02  0.00000E+00  9.000E+00
      21     1     1     2   511   501  2.527040750E+01 -2.530164983E+01  1.080812299E+01  3.735749593E+01  5.960464478E-07  0.00000E+00  9.000E+00
#rwgt            1           1   3.5010548200013827E-002           9      245752           0
</event>
<event>
      5   9999  3.19816E-02  1.66506E+02 -1.00000E+00  1.14625E-01
      21    -1     0     0   502   512  0.000000000E+00  0.000000000E+00  6.705162290E+02  6.705162290E+02  0.000000000E+00  0.00000E+00  9.000E+00
      21    -1     0     0   501   502  0.000000000E+00  0.000000000E+00 -2.467847346E+02  2.467847346E+02  0.000000000E+00  0.00000E+00  9.000E+00
      25     1     1     2     0     0  1.062891229E+01  4.846518601E+01  4.025697453E+02  4.244399225E+02  1.250000000E+02  0.00000E+00  9.000E+00
      25     1     1     2     0     0  2.905496512E+01  1.132426082E+02 -1.687085161E+02  2.403240369E+02  1.250000000E+02  0.00000E+00  9.000E+00
      21     1     1     2   501   512 -3.968387740E+01 -1.617077942E+02  1.898702653E+02  2.525370042E+02  3.814697266E-06  0.00000E+00  9.000E+00
#rwgt            1           1   3.0264256068789901E-002           9      245840           0
</event>
<event>
      5   9999  3.19816E-02  5.75869E+01 -1.00000E+00  1.35663E-01
      21    -1     0     0   511   501  0.000000000E+00  0.000000000E+00  1.637801216E+02  1.637801216E+02  0.000000000E+00  0.00000E+00  9.000E+00
      21    -1     0     0   501   502  0.000000000E+00  0.000000000E+00 -2.783310050E+02  2.783310050E+02  0.000000000E+00  0.00000E+00  9.000E+00
      25     1     1     2     0     0 -3.025051462E+01 -1.074383904E+02 -8.878963464E+01  1.896488876E+02  1.250000000E+02  0.00000E+00  9.000E+00
      25     1     1     2     0     0  8.685822169E+01  1.180125867E+02 -1.051274414E+01  1.928907439E+02  1.250000000E+02  0.00000E+00  9.000E+00
      21     1     1     2   511   502 -5.660770707E+01 -1.057419631E+01 -1.524850467E+01  5.957149505E+01  1.338120956E-06  0.00000E+00  9.000E+00
#rwgt            1           1   2.7586761693764408E-002           9      245911           0
</event>
<event>
      5   9999  3.19816E-02  3.21286E+01 -1.00000E+00  1.51000E-01
      21    -1     0     0   502   512  0.000000000E+00  0.000000000E+00  1.307805337E+02  1.307805337E+02  0.000000000E+00  0.00000E+00  9.000E+00
      21    -1     0     0   501   502  0.000000000E+00  0.000000000E+00 -2.755381481E+03  2.755381481E+03  0.000000000E+00  0.00000E+00  9.000E+00
      25     1     1     2     0     0  1.717146261E+02  2.440991052E+02 -2.012126618E+02  3.810273235E+02  1.250000000E+02  0.00000E+00  9.000E+00
      25     1     1     2     0     0 -1.405705206E+02 -2.519914488E+02 -2.445818709E+03  2.465950916E+03  1.250000000E+02  0.00000E+00  9.000E+00
      21     1     1     2   501   512 -3.114410554E+01  7.892343619E+00  2.243042324E+01  3.918377578E+01  1.907348633E-06  0.00000E+00  9.000E+00
#rwgt            1           1   9.7801033024075862E-002           9      245983           0
</event>
<event>
      5   9999  3.19816E-02  1.42830E+02 -1.00000E+00  1.17243E-01
      21    -1     0     0   502   501  0.000000000E+00  0.000000000E+00  1.131570125E+03  1.131570125E+03  0.000000000E+00  0.00000E+00  9.000E+00
       2    -1     0     0   501     0  0.000000000E+00  0.000000000E+00 -1.630346093E+03  1.630346093E+03  0.000000000E+00  0.00000E+00  9.000E+00
      25     1     1     2     0     0  4.270142538E+01 -1.099831222E+02  1.881970493E+02  2.548780654E+02  1.250000000E+02  0.00000E+00  9.000E+00
      25     1     1     2     0     0  9.708199740E+01  8.064031549E+01  8.981228091E+02  9.155202647E+02  1.250000000E+02  0.00000E+00  9.000E+00
       2     1     1     2   502     0 -1.397834228E+02  2.934280669E+01 -1.585095827E+03  1.591517888E+03  0.000000000E+00  0.00000E+00  9.000E+00
#rwgt            1           1   1.6375888949051582E-002           9      246145           0
</event>
<event>
      5   9999  3.19816E-02  5.06264E+01 -1.00000E+00  1.38768E-01
      21    -1     0     0   502   501  0.000000000E+00  0.000000000E+00  3.098007013E+02  3.098007013E+02  0.000000000E+00  0.00000E+00  9.000E+00
      21    -1     0     0   501   511  0.000000000E+00  0.000000000E+00 -9.570487642E+02  9.570487642E+02  0.000000000E+00  0.00000E+00  9.000E+00
      25     1     1     2     0     0  1.307115203E+02  9.709663460E+01  2.207803762E+02  3.014668017E+02  1.250000000E+02  0.00000E+00  9.000E+00
      25     1     1     2     0     0 -1.805926509E+02 -8.844173254E+01 -2.464923474E+02  3.417881258E+02  1.250000000E+02  0.00000E+00  9.000E+00
      21     1     1     2   502   511  4.988113051E+01 -8.654902063E+00 -6.215360917E+02  6.235945380E+02  7.629394531E-06  0.00000E+00  9.000E+00
#rwgt            1           1   2.8072597674346542E-002           9      246214           0
</event>
<event>
      5   9999  3.19816E-02  6.33661E+01 -1.00000E+00  1.33449E-01
      21    -1     0     0   512   501  0.000000000E+00  0.000000000E+00  1.467361982E+02  1.467361982E+02  0.000000000E+00  0.00000E+00  9.000E+00
      21    -1     0     0   501   502  0.000000000E+00  0.000000000E+00 -5.175828894E+02  5.175828894E+02  0.000000000E+00  0.00000E+00  9.000E+00
      25     1     1     2     0     0 -1.280741816E-02 -2.077556608E+01 -4.379891301E+02  4.559507675E+02  1.250000000E+02  0.00000E+00  9.000E+00
      25     1     1     2     0     0  1.634122428E+01 -4.045064562E+01  5.721829764E+01  1.442297609E+02  1.250000000E+02  0.00000E+00  9.000E+00
      21     1     1     2   512   502 -1.632841686E+01  6.122621170E+01  9.924141212E+00  6.413855919E+01  3.769728732E-07  0.00000E+00  9.000E+00
#rwgt            1           1   2.5038323759028838E-002           9      246317           0
</event>
<event>
      5   9999  3.19816E-02  2.40245E+02 -1.00000E+00  1.08824E-01
      21    -1     0     0   502   501  0.000000000E+00  0.000000000E+00  2.117599612E+03  2.117599612E+03  0.000000000E+00  0.00000E+00  9.000E+00
      21    -1     0     0   511   502  0.000000000E+00  0.000000000E+00 -3.930595994E+02  3.930595994E+02  0.000000000E+00  0.00000E+00  9.000E+00
      25     1     1     2     0     0 -3.320653978E+01  1.775917451E+02  1.473449036E+03  1.489737750E+03  1.250000000E+02  0.00000E+00  9.000E+00
      25     1     1     2     0     0  1.579101763E+02 -3.829370882E+02  5.092732357E+02  6.682519480E+02  1.250000000E+02  0.00000E+00  9.000E+00
      21     1     1     2   511   501 -1.247036365E+02  2.053453431E+02 -2.581822590E+02  3.526695135E+02  6.607249480E-06  0.00000E+00  9.000E+00
#rwgt            1           1   3.2697111854876108E-002           9      246391           0
</event>
<event>
      5   9999  3.19816E-02  3.50343E+01 -1.00000E+00  1.48503E-01
      21    -1     0     0   502   501  0.000000000E+00  0.000000000E+00  1.698610869E+03  1.698610869E+03  0.000000000E+00  0.00000E+00  9.000E+00
      21    -1     0     0   501   512  0.000000000E+00  0.000000000E+00 -3.163979059E+02  3.163979059E+02  0.000000000E+00  0.00000E+00  9.000E+00
      25     1     1     2     0     0 -3.024044868E+01  6.853543928E+02  9.404111009E+02  1.170736165E+03  1.250000000E+02  0.00000E+00  9.000E+00
      25     1     1     2     0     0  6.047586887E+01 -6.676562734E+02  4.341445473E+02  8.084112308E+02  1.250000000E+02  0.00000E+00  9.000E+00
      21     1     1     2   502   512 -3.023542019E+01 -1.769811935E+01  7.657314876E+00  3.586137942E+01  4.298152060E-07  0.00000E+00  9.000E+00
#rwgt            1           1   3.2884816442248055E-002           9      246424           0
</event>
<event>
      5   9999  3.19816E-02  3.84057E+01 -1.00000E+00  1.45944E-01
      21    -1     0     0   502   501  0.000000000E+00  0.000000000E+00  2.243650396E+02  2.243650396E+02  0.000000000E+00  0.00000E+00  9.000E+00
      21    -1     0     0   511   502  0.000000000E+00  0.000000000E+00 -1.488943845E+02  1.488943845E+02  0.000000000E+00  0.00000E+00  9.000E+00
      25     1     1     2     0     0 -4.752715511E+01  8.604509470E+01  9.512432472E+01  1.853003668E+02  1.250000000E+02  0.00000E+00  9.000E+00
      25     1     1     2     0     0  9.661588929E+00 -7.962686208E+01 -1.536150329E+01  1.493142969E+02  1.250000000E+02  0.00000E+00  9.000E+00
      21     1     1     2   511   501  3.786556618E+01 -6.418232616E+00 -4.292166316E+00  3.864476037E+01  7.102713160E-07  0.00000E+00  9.000E+00
#rwgt            1           1   2.4796675880802466E-002           9      246586           0
</event>
<event>
      5   9999  3.19816E-02  1.03509E+01 -1.00000E+00  1.94041E-01
      21    -1     0     0   502   501  0.000000000E+00  0.000000000E+00  4.344686886E+01  4.344686886E+01  0.000000000E+00  0.00000E+00  9.000E+00
      21    -1     0     0   512   502  0.000000000E+00  0.000000000E+00 -7.165899175E+02  7.165899175E+02  0.000000000E+00  0.00000E+00  9.000E+00
      25     1     1     2     0     0 -9.815593000E+01  3.467201489E+01 -4.051511473E+02  4.365881210E+02  1.250000000E+02  0.00000E+00  9.000E+00
      25     1     1     2     0     0  8.784014876E+01 -3.381955112E+01 -1.964019273E+02  2.511142585E+02  1.250000000E+02  0.00000E+00  9.000E+00
      21     1     1     2   512   501  1.031578124E+01 -8.524637698E-01 -7.158997400E+01  7.233440685E+01  9.536743164E-07  0.00000E+00  9.000E+00
#rwgt            1           1   2.8028669757477958E-002           9      246650           0
</event>
<event>
      5   9999  3.19816E-02  2.27966E+02 -1.00000E+00  1.09617E-01
      21    -1     0     0   502   511  0.000000000E+00  0.000000000E+00  1.460433734E+03  1.460433734E+03  0.000000000E+00  0.00000E+00  9.000E+00
      21    -1     0     0   501   502  0.000000000E+00  0.000000000E+00 -6.051697385E+02  6.051697385E+02  0.000000000E+00  0.00000E+00  9.000E+00
      25     1     1     2     0     0 -3.852320275E+02 -1.737576259E+02 -1.243644677E+02  4.579158748E+02  1.250000000E+02  0.00000E+00  9.000E+00
      25     1     1     2     0     0  5.384409658E+02  4.951755778E+00 -4.820214869E+01  5.548798435E+02  1.250000000E+02  0.00000E+00  9.000E+00
      21     1     1     2   501   511 -1.532089383E+02  1.688058701E+02  1.027830612E+03  1.052807754E+03  2.157918644E-05  0.00000E+00  9.000E+00
#rwgt            1           1   2.7471609546267792E-002           9      246796           0
</event>
<event>
      5   9999  3.19816E-02  4.96070E+01 -1.00000E+00  1.39271E-01
      21    -1     0     0   502   501  0.000000000E+00  0.000000000E+00  2.270707674E+02  2.270707674E+02  0.000000000E+00  0.00000E+00  9.000E+00
      21    -1     0     0   501   512  0.000000000E+00  0.000000000E+00 -2.934617196E+02  2.934617196E+02  0.000000000E+00  0.00000E+00  9.000E+00
      25     1     1     2     0     0  7.032005897E+00  3.388386651E+01 -2.132043771E+02  2.495569512E+02  1.250000000E+02  0.00000E+00  9.000E+00
      25     1     1     2     0     0  1.424246834E+01  1.092965194E+01  1.735423345E+02  2.146258303E+02  1.250000000E+02  0.00000E+00  9.000E+00
      21     1     1     2   502   512 -2.127447424E+01 -4.481351846E+01 -2.672890955E+01  5.634970538E+01  1.066240300E-06  0.00000E+00  9.000E+00
#rwgt            1           1   2.6029008212256750E-002           9      246836           0
</event>
<event>
      5   9999  3.19816E-02  1.47701E+02 -1.00000E+00  1.16660E-01
      21    -1     0     0   502   501  0.000000000E+00  0.000000000E+00  8.765060411E+02  8.765060411E+02  0.000000000E+00  0.00000E+00  9.000E+00
       1    -1     0     0   501     0  0.000000000E+00  0.000000000E+00 -4.661832259E+02  4.661832259E+02  0.000000000E+00  0.00000E+00  9.000E+00
      25     1     1     2     0     0 -1.685569287E+02 -2.318023454E+02  5.018308933E+02  5.912723662E+02  1.250000000E+02  0.00000E+00  9.000E+00
      25     1     1     2     0     0  7.130852835E+01  1.206338187E+02 -3.819282095E+02  4.255955611E+02  1.250000000E+02  0.00000E+00  9.000E+00
       1     1     1     2   502     0  9.724840040E+01  1.111685267E+02  2.904201314E+02  3.258213397E+02  5.394796609E-06  0.00000E+00  9.000E+00
#rwgt            2          12   1.3523522908705757E-005           9      246930           0
</event>
<event>
      5   9999  3.19816E-02  1.03374E+02 -1.00000E+00  1.23183E-01
      21    -1     0     0   502   501  0.000000000E+00  0.000000000E+00  3.924539386E+02  3.924539386E+02  0.000000000E+00  0.00000E+00  9.000E+00
      21    -1     0     0   511   502  0.000000000E+00  0.000000000E+00 -1.578146158E+02  1.578146158E+02  0.000000000E+00  0.00000E+00  9.000E+00
      25     1     1     2     0     0 -3.098106135E+01 -4.795171615E+01  2.127748796E+02  2.532929976E+02  1.250000000E+02  0.00000E+00  9.000E+00
      25     1     1     2     0     0 -6.501469910E+00  1.442912723E+02  2.967037734E+01  1.933069364E+02  1.250000000E+02  0.00000E+00  9.000E+00
      21     1     1     2   511   501  3.748253126E+01 -9.633955616E+01 -7.805934141E+00  1.036686203E+02  1.111910230E-06  0.00000E+00  9.000E+00
#rwgt            1           1   2.3852242678038246E-002           9      246949           0
</event>
<event>
      5   9999  3.19816E-02  5.14472E+01 -1.00000E+00  1.38372E-01
       2    -1     0     0   502     0  0.000000000E+00  0.000000000E+00  1.167511743E+03  1.167511743E+03  0.000000000E+00  0.00000E+00  9.000E+00
      21    -1     0     0   501   502  0.000000000E+00  0.000000000E+00 -7.968735738E+01  7.968735738E+01  0.000000000E+00  0.00000E+00  9.000E+00
      25     1     1     2     0     0 -9.687472169E+01  1.128427636E+01  1.078721856E+02  1.917640608E+02  1.250000000E+02  0.00000E+00  9.000E+00
      25     1     1     2     0     0  9.336341226E+01 -6.261146653E+01  1.543245152E+02  2.282060001E+02  1.250000000E+02  0.00000E+00  9.000E+00
       2     1     1     2   501     0  3.511309436E+00  5.132719017E+01  8.256276850E+02  8.272290396E+02  1.078959322E-05  0.00000E+00  9.000E+00
#rwgt            1           1   2.2149244078215911E-002           9      246985           0
</event>
<event>
      5   9999  3.19816E-02  4.30730E+02 -1.00000E+00  1.00727E-01
      21    -1     0     0   502   501  0.000000000E+00  0.000000000E+00  1.911700848E+03  1.911700848E+03  0.000000000E+00  0.00000E+00  9.000E+00
       2    -1     0     0   501     0  0.000000000E+00  0.000000000E+00 -2.307708804E+03  2.307708804E+03  0.000000000E+00  0.00000E+00  9.000E+00
      25     1     1     2     0     0  1.441640262E+03  2.801742900E+02  9.726108956E+02  1.765905216E+03  1.250000000E+02  0.00000E+00  9.000E+00
      25     1     1     2     0     0 -1.150730068E+03 -5.978216924E+02 -1.515440539E+03  1.998438263E+03  1.250000000E+02  0.00000E+00  9.000E+00
       2     1     1     2   502     0 -2.909101944E+02  3.176474024E+02  1.468216877E+02  4.550661726E+02  5.046370146E-06  0.00000E+00  9.000E+00
#rwgt            2          13   8.8491017317353371E-004           9      247051           0
</event>
<event>
      5   9999  3.19816E-02  4.59083E+01 -1.00000E+00  1.41225E-01
      21    -1     0     0   502   501  0.000000000E+00  0.000000000E+00  3.142992353E+02  3.142992353E+02  0.000000000E+00  0.00000E+00  9.000E+00
      21    -1     0     0   511   502  0.000000000E+00  0.000000000E+00 -7.432047765E+02  7.432047765E+02  0.000000000E+00  0.00000E+00  9.000E+00
      25     1     1     2     0     0 -8.666463189E+01 -3.800569164E+02  6.051244218E+01  4.138124862E+02  1.250000000E+02  0.00000E+00  9.000E+00
      25     1     1     2     0     0  6.142331006E+01  3.417104882E+02 -4.575522226E+02  5.878077213E+02  1.250000000E+02  0.00000E+00  9.000E+00
      21     1     1     2   511   501  2.524132183E+01  3.834642816E+01 -3.186576074E+01  5.588380435E+01  8.259061849E-07  0.00000E+00  9.000E+00
#rwgt            1           1   2.9349465975173124E-002           9      247085           0
</event>
<event>
      5   9999  3.19816E-02  8.48442E+01 -1.00000E+00  1.27126E-01
       1    -1     0     0   502     0  0.000000000E+00  0.000000000E+00  8.055820978E+02  8.055820978E+02  0.000000000E+00  0.00000E+00  9.000E+00
      21    -1     0     0   501   502  0.000000000E+00  0.000000000E+00 -1.816071002E+02  1.816071002E+02  0.000000000E+00  0.00000E+00  9.000E+00
      25     1     1     2     0     0  1.893427431E+02  2.545724878E+01  1.625577819E+02  2.802655497E+02  1.250000000E+02  0.00000E+00  9.000E+00
      25     1     1     2     0     0 -1.218539645E+02 -7.687525626E+01 -4.290889973E+01  1.955105301E+02  1.250000000E+02  0.00000E+00  9.000E+00
       1     1     1     2   501     0 -6.748877866E+01  5.141800748E+01  5.043261154E+02  5.114131182E+02  0.000000000E+00  0.00000E+00  9.000E+00
#rwgt            1           1   2.6608283694714938E-002           9      247210           0
</event>
<event>
      5   9999  3.19816E-02  3.25935E+01 -1.00000E+00  1.50580E-01
      21    -1     0     0   502   501  0.000000000E+00  0.000000000E+00  1.226172684E+02  1.226172684E+02  0.000000000E+00  0.00000E+00  9.000E+00
      21    -1     0     0   501   511  0.000000000E+00  0.000000000E+00 -5.380852456E+02  5.380852456E+02  0.000000000E+00  0.00000E+00  9.000E+00
      25     1     1     2     0     0 -2.708497208E+01 -4.924410178E+00 -4.314858933E+02  4.500699075E+02  1.250000000E+02  0.00000E+00  9.000E+00
      25     1     1     2     0     0  3.415114120E+01 -2.689395438E+01  6.837277078E+01  1.489611393E+02  1.250000000E+02  0.00000E+00  9.000E+00
      21     1     1     2   502   511 -7.066169114E+00  3.181836456E+01 -5.235485461E+01  6.167146723E+01  6.743495762E-07  0.00000E+00  9.000E+00
#rwgt            1           1   2.6296800872214074E-002           9      247275           0
</event>
<event>
      5   9999  3.19816E-02  3.04249E+01 -1.00000E+00  1.52617E-01
      21    -1     0     0   502   512  0.000000000E+00  0.000000000E+00  7.801767031E+01  7.801767031E+01  0.000000000E+00  0.00000E+00  9.000E+00
      21    -1     0     0   501   502  0.000000000E+00  0.000000000E+00 -1.617403434E+03  1.617403434E+03  0.000000000E+00  0.00000E+00  9.000E+00
      25     1     1     2     0     0  3.783253063E+01  8.136819756E+01 -1.186753165E+03  1.196687160E+03  1.250000000E+02  0.00000E+00  9.000E+00
      25     1     1     2     0     0 -4.493278874E+01 -5.178334017E+01 -4.098456112E+02  4.339342057E+02  1.250000000E+02  0.00000E+00  9.000E+00
      21     1     1     2   501   512  7.100258108E+00 -2.958485739E+01  5.721301208E+01  6.479973922E+01  2.780414531E-06  0.00000E+00  9.000E+00
#rwgt            1           1   9.0882277411812415E-002           9      247418           0
</event>
<event>
      5   9999  3.19816E-02  2.88613E+01 -1.00000E+00  1.54216E-01
      21    -1     0     0   511   501  0.000000000E+00  0.000000000E+00  5.674063691E+02  5.674063691E+02  0.000000000E+00  0.00000E+00  9.000E+00
      21    -1     0     0   501   502  0.000000000E+00  0.000000000E+00 -3.818519969E+02  3.818519969E+02  0.000000000E+00  0.00000E+00  9.000E+00
      25     1     1     2     0     0 -1.793458460E+02  1.233114879E+02 -2.790932243E+02  3.753514132E+02  1.250000000E+02  0.00000E+00  9.000E+00
      25     1     1     2     0     0  1.584695712E+02 -1.432402911E+02  2.312157123E+02  3.386976404E+02  1.250000000E+02  0.00000E+00  9.000E+00
      21     1     1     2   511   502  2.087627477E+01  1.992880323E+01  2.334318843E+02  2.352093124E+02  2.697398305E-06  0.00000E+00  9.000E+00
#rwgt            1           1   2.8552357328065270E-002           9      247474           0
</event>
<event>
      5   9999  3.19816E-02  1.75605E+02 -1.00000E+00  1.13744E-01
      21    -1     0     0   512   501  0.000000000E+00  0.000000000E+00  6.987061048E+02  6.987061048E+02  0.000000000E+00  0.00000E+00  9.000E+00
      21    -1     0     0   501   502  0.000000000E+00  0.000000000E+00 -2.778169030E+02  2.778169030E+02  0.000000000E+00  0.00000E+00  9.000E+00
      25     1     1     2     0     0 -2.651118514E+02 -4.814297281E+01  3.161795314E+02  4.338162464E+02  1.250000000E+02  0.00000E+00  9.000E+00
      25     1     1     2     0     0  2.098011130E+02  2.148099475E+02 -2.226172086E+01  3.260067558E+02  1.250000000E+02  0.00000E+00  9.000E+00
      21     1     1     2   512   502  5.531073837E+01 -1.666669747E+02  1.269713913E+02  2.167000057E+02  3.015782986E-06  0.00000E+00  9.000E+00
#rwgt            2          11   3.4327490623999144E-003           9      247664           0
</event>
<event>
      5   9999  3.19816E-02  3.49015E+01 -1.00000E+00  1.48611E-01
      21    -1     0     0   502   501  0.000000000E+00  0.000000000E+00  2.268316696E+02  2.268316696E+02  0.000000000E+00  0.00000E+00  9.000E+00
      21    -1     0     0   511   502  0.000000000E+00  0.000000000E+00 -8.217970363E+02  8.217970363E+02  0.000000000E+00  0.00000E+00  9.000E+00
      25     1     1     2     0     0  1.916762129E+02 -2.016080435E+02 -6.456929946E+02  7.140938433E+02  1.250000000E+02  0.00000E+00  9.000E+00
      25     1     1     2     0     0 -1.748587699E+02  1.710255624E+02  8.305274602E+01  2.869635709E+02  1.250000000E+02  0.00000E+00  9.000E+00
      21     1     1     2   511   501 -1.681744303E+01  3.058248108E+01 -3.232511813E+01  4.757129178E+01  4.768371582E-07  0.00000E+00  9.000E+00
#rwgt            1           1   2.8922974834412873E-002           9      247699           0
</event>
<event>
      5   9999  3.19816E-02  3.06861E+01 -1.00000E+00  1.52361E-01
      21    -1     0     0   502   501  0.000000000E+00  0.000000000E+00  1.324149519E+02  1.324149519E+02  0.000000000E+00  0.00000E+00  9.000E+00
      21    -1     0     0   512   502  0.000000000E+00  0.000000000E+00 -5.157545507E+02  5.157545507E+02  0.000000000E+00  0.00000E+00  9.000E+00
      25     1     1     2     0     0 -1.703441748E+02  1.106301395E+01 -7.560992982E+01  2.246806393E+02  1.250000000E+02  0.00000E+00  9.000E+00
      25     1     1     2     0     0  1.690138018E+02 -4.172027649E+01 -1.470694126E+02  2.599243328E+02  1.250000000E+02  0.00000E+00  9.000E+00
      21     1     1     2   512   501  1.330372977E+00  3.065726254E+01 -1.606602564E+02  1.635645305E+02  1.907348633E-06  0.00000E+00  9.000E+00
#rwgt            1           1   3.2688110971942401E-002           9      247841           0
</event>
<event>
      5   9999  3.19816E-02  5.20741E+02 -1.00000E+00  9.83531E-02
       2    -1     0     0   502     0  0.000000000E+00  0.000000000E+00  2.191345824E+03  2.191345824E+03  0.000000000E+00  0.00000E+00  9.000E+00
      21    -1     0     0   501   502  0.000000000E+00  0.000000000E+00 -1.047165065E+03  1.047165065E+03  0.000000000E+00  0.00000E+00  9.000E+00
      25     1     1     2     0     0  7.858582196E+02 -6.184604276E+01  5.137952307E+02  9.492147352E+02  1.250000000E+02  0.00000E+00  9.000E+00
      25     1     1     2     0     0 -1.298700223E+03  1.522029179E+02 -1.802017817E+02  1.325852812E+03  1.250000000E+02  0.00000E+00  9.000E+00
       2     1     1     2   501     0  5.128420037E+02 -9.035687511E+01  8.105873101E+02  9.634433418E+02  1.525878906E-05  0.00000E+00  9.000E+00
#rwgt            1           1   3.7322842596299137E-002           9      247921           0
</event>
<event>
      5   9999  3.19816E-02  5.28772E+00 -1.00000E+00  2.34348E-01
      21    -1     0     0   511   501  0.000000000E+00  0.000000000E+00  6.291127441E+02  6.291127441E+02  0.000000000E+00  0.00000E+00  9.000E+00
      21    -1     0     0   501   502  0.000000000E+00  0.000000000E+00 -1.226770773E+02  1.226770773E+02  0.000000000E+00  0.00000E+00  9.000E+00
      25     1     1     2     0     0 -8.028101744E+01  2.142718390E+02  1.386431527E+02  2.953038884E+02  1.250000000E+02  0.00000E+00  9.000E+00
      25     1     1     2     0     0  8.381622757E+01 -2.182040428E+02  3.614323431E+02  4.482147956E+02  1.250000000E+02  0.00000E+00  9.000E+00
      21     1     1     2   511   502 -3.535210137E+00  3.932203847E+00  6.360171067E+00  8.271137395E+00  8.429369702E-08  0.00000E+00  9.000E+00
#rwgt            1           1   2.9286705659510661E-002           9      248020           0
</event>
<event>
      5   9999  3.19816E-02  9.18513E+01 -1.00000E+00  1.25511E-01
       4    -1     0     0   502     0  0.000000000E+00  0.000000000E+00  6.419270369E+02  6.419270369E+02  0.000000000E+00  0.00000E+00  9.000E+00
      21    -1     0     0   501   502  0.000000000E+00  0.000000000E+00 -2.824319876E+02  2.824319876E+02  0.000000000E+00  0.00000E+00  9.000E+00
      25     1     1     2     0     0 -2.446081040E+02  1.983633784E+01  4.077002501E+02  4.920072142E+02  1.250000000E+02  0.00000E+00  9.000E+00
      25     1     1     2     0     0  3.106587392E+02  4.399140140E+01 -4.094404240E+01  3.402139184E+02  1.250000000E+02  0.00000E+00  9.000E+00
       4     1     1     2   501     0 -6.605063523E+01 -6.382773924E+01 -7.261158409E+00  9.213789194E+01  2.191636123E-06  0.00000E+00  9.000E+00
#rwgt            1           1   2.6677038777197907E-002           9      248409           0
</event>
<event>
      5   9999  3.19816E-02  1.98191E+01 -1.00000E+00  1.66695E-01
      21    -1     0     0   502   511  0.000000000E+00  0.000000000E+00  5.400726356E+02  5.400726356E+02  0.000000000E+00  0.00000E+00  9.000E+00
      21    -1     0     0   501   502  0.000000000E+00  0.000000000E+00 -1.041540483E+02  1.041540483E+02  0.000000000E+00  0.00000E+00  9.000E+00
      25     1     1     2     0     0  5.230750023E+01  1.507763682E+02  2.193794357E+02  2.987003927E+02  1.250000000E+02  0.00000E+00  9.000E+00
      25     1     1     2     0     0 -6.595631762E+01 -1.651466861E+02  1.226805905E+02  2.495980590E+02  1.250000000E+02  0.00000E+00  9.000E+00
      21     1     1     2   501   511  1.364881739E+01  1.437031785E+01  9.385856106E+01  9.592823221E+01  0.000000000E+00  0.00000E+00  9.000E+00
#rwgt            1           1   2.8755818954556492E-002           9      248446           0
</event>
<event>
      5   9999  3.19816E-02  5.75188E+00 -1.00000E+00  2.28359E-01
      21    -1     0     0   502   512  0.000000000E+00  0.000000000E+00  2.347912837E+02  2.347912837E+02  0.000000000E+00  0.00000E+00  9.000E+00
      21    -1     0     0   501   502  0.000000000E+00  0.000000000E+00 -8.442330936E+02  8.442330936E+02  0.000000000E+00  0.00000E+00  9.000E+00
      25     1     1     2     0     0  3.536291423E+02  1.682747103E+02 -4.928168619E+02  6.417658512E+02  1.250000000E+02  0.00000E+00  9.000E+00
      25     1     1     2     0     0 -3.529556916E+02 -1.625623924E+02 -1.251661446E+02  4.269611404E+02  1.250000000E+02  0.00000E+00  9.000E+00
      21     1     1     2   501   512 -6.734507092E-01 -5.712317833E+00  8.541196671E+00  1.029738566E+01  0.000000000E+00  0.00000E+00  9.000E+00
#rwgt            1           1   2.1756653035678607E-002           9      248593           0
</event>
<event>
      5   9999  3.19816E-02  1.32905E+02 -1.00000E+00  1.18515E-01
      21    -1     0     0   511   501  0.000000000E+00  0.000000000E+00  1.238120962E+03  1.238120962E+03  0.000000000E+00  0.00000E+00  9.000E+00
      21    -1     0     0   501   502  0.000000000E+00  0.000000000E+00 -1.769559660E+02  1.769559660E+02  0.000000000E+00  0.00000E+00  9.000E+00
      25     1     1     2     0     0  1.370248624E+02 -2.979141331E+02  3.898684236E+02  5.245484070E+02  1.250000000E+02  0.00000E+00  9.000E+00
      25     1     1     2     0     0 -2.577275591E+02  2.422858138E+02  2.552405958E+02  4.537605889E+02  1.250000000E+02  0.00000E+00  9.000E+00
      21     1     1     2   511   502  1.207026967E+02  5.562831922E+01  4.160559761E+02  4.367679317E+02  0.000000000E+00  0.00000E+00  9.000E+00
#rwgt            1           1   2.8700562150760171E-002           9      249049           0
</event>
<event>
      5   9999  3.19816E-02  1.40830E+02 -1.00000E+00  1.17490E-01
      21    -1     0     0   502   501  0.000000000E+00  0.000000000E+00  1.148497340E+03  1.148497340E+03  0.000000000E+00  0.00000E+00  9.000E+00
       1    -1     0     0   501     0  0.000000000E+00  0.000000000E+00 -4.118979919E+02  4.118979919E+02  0.000000000E+00  0.00000E+00  9.000E+00
      25     1     1     2     0     0  2.250042791E+02 -7.940235336E+01  6.186608133E+02  6.747576315E+02  1.250000000E+02  0.00000E+00  9.000E+00
      25     1     1     2     0     0 -1.701831308E+02  2.091239318E+02  4.418156980E+02  5.324671144E+02  1.250000000E+02  0.00000E+00  9.000E+00
       1     1     1     2   502     0 -5.482114832E+01 -1.297215784E+02 -3.238771631E+02  3.531705862E+02  9.344061824E-06  0.00000E+00  9.000E+00
#rwgt            1           1   2.6765629394249785E-002           9      249087           0
</event>
<event>
      5   9999  3.19816E-02  1.11995E+02 -1.00000E+00  1.21655E-01
      21    -1     0     0   502   511  0.000000000E+00  0.000000000E+00  4.065060148E+02  4.065060148E+02  0.000000000E+00  0.00000E+00  9.000E+00
      21    -1     0     0   501   502  0.000000000E+00  0.000000000E+00 -9.174319548E+02  9.174319548E+02  0.000000000E+00  0.00000E+00  9.000E+00
      25     1     1     2     0     0 -3.817201968E+02 -6.767134410E+01  1.109948643E+02  4.221783739E+02  1.250000000E+02  0.00000E+00  9.000E+00
      25     1     1     2     0     0  4.482967860E+02 -2.238702900E+01 -6.365050675E+02  7.888186663E+02  1.250000000E+02  0.00000E+00  9.000E+00
      21     1     1     2   501   511 -6.657658918E+01  9.005837309E+01  1.458426323E+01  1.129409294E+02  1.854461334E-06  0.00000E+00  9.000E+00
#rwgt            2          11   5.8601640690452159E-003           9      249217           0
</event>
<event>
      5   9999  3.19816E-02  1.74923E+01 -1.00000E+00  1.71317E-01
      21    -1     0     0   502   501  0.000000000E+00  0.000000000E+00  3.468789137E+02  3.468789137E+02  0.000000000E+00  0.00000E+00  9.000E+00
      21    -1     0     0   501   512  0.000000000E+00  0.000000000E+00 -2.399848643E+02  2.399848643E+02  0.000000000E+00  0.00000E+00  9.000E+00
      25     1     1     2     0     0  2.098337330E+02  8.801699431E+01  1.695341355E+02  3.100709756E+02  1.250000000E+02  0.00000E+00  9.000E+00
      25     1     1     2     0     0 -1.929989902E+02 -8.326609993E+01 -3.940405067E+01  2.477085643E+02  1.250000000E+02  0.00000E+00  9.000E+00
      21     1     1     2   502   512 -1.683474273E+01 -4.750894381E+00 -2.323603549E+01  2.908423809E+01  3.371747881E-07  0.00000E+00  9.000E+00
#rwgt            1           1   2.6983239071795093E-002           9      249237           0
</event>
<event>
      5   9999  3.19816E-02  8.81751E+01 -1.00000E+00  1.26337E-01
      21    -1     0     0   502   501  0.000000000E+00  0.000000000E+00  6.227782321E+02  6.227782321E+02  0.000000000E+00  0.00000E+00  9.000E+00
      21    -1     0     0   511   502  0.000000000E+00  0.000000000E+00 -2.168505511E+02  2.168505511E+02  0.000000000E+00  0.00000E+00  9.000E+00
      25     1     1     2     0     0  1.073004025E+02  2.250655261E+02  1.966450008E+02  3.412654740E+02  1.250000000E+02  0.00000E+00  9.000E+00
      25     1     1     2     0     0 -2.808839881E+01 -1.863317654E+02  2.974674291E+02  3.736580741E+02  1.250000000E+02  0.00000E+00  9.000E+00
      21     1     1     2   511   501 -7.921200366E+01 -3.873376067E+01 -8.818474886E+01  1.247052351E+02  1.348699152E-06  0.00000E+00  9.000E+00
#rwgt            1           1   2.8673688794226437E-002           9      249401           0
</event>
<event>
      5   9999  3.19816E-02  6.31865E+01 -1.00000E+00  1.33513E-01
      21    -1     0     0   502   501  0.000000000E+00  0.000000000E+00  4.700670072E+02  4.700670072E+02  0.000000000E+00  0.00000E+00  9.000E+00
      21    -1     0     0   512   502  0.000000000E+00  0.000000000E+00 -1.689657051E+02  1.689657051E+02  0.000000000E+00  0.00000E+00  9.000E+00
      25     1     1     2     0     0 -1.688513027E+02  7.190517203E+01  8.749288927E+01  2.386652925E+02  1.250000000E+02  0.00000E+00  9.000E+00
      25     1     1     2     0     0  2.316900837E+02 -7.852463127E+01  1.835418419E+02  3.303922219E+02  1.250000000E+02  0.00000E+00  9.000E+00
      21     1     1     2   512   501 -6.283878098E+01  6.619459241E+00  3.006657085E+01  6.997519788E+01  1.066240300E-06  0.00000E+00  9.000E+00
#rwgt            1           1   2.8593731634475851E-002           9      249458           0
</event>
<event>
      5   9999  3.19816E-02  5.27563E+01 -1.00000E+00  1.37759E-01
      21    -1     0     0   502   501  0.000000000E+00  0.000000000E+00  3.966972131E+02  3.966972131E+02  0.000000000E+00  0.00000E+00  9.000E+00
      -1    -1     0     0     0   502  0.000000000E+00  0.000000000E+00 -6.649692843E+02  6.649692843E+02  0.000000000E+00  0.00000E+00  9.000E+00
      25     1     1     2     0     0  3.125992725E+02  2.031116934E+02  1.662783335E+02  4.269029741E+02  1.250000000E+02  0.00000E+00  9.000E+00
      25     1     1     2     0     0 -3.405283857E+02 -1.583546831E+02 -4.256902235E+02  5.812684006E+02  1.250000000E+02  0.00000E+00  9.000E+00
      -1     1     1     2     0   501  2.792911325E+01 -4.475701029E+01 -8.860181228E+00  5.349512266E+01  5.196212463E-07  0.00000E+00  9.000E+00
#rwgt            1           1   2.9081719851609383E-002           9      249568           0
</event>
<event>
      5   9999  3.19816E-02  3.59228E+01 -1.00000E+00  1.47796E-01
      21    -1     0     0   502   501  0.000000000E+00  0.000000000E+00  6.995998652E+01  6.995998652E+01  0.000000000E+00  0.00000E+00  9.000E+00
      21    -1     0     0   511   502  0.000000000E+00  0.000000000E+00 -1.087910190E+03  1.087910190E+03  0.000000000E+00  0.00000E+00  9.000E+00
      25     1     1     2     0     0 -9.232198438E+01 -4.270739299E+01 -5.510752396E+01  1.703206077E+02  1.250000000E+02  0.00000E+00  9.000E+00
      25     1     1     2     0     0  1.063988375E+02  7.575723627E+01 -8.541883857E+02  8.731109149E+02  1.250000000E+02  0.00000E+00  9.000E+00
      21     1     1     2   511   501 -1.407685312E+01 -3.304984328E+01 -1.086542934E+02  1.144386535E+02  1.348699152E-06  0.00000E+00  9.000E+00
#rwgt            1           1   2.7973959630467421E-002           9      249712           0
</event>
<event>
      5   9999  3.19816E-02  7.39938E+01 -1.00000E+00  1.30012E-01
      21    -1     0     0   512   501  0.000000000E+00  0.000000000E+00  2.575262649E+03  2.575262649E+03  0.000000000E+00  0.00000E+00  9.000E+00
      21    -1     0     0   501   502  0.000000000E+00  0.000000000E+00 -4.478350184E+02  4.478350184E+02  0.000000000E+00  0.00000E+00  9.000E+00
      25     1     1     2     0     0  7.818872592E+02  4.084838840E+01  2.790104257E+02  8.405284615E+02  1.250000000E+02  0.00000E+00  9.000E+00
      25     1     1     2     0     0 -7.273075878E+02 -9.080983696E+01  6.670927624E+02  9.989296810E+02  1.250000000E+02  0.00000E+00  9.000E+00
      21     1     1     2   512   502 -5.457967133E+01  4.996144856E+01  1.181324443E+03  1.183639525E+03  1.525878906E-05  0.00000E+00  9.000E+00
#rwgt            1           1   3.2708898066981719E-002           9      249836           0
</event>
<event>
      5   9999  3.19816E-02  5.96254E+01 -1.00000E+00  1.34849E-01
      21    -1     0     0   511   501  0.000000000E+00  0.000000000E+00  6.165359084E+02  6.165359084E+02  0.000000000E+00  0.00000E+00  9.000E+00
      21    -1     0     0   501   502  0.000000000E+00  0.000000000E+00 -1.088849032E+02  1.088849032E+02  0.000000000E+00  0.00000E+00  9.000E+00
      25     1     1     2     0     0 -2.711566448E+01  4.536709188E+01  4.224443743E+02  4.437090056E+02  1.250000000E+02  0.00000E+00  9.000E+00
      25     1     1     2     0     0  4.971270586E+01 -1.005446518E+02 -1.124173387E+01  1.683209931E+02  1.250000000E+02  0.00000E+00  9.000E+00
      21     1     1     2   511   502 -2.259704138E+01  5.517755993E+01  9.644836478E+01  1.133908130E+02  0.000000000E+00  0.00000E+00  9.000E+00
#rwgt            1           1   2.7723011335298791E-002           9      249914           0
</event>
<event>
      5   9999  3.19816E-02  2.77361E+01 -1.00000E+00  1.55445E-01
      21    -1     0     0   502   501  0.000000000E+00  0.000000000E+00  6.414115363E+02  6.414115363E+02  0.000000000E+00  0.00000E+00  9.000E+00
      21    -1     0     0   512   502  0.000000000E+00  0.000000000E+00 -4.268279434E+02  4.268279434E+02  0.000000000E+00  0.00000E+00  9.000E+00
      25     1     1     2     0     0  4.190031857E+02  9.530086556E+01  1.836061494E+02  4.837170068E+02  1.250000000E+02  0.00000E+00  9.000E+00
      25     1     1     2     0     0 -4.003714084E+02 -7.475464629E+01  1.580847948E+02  4.544241676E+02  1.250000000E+02  0.00000E+00  9.000E+00
      21     1     1     2   512   501 -1.863177730E+01 -2.054621927E+01 -1.271073514E+02  1.300983052E+02  1.907348633E-06  0.00000E+00  9.000E+00
#rwgt            1           1   2.6583841447778190E-002           9      250043           0
</event>
<event>
      5   9999  3.19816E-02  5.35145E+01 -1.00000E+00  1.37413E-01
       2    -1     0     0   502     0  0.000000000E+00  0.000000000E+00  2.032623688E+03  2.032623688E+03  0.000000000E+00  0.00000E+00  9.000E+00
      21    -1     0     0   501   502  0.000000000E+00  0.000000000E+00 -5.167237041E+01  5.167237041E+01  0.000000000E+00  0.00000E+00  9.000E+00
      25     1     1     2     0     0  2.064602854E+01 -1.860313901E+02  6.177824095E+02  6.575059255E+02  1.250000000E+02  0.00000E+00  9.000E+00
      25     1     1     2     0     0 -6.121713263E+01  2.209281731E+02  5.195510358E+02  5.814766322E+02  1.250000000E+02  0.00000E+00  9.000E+00
       2     1     1     2   501     0  4.057110409E+01 -3.489678301E+01  8.436178719E+02  8.453135003E+02  0.000000000E+00  0.00000E+00  9.000E+00
#rwgt            1           1   2.6704252165604413E-002           9      250202           0
</event>
<event>
      5   9999  3.19816E-02  5.96287E+01 -1.00000E+00  1.34848E-01
      21    -1     0     0   502   501  0.000000000E+00  0.000000000E+00  7.297688089E+02  7.297688089E+02  0.000000000E+00  0.00000E+00  9.000E+00
      21    -1     0     0   501   511  0.000000000E+00  0.000000000E+00 -1.868698703E+03  1.868698703E+03  0.000000000E+00  0.00000E+00  9.000E+00
      25     1     1     2     0     0 -1.723108550E+01 -1.714500327E+02  4.608321564E+02  5.076251574E+02  1.250000000E+02  0.00000E+00  9.000E+00
      25     1     1     2     0     0  3.421442540E+01  1.142910341E+02  2.145892046E+02  2.755115136E+02  1.250000000E+02  0.00000E+00  9.000E+00
      21     1     1     2   502   511 -1.698333990E+01  5.715899864E+01 -1.814351255E+03  1.815330840E+03  0.000000000E+00  0.00000E+00  9.000E+00
#rwgt            1           1   2.6477238814530832E-002           9      250281           0
</event>
<event>
      5   9999  3.19816E-02  1.09466E+02 -1.00000E+00  1.22087E-01
      21    -1     0     0   502   501  0.000000000E+00  0.000000000E+00  2.461250822E+02  2.461250822E+02  0.000000000E+00  0.00000E+00  9.000E+00
      21    -1     0     0   512   502  0.000000000E+00  0.000000000E+00 -2.721796701E+02  2.721796701E+02  0.000000000E+00  0.00000E+00  9.000E+00
      25     1     1     2     0     0  1.516233937E+02 -3.000628002E+00  7.070183321E+01  2.088597771E+02  1.250000000E+02  0.00000E+00  9.000E+00
      25     1     1     2     0     0 -8.670668715E+01  9.114004197E+01 -2.633769395E+01  1.792853339E+02  1.250000000E+02  0.00000E+00  9.000E+00
      21     1     1     2   512   501 -6.491670654E+01 -8.813941397E+01 -7.041872718E+01  1.301596413E+02  2.132480600E-06  0.00000E+00  9.000E+00
#rwgt            1           1   2.6256083936095981E-002           9      250357           0
</event>
<event>
      5   9999  3.19816E-02  3.87182E+01 -1.00000E+00  1.45723E-01
      21    -1     0     0   502   501  0.000000000E+00  0.000000000E+00  1.447146752E+02  1.447146752E+02  0.000000000E+00  0.00000E+00  9.000E+00
      21    -1     0     0   511   502  0.000000000E+00  0.000000000E+00 -1.933321203E+03  1.933321203E+03  0.000000000E+00  0.00000E+00  9.000E+00
      25     1     1     2     0     0  4.386968797E+02  1.902497808E+02 -5.451729620E+02  7.358590149E+02  1.250000000E+02  0.00000E+00  9.000E+00
      25     1     1     2     0     0 -4.216694480E+02 -1.554767217E+02 -1.154550551E+03  1.245226931E+03  1.250000000E+02  0.00000E+00  9.000E+00
      21     1     1     2   511   501 -1.702743169E+01 -3.477305905E+01 -8.888301464E+01  9.694993222E+01  9.536743164E-07  0.00000E+00  9.000E+00
#rwgt            1           1   3.0155843736960033E-002           9      250387           0
</event>
<event>
      5   9999  3.34968E-02  1.93962E+01 -1.00000E+00  1.67475E-01
      21    -1     0     0   502   512  0.000000000E+00  0.000000000E+00  3.956640130E+01  3.956640130E+01  0.000000000E+00  0.00000E+00  9.000E+00
      21    -1     0     0   501   502  0.000000000E+00  0.000000000E+00 -7.826799003E+02  7.826799003E+02  0.000000000E+00  0.00000E+00  9.000E+00
      25     1     1     2     0     0  4.927867658E+01  4.070820515E+01 -2.099129591E+02  2.525351388E+02  1.250000000E+02  0.00000E+00  9.000E+00
      25     1     1     2     0     0 -6.826680624E+01 -3.675046652E+01 -5.300249428E+02  5.500567185E+02  1.250000000E+02  0.00000E+00  9.000E+00
      21     1     1     2   501   512  1.898812966E+01 -3.957738634E+00 -3.175597131E+00  1.965444428E+01  2.457562462E-07  0.00000E+00  9.000E+00
#rwgt            1           1   9.0515059512000479E-002           9      250553           0
</event>
<event>
      5   9999  3.19816E-02  2.84130E+01 -1.00000E+00  1.54698E-01
      21    -1     0     0   502   501  0.000000000E+00  0.000000000E+00  4.820358029E+02  4.820358029E+02  0.000000000E+00  0.00000E+00  9.000E+00
      21    -1     0     0   511   502  0.000000000E+00  0.000000000E+00 -1.451308751E+02  1.451308751E+02  0.000000000E+00  0.00000E+00  9.000E+00
      25     1     1     2     0     0  2.002474715E+01  8.115154978E+01  7.525947746E+01  1.681533630E+02  1.250000000E+02  0.00000E+00  9.000E+00
      25     1     1     2     0     0 -2.671370445E+01 -1.087659986E+02  3.380914137E+02  3.774579029E+02  1.250000000E+02  0.00000E+00  9.000E+00
      21     1     1     2   511   501  6.688957303E+00  2.761444886E+01 -7.644596334E+01  8.155541212E+01  1.651812370E-06  0.00000E+00  9.000E+00
#rwgt            1           1   2.4252249960792248E-002           9      250719           0
</event>
<event>
      5   9999  3.19816E-02  5.37666E+01 -1.00000E+00  1.37299E-01
      21    -1     0     0   502   501  0.000000000E+00  0.000000000E+00  1.947711982E+02  1.947711982E+02  0.000000000E+00  0.00000E+00  9.000E+00
       1    -1     0     0   501     0  0.000000000E+00  0.000000000E+00 -3.899738998E+02  3.899738998E+02  0.000000000E+00  0.00000E+00  9.000E+00
      25     1     1     2     0     0  8.595752135E+01  5.146796557E+01  1.084648493E+02  1.934612894E+02  1.250000000E+02  0.00000E+00  9.000E+00
      25     1     1     2     0     0 -6.220383740E+01 -9.970295741E+01 -1.479611033E+02  2.265557000E+02  1.250000000E+02  0.00000E+00  9.000E+00
       1     1     1     2   502     0 -2.375368395E+01  4.823499184E+01 -1.557064476E+02  1.647281086E+02  2.697398305E-06  0.00000E+00  9.000E+00
#rwgt            1           1   2.7361199630687793E-002           9      250817           0
</event>
<event>
      5   9999  3.19816E-02  1.22541E+02 -1.00000E+00  1.19983E-01
      21    -1     0     0   502   501  0.000000000E+00  0.000000000E+00  6.589139195E+02  6.589139195E+02  0.000000000E+00  0.00000E+00  9.000E+00
      21    -1     0     0   501   511  0.000000000E+00  0.000000000E+00 -8.664502623E+01  8.664502623E+01  0.000000000E+00  0.00000E+00  9.000E+00
      25     1     1     2     0     0  3.862387410E+01 -1.203443934E+02  3.959451391E+02  4.340185824E+02  1.250000000E+02  0.00000E+00  9.000E+00
      25     1     1     2     0     0 -4.666210852E+01 -1.932918462E+00  1.046180559E+02  1.695612756E+02  1.250000000E+02  0.00000E+00  9.000E+00
      21     1     1     2   502   511  8.038234424E+00  1.222773118E+02  7.170569819E+01  1.419790877E+02  1.651812370E-06  0.00000E+00  9.000E+00
#rwgt            2          11   4.9806707742245590E-003           9      251013           0
</event>
<event>
      5   9999  3.19816E-02  3.61897E+01 -1.00000E+00  1.47589E-01
      21    -1     0     0   502   512  0.000000000E+00  0.000000000E+00  3.601432869E+02  3.601432869E+02  0.000000000E+00  0.00000E+00  9.000E+00
      21    -1     0     0   501   502  0.000000000E+00  0.000000000E+00 -1.167522976E+03  1.167522976E+03  0.000000000E+00  0.00000E+00  9.000E+00
      25     1     1     2     0     0 -3.391043033E+02  3.297435682E+02 -2.932547588E+02  5.703910088E+02  1.250000000E+02  0.00000E+00  9.000E+00
      25     1     1     2     0     0  3.705775027E+02 -3.476077420E+02 -6.397872180E+02  8.265056032E+02  1.250000000E+02  0.00000E+00  9.000E+00
      21     1     1     2   501   512 -3.147319940E+01  1.786417380E+01  1.256622879E+02  1.307696509E+02  2.336015456E-06  0.00000E+00  9.000E+00
#rwgt            1           1   2.6933975431969952E-002           9      251033           0
</event>
<event>
      5   9999  3.19816E-02  3.30863E+01 -1.00000E+00  1.50144E-01
      21    -1     0     0   502   501  0.000000000E+00  0.000000000E+00  3.028611536E+02  3.028611536E+02  0.000000000E+00  0.00000E+00  9.000E+00
      21    -1     0     0   501   511  0.000000000E+00  0.000000000E+00 -1.967690820E+02  1.967690820E+02  0.000000000E+00  0.00000E+00  9.000E+00
      25     1     1     2     0     0  1.624431027E+01  5.718277050E+01  2.442359485E+02  2.807310909E+02  1.250000000E+02  0.00000E+00  9.000E+00
      25     1     1     2     0     0  6.301228270E+00 -3.296707128E+01 -1.327023135E+02  1.853683826E+02  1.250000000E+02  0.00000E+00  9.000E+00
      21     1     1     2   502   511 -2.254553854E+01 -2.421569922E+01 -5.441563334E+00  3.353076212E+01  6.419616708E-07  0.00000E+00  9.000E+00
#rwgt            1           1   2.9163455040542678E-002           9      251204           0
</event>
<event>
      5   9999  3.19816E-02  2.04923E+02 -1.00000E+00  1.11265E-01
      21    -1     0     0   502   501  0.000000000E+00  0.000000000E+00  2.134740787E+03  2.134740787E+03  0.000000000E+00  0.00000E+00  9.000E+00
       1    -1     0     0   501     0  0.000000000E+00  0.000000000E+00 -1.015890894E+03  1.015890894E+03  0.000000000E+00  0.00000E+00  9.000E+00
      25     1     1     2     0     0  1.766446399E+00 -5.238903647E+02  1.080514117E+03  1.207311059E+03  1.250000000E+02  0.00000E+00  9.000E+00
      25     1     1     2     0     0 -4.672438953E+01  3.239593448E+02  9.480972805E+02  1.010765195E+03  1.250000000E+02  0.00000E+00  9.000E+00
       1     1     1     2   502     0  4.495794314E+01  1.999310199E+02 -9.097615050E+02  9.325554275E+02  0.000000000E+00  0.00000E+00  9.000E+00
#rwgt            2          12   9.4153257064931752E-003           9      251502           0
</event>
<event>
      5   9999  3.19816E-02  6.81962E+01 -1.00000E+00  1.31797E-01
      21    -1     0     0   502   501  0.000000000E+00  0.000000000E+00  2.962837643E+02  2.962837643E+02  0.000000000E+00  0.00000E+00  9.000E+00
      21    -1     0     0   501   511  0.000000000E+00  0.000000000E+00 -1.240049189E+03  1.240049189E+03  0.000000000E+00  0.00000E+00  9.000E+00
      25     1     1     2     0     0  2.437034356E+01  4.685007019E+02 -6.647618103E+02  8.231768254E+02  1.250000000E+02  0.00000E+00  9.000E+00
      25     1     1     2     0     0  3.219098588E+01 -5.065998185E+02 -1.146414893E+02  5.352077229E+02  1.250000000E+02  0.00000E+00  9.000E+00
      21     1     1     2   502   511 -5.656132944E+01  3.809911658E+01 -1.643621255E+02  1.779484053E+02  3.814697266E-06  0.00000E+00  9.000E+00
#rwgt            1           1   2.7415552379171326E-002           9      251536           0
</event>
<event>
      5   9999  3.19816E-02  9.72847E+01 -1.00000E+00  1.24368E-01
      21    -1     0     0   502   512  0.000000000E+00  0.000000000E+00  5.984845127E+02  5.984845127E+02  0.000000000E+00  0.00000E+00  9.000E+00
      21    -1     0     0   501   502  0.000000000E+00  0.000000000E+00 -5.029011742E+02  5.029011742E+02  0.000000000E+00  0.00000E+00  9.000E+00
      25     1     1     2     0     0  4.278503976E+01 -3.342631875E+02  3.732364755E+02  5.181630099E+02  1.250000000E+02  0.00000E+00  9.000E+00
      25     1     1     2     0     0 -1.378041711E+02  3.133901820E+02 -3.122944514E+02  4.799543938E+02  1.250000000E+02  0.00000E+00  9.000E+00
      21     1     1     2   501   512  9.501913132E+01  2.087300556E+01  3.464131441E+01  1.032682833E+02  1.348699152E-06  0.00000E+00  9.000E+00
#rwgt            1           1   2.8319985231503291E-002           9      251667           0
</event>
<event>
      5   9999  3.19816E-02  2.89468E+01 -1.00000E+00  1.54126E-01
      21    -1     0     0   502   511  0.000000000E+00  0.000000000E+00  8.792518920E+02  8.792518920E+02  0.000000000E+00  0.00000E+00  9.000E+00
      21    -1     0     0   501   502  0.000000000E+00  0.000000000E+00 -8.031998037E+01  8.031998037E+01  0.000000000E+00  0.00000E+00  9.000E+00
      25     1     1     2     0     0 -7.700010676E+01 -1.896044370E+02  2.274728035E+02  3.305264517E+02  1.250000000E+02  0.00000E+00  9.000E+00
      25     1     1     2     0     0  5.526731978E+01  1.704836344E+02  4.059124589E+02  4.609870612E+02  1.250000000E+02  0.00000E+00  9.000E+00
      21     1     1     2   501   511  2.173278698E+01  1.912080255E+01  1.655466492E+02  1.680583595E+02  1.907348633E-06  0.00000E+00  9.000E+00
#rwgt            1           1   2.9210705058931488E-002           9      251753           0
</event>
<event>
      5   9999  3.19816E-02  8.17098E+01 -1.00000E+00  1.27907E-01
      21    -1     0     0   502   501  0.000000000E+00  0.000000000E+00  7.116762958E+02  7.116762958E+02  0.000000000E+00  0.00000E+00  9.000E+00
      21    -1     0     0   501   512  0.000000000E+00  0.000000000E+00 -1.298626492E+02  1.298626492E+02  0.000000000E+00  0.00000E+00  9.000E+00
      25     1     1     2     0     0 -5.422871552E+01  1.162183206E+02  3.956833543E+02  4.343244968E+02  1.250000000E+02  0.00000E+00  9.000E+00
      25     1     1     2     0     0  2.948984860E+01 -3.834349880E+01  2.629016907E+02  2.950968893E+02  1.250000000E+02  0.00000E+00  9.000E+00
      21     1     1     2   502   512  2.473886692E+01 -7.787482178E+01 -7.677139840E+01  1.121175589E+02  3.162979880E-06  0.00000E+00  9.000E+00
#rwgt            1           1   5.2909665896860830E-002           9      251899           0
</event>
<event>
      5   9999  3.19816E-02  3.23886E+01 -1.00000E+00  1.50764E-01
      21    -1     0     0   502   501  0.000000000E+00  0.000000000E+00  1.914618067E+02  1.914618067E+02  0.000000000E+00  0.00000E+00  9.000E+00
      21    -1     0     0   501   511  0.000000000E+00  0.000000000E+00 -2.936638990E+03  2.936638990E+03  0.000000000E+00  0.00000E+00  9.000E+00
      25     1     1     2     0     0  3.017955109E+02  5.811840171E+02 -8.657768534E+02  1.092725927E+03  1.250000000E+02  0.00000E+00  9.000E+00
      25     1     1     2     0     0 -3.100839623E+02 -6.124941747E+02 -1.497453632E+03  1.652057371E+03  1.250000000E+02  0.00000E+00  9.000E+00
      21     1     1     2   502   511  8.288451390E+00  3.131015763E+01 -3.819466980E+02  3.833174983E+02  0.000000000E+00  0.00000E+00  9.000E+00
#rwgt            1           1   2.6720952947813167E-002           9      251946           0
</event>
<event>
      5   9999  3.19816E-02  2.75528E+02 -1.00000E+00  1.06807E-01
      21    -1     0     0   502   501  0.000000000E+00  0.000000000E+00  4.276652304E+02  4.276652304E+02  0.000000000E+00  0.00000E+00  9.000E+00
      -2    -1     0     0     0   502  0.000000000E+00  0.000000000E+00 -5.449895539E+02  5.449895539E+02  0.000000000E+00  0.00000E+00  9.000E+00
      25     1     1     2     0     0 -2.188790756E+02  2.969399764E+02 -1.914598894E+01  3.899653423E+02  1.250000000E+02  0.00000E+00  9.000E+00
      25     1     1     2     0     0  1.923418987E+00 -1.270990651E+02  1.334843146E+02  2.227126717E+02  1.250000000E+02  0.00000E+00  9.000E+00
      -2     1     1     2     0   501  2.169556566E+02 -1.698409113E+02 -2.316626493E+02  3.599767703E+02  6.607249480E-06  0.00000E+00  9.000E+00
#rwgt            2           9   8.8743053687248915E-005           9      252188           0
</event>
<event>
      5   9999  3.19816E-02  5.50992E+01 -1.00000E+00  1.36711E-01
      21    -1     0     0   502   501  0.000000000E+00  0.000000000E+00  6.498080300E+01  6.498080300E+01  0.000000000E+00  0.00000E+00  9.000E+00
      21    -1     0     0   501   511  0.000000000E+00  0.000000000E+00 -1.047770397E+03  1.047770397E+03  0.000000000E+00  0.00000E+00  9.000E+00
      25     1     1     2     0     0 -4.886012714E+01  1.945075834E+02 -3.163614040E+02  3.948797918E+02  1.250000000E+02  0.00000E+00  9.000E+00
      25     1     1     2     0     0  5.811400304E+01 -1.401909879E+02 -3.988163959E+02  4.446462280E+02  1.250000000E+02  0.00000E+00  9.000E+00
      21     1     1     2   502   511 -9.253875895E+00 -5.431659548E+01 -2.676117940E+02  2.732251802E+02  3.814697266E-06  0.00000E+00  9.000E+00
#rwgt            1           1   2.9281914314664589E-002           9      252237           0
</event>
<event>
      5   9999  3.19816E-02  1.84395E+02 -1.00000E+00  1.12948E-01
      21    -1     0     0   502   501  0.000000000E+00  0.000000000E+00  1.655425783E+02  1.655425783E+02  0.000000000E+00  0.00000E+00  9.000E+00
       2    -1     0     0   501     0  0.000000000E+00  0.000000000E+00 -2.428422043E+03  2.428422043E+03  0.000000000E+00  0.00000E+00  9.000E+00
      25     1     1     2     0     0  1.439006499E+02 -1.395728796E+01 -2.388558495E+01  1.926076948E+02  1.250000000E+02  0.00000E+00  9.000E+00
      25     1     1     2     0     0 -3.082406356E+02 -6.967225740E+01 -2.990928634E+02  4.527118883E+02  1.250000000E+02  0.00000E+00  9.000E+00
       2     1     1     2   502     0  1.643399857E+02  8.362954536E+01 -1.939901017E+03  1.948645038E+03  3.051757812E-05  0.00000E+00  9.000E+00
#rwgt            1           1   2.7951597881220813E-002           9      252306           0
</event>
<event>
      5   9999  3.19816E-02  8.26141E+01 -1.00000E+00  1.27677E-01
      21    -1     0     0   502   511  0.000000000E+00  0.000000000E+00  2.380034899E+02  2.380034899E+02  0.000000000E+00  0.00000E+00  9.000E+00
      21    -1     0     0   501   502  0.000000000E+00  0.000000000E+00 -6.045189086E+02  6.045189086E+02  0.000000000E+00  0.00000E+00  9.000E+00
      25     1     1     2     0     0  2.438877389E+02  8.684399333E+01 -8.994351142E+01  3.012273952E+02  1.250000000E+02  0.00000E+00  9.000E+00
      25     1     1     2     0     0 -3.263474761E+02 -9.189227049E+01 -2.822060958E+02  4.584889803E+02  1.250000000E+02  0.00000E+00  9.000E+00
      21     1     1     2   501   511  8.245973724E+01  5.048277158E+00  5.634188578E+00  8.280602302E+01  5.022376641E-07  0.00000E+00  9.000E+00
#rwgt            1           1   2.7558743989380442E-002           9      252356           0
</event>
<event>
      5   9999  3.19816E-02  2.91929E+02 -1.00000E+00  1.05978E-01
      21    -1     0     0   502   501  0.000000000E+00  0.000000000E+00  3.894938526E+02  3.894938526E+02  0.000000000E+00  0.00000E+00  9.000E+00
       2    -1     0     0   501     0  0.000000000E+00  0.000000000E+00 -1.851159725E+03  1.851159725E+03  0.000000000E+00  0.00000E+00  9.000E+00
      25     1     1     2     0     0 -1.473628146E+02  7.828443266E+01  2.850878889E+02  3.531916702E+02  1.250000000E+02  0.00000E+00  9.000E+00
      25     1     1     2     0     0 -1.240997987E+02 -1.856644145E+02 -2.339268881E+02  3.467258627E+02  1.250000000E+02  0.00000E+00  9.000E+00
       2     1     1     2   502     0  2.714626133E+02  1.073799819E+02 -1.512826873E+03  1.540736044E+03  2.157918644E-05  0.00000E+00  9.000E+00
#rwgt            1           1   2.7187842013896641E-002           9      252432           0
</event>
<event>
      5   9999  3.19816E-02  2.36233E+02 -1.00000E+00  1.09077E-01
      21    -1     0     0   502   501  0.000000000E+00  0.000000000E+00  1.889218481E+02  1.889218481E+02  0.000000000E+00  0.00000E+00  9.000E+00
      21    -1     0     0   501   511  0.000000000E+00  0.000000000E+00 -1.439092530E+03  1.439092530E+03  0.000000000E+00  0.00000E+00  9.000E+00
      25     1     1     2     0     0 -1.950988871E+02  2.081117003E+02 -1.098548294E+02  3.302531439E+02  1.250000000E+02  0.00000E+00  9.000E+00
      25     1     1     2     0     0  3.508196838E+02 -3.046910904E+01 -5.833274243E+02  6.927472130E+02  1.250000000E+02  0.00000E+00  9.000E+00
      21     1     1     2   502   511 -1.557207968E+02 -1.776425912E+02 -5.569884278E+02  6.050140209E+02  7.629394531E-06  0.00000E+00  9.000E+00
#rwgt            2          11   2.5422065738541855E-003           9      252524           0
</event>
<event>
      5   9999  3.19816E-02  3.64344E+01 -1.00000E+00  1.47401E-01
      21    -1     0     0   502   501  0.000000000E+00  0.000000000E+00  1.514573254E+03  1.514573254E+03  0.000000000E+00  0.00000E+00  9.000E+00
      21    -1     0     0   501   512  0.000000000E+00  0.000000000E+00 -1.063259599E+02  1.063259599E+02  0.000000000E+00  0.00000E+00  9.000E+00
      25     1     1     2     0     0  2.670305304E+01 -1.768324941E+02  6.604481535E+01  2.279686418E+02  1.250000000E+02  0.00000E+00  9.000E+00
      25     1     1     2     0     0 -2.282411160E+00  1.497937385E+02  1.342390519E+03  1.356495735E+03  1.250000000E+02  0.00000E+00  9.000E+00
      21     1     1     2   502   512 -2.442064188E+01  2.703875553E+01 -1.880395729E-01  3.643483785E+01  6.984149374E-07  0.00000E+00  9.000E+00
#rwgt            1           1   3.0809596566560165E-002           9      252559           0
</event>
<event>
      5   9999  3.19816E-02  3.27172E+01 -1.00000E+00  1.50470E-01
      21    -1     0     0   502   501  0.000000000E+00  0.000000000E+00  1.559344404E+02  1.559344404E+02  0.000000000E+00  0.00000E+00  9.000E+00
      21    -1     0     0   511   502  0.000000000E+00  0.000000000E+00 -1.074734140E+03  1.074734140E+03  0.000000000E+00  0.00000E+00  9.000E+00
      25     1     1     2     0     0 -3.261096602E+01 -1.015282176E+02  9.869812000E+01  1.916710019E+02  1.250000000E+02  0.00000E+00  9.000E+00
      25     1     1     2     0     0  4.465720524E+00  1.182093537E+02 -9.252548236E+02  9.411242652E+02  1.250000000E+02  0.00000E+00  9.000E+00
      21     1     1     2   511   501  2.814524549E+01 -1.668113606E+01 -9.224299563E+01  9.787331294E+01  1.348699152E-06  0.00000E+00  9.000E+00
#rwgt            1           1   3.4731478829338192E-002           9      252718           0
</event>
<event>
      5   9999  3.19816E-02  1.08446E+02 -1.00000E+00  1.22264E-01
       2    -1     0     0   502     0  0.000000000E+00  0.000000000E+00  1.785178907E+03  1.785178907E+03  0.000000000E+00  0.00000E+00  9.000E+00
      21    -1     0     0   501   502  0.000000000E+00  0.000000000E+00 -2.470463294E+02  2.470463294E+02  0.000000000E+00  0.00000E+00  9.000E+00
      25     1     1     2     0     0 -4.663460522E+02  1.280288641E+02  6.373152103E+02  8.097318739E+02  1.250000000E+02  0.00000E+00  9.000E+00
      25     1     1     2     0     0  4.881426820E+02 -2.342622451E+02  3.403546119E+02  6.516351275E+02  1.250000000E+02  0.00000E+00  9.000E+00
       2     1     1     2   501     0 -2.179662980E+01  1.062333810E+02  5.604627549E+02  5.708582345E+02  1.078959322E-05  0.00000E+00  9.000E+00
#rwgt            2          18   8.1055576683254236E-004           9      252984           0
</event>
<event>
      5   9999  3.19816E-02  1.74541E+01 -1.00000E+00  1.71401E-01
      21    -1     0     0   511   501  0.000000000E+00  0.000000000E+00  4.212128379E+02  4.212128379E+02  0.000000000E+00  0.00000E+00  9.000E+00
      21    -1     0     0   501   502  0.000000000E+00  0.000000000E+00 -1.315778695E+02  1.315778695E+02  0.000000000E+00  0.00000E+00  9.000E+00
      25     1     1     2     0     0 -7.370248894E+01  3.354425710E+01 -3.230220612E+01  1.523998247E+02  1.250000000E+02  0.00000E+00  9.000E+00
      25     1     1     2     0     0  6.861565800E+01 -5.024063164E+01  1.081348896E+02  1.858773357E+02  1.250000000E+02  0.00000E+00  9.000E+00
      21     1     1     2   511   502  5.086830939E+00  1.669637454E+01  2.138022850E+02  2.145135470E+02  0.000000000E+00  0.00000E+00  9.000E+00
#rwgt            1           1   3.0849865328601601E-002           9      253018           0
</event>
<event>
      5   9999  3.19816E-02  1.89812E+02 -1.00000E+00  1.12481E-01
      21    -1     0     0   502   501  0.000000000E+00  0.000000000E+00  2.347447771E+02  2.347447771E+02  0.000000000E+00  0.00000E+00  9.000E+00
      21    -1     0     0   501   512  0.000000000E+00  0.000000000E+00 -8.256510835E+02  8.256510835E+02  0.000000000E+00  0.00000E+00  9.000E+00
      25     1     1     2     0     0 -2.854351741E+02 -8.773406325E+01 -2.531068958E+02  4.109240869E+02  1.250000000E+02  0.00000E+00  9.000E+00
      25     1     1     2     0     0  3.089864532E+02 -1.006116667E+02 -1.397986509E+02  3.751852856E+02  1.250000000E+02  0.00000E+00  9.000E+00
      21     1     1     2   502   512 -2.355127909E+01  1.883457299E+02 -1.980007596E+02  2.742864881E+02  2.697398305E-06  0.00000E+00  9.000E+00
#rwgt            1           1   2.8365777840195529E-002           9      253139           0
</event>
<event>
      5   9999  3.19816E-02  3.82334E+01 -1.00000E+00  1.46067E-01
      21    -1     0     0   502   501  0.000000000E+00  0.000000000E+00  2.105830256E+02  2.105830256E+02  0.000000000E+00  0.00000E+00  9.000E+00
      21    -1     0     0   501   511  0.000000000E+00  0.000000000E+00 -2.503640907E+02  2.503640907E+02  0.000000000E+00  0.00000E+00  9.000E+00
      25     1     1     2     0     0 -9.733381387E+01  1.292066870E+02 -5.964765198E+01  2.129579341E+02  1.250000000E+02  0.00000E+00  9.000E+00
      25     1     1     2     0     0  6.548388173E+01 -1.080553989E+02  6.463072231E+01  1.891196401E+02  1.250000000E+02  0.00000E+00  9.000E+00
      21     1     1     2   502   511  3.184993214E+01 -2.115128807E+01 -4.476413548E+01  5.886954212E+01  8.259061849E-07  0.00000E+00  9.000E+00
#rwgt            1           1   3.3068693445290280E-002           9      253228           0
</event>
<event>
      5   9999  3.19816E-02  5.23412E+01 -1.00000E+00  1.37951E-01
      21    -1     0     0   502   501  0.000000000E+00  0.000000000E+00  1.721082080E+02  1.721082080E+02  0.000000000E+00  0.00000E+00  9.000E+00
      21    -1     0     0   501   512  0.000000000E+00  0.000000000E+00 -2.965011752E+02  2.965011752E+02  0.000000000E+00  0.00000E+00  9.000E+00
      25     1     1     2     0     0 -1.397037434E+01 -1.085961277E+02 -1.287393028E+02  2.102072748E+02  1.250000000E+02  0.00000E+00  9.000E+00
      25     1     1     2     0     0  6.482791250E+01  1.209697873E+02  4.629749326E+01  1.913238238E+02  1.250000000E+02  0.00000E+00  9.000E+00
      21     1     1     2   502   512 -5.085753816E+01 -1.237365959E+01 -4.195115760E+01  6.707828458E+01  4.768371582E-07  0.00000E+00  9.000E+00
#rwgt            1           1   2.6603330393702510E-002           9      253333           0
</event>
<event>
      5   9999  3.19816E-02  2.54639E+02 -1.00000E+00  1.07958E-01
      -1    -1     0     0     0   501  0.000000000E+00  0.000000000E+00  2.253136616E+03  2.253136616E+03  0.000000000E+00  0.00000E+00  9.000E+00
      21    -1     0     0   501   502  0.000000000E+00  0.000000000E+00 -2.542066137E+02  2.542066137E+02  0.000000000E+00  0.00000E+00  9.000E+00
      25     1     1     2     0     0  1.585813622E+02 -1.633420256E+02 -5.692861452E+01  2.658844353E+02  1.250000000E+02  0.00000E+00  9.000E+00
      25     1     1     2     0     0 -2.208172627E+02 -8.357393804E+01  1.268885991E+02  2.957542615E+02  1.250000000E+02  0.00000E+00  9.000E+00
      -1     1     1     2     0   502  6.223590049E+01  2.469159637E+02  1.928970018E+03  1.945704533E+03  0.000000000E+00  0.00000E+00  9.000E+00
#rwgt            2           5   7.2865223946294005E-005           9      253518           0
</event>
<event>
      5   9999  3.19816E-02  5.96495E+01 -1.00000E+00  1.34840E-01
      21    -1     0     0   511   501  0.000000000E+00  0.000000000E+00  6.856336138E+02  6.856336138E+02  0.000000000E+00  0.00000E+00  9.000E+00
      21    -1     0     0   501   502  0.000000000E+00  0.000000000E+00 -1.184383835E+02  1.184383835E+02  0.000000000E+00  0.00000E+00  9.000E+00
      25     1     1     2     0     0  2.018942272E+02  5.960196236E+01  9.424234851E+01  2.623362215E+02  1.250000000E+02  0.00000E+00  9.000E+00
      25     1     1     2     0     0 -1.539167686E+02 -2.415875642E+01  3.160891345E+02  3.739135703E+02  1.250000000E+02  0.00000E+00  9.000E+00
      21     1     1     2   511   502 -4.797745858E+01 -3.544320594E+01  1.568637474E+02  1.678222054E+02  0.000000000E+00  0.00000E+00  9.000E+00
#rwgt            1           1   2.4006213730772528E-002           9      253537           0
</event>
<event>
      5   9999  3.19816E-02  4.80837E+02 -1.00000E+00  9.93366E-02
      21    -1     0     0   502   501  0.000000000E+00  0.000000000E+00  1.095938362E+03  1.095938362E+03  0.000000000E+00  0.00000E+00  9.000E+00
      21    -1     0     0   501   512  0.000000000E+00  0.000000000E+00 -6.721908390E+02  6.721908390E+02  0.000000000E+00  0.00000E+00  9.000E+00
      25     1     1     2     0     0 -4.021154903E+02  6.668234426E+02  5.200894602E+02  9.447054661E+02  1.250000000E+02  0.00000E+00  9.000E+00
      25     1     1     2     0     0  1.385809505E+02 -2.646376227E+02 -1.111199645E+02  3.423600411E+02  1.250000000E+02  0.00000E+00  9.000E+00
      21     1     1     2   502   512  2.635345399E+02 -4.021858198E+02  1.477802743E+01  4.810636938E+02  9.313595288E-06  0.00000E+00  9.000E+00
#rwgt            2          11   2.6737474568218726E-003           9      253618           0
</event>
<event>
      5   9999  3.19816E-02  1.00894E+01 -1.00000E+00  1.95312E-01
      21    -1     0     0   502   501  0.000000000E+00  0.000000000E+00  3.756831443E+01  3.756831443E+01  0.000000000E+00  0.00000E+00  9.000E+00
       1    -1     0     0   501     0  0.000000000E+00  0.000000000E+00 -1.840653069E+03  1.840653069E+03  0.000000000E+00  0.00000E+00  9.000E+00
      25     1     1     2     0     0  5.200920730E+01  2.546246632E+01 -8.740280438E+02  8.848182391E+02  1.250000000E+02  0.00000E+00  9.000E+00
      25     1     1     2     0     0 -4.202873876E+01 -2.694085010E+01 -1.087724601E+02  1.730568472E+02  1.250000000E+02  0.00000E+00  9.000E+00
       1     1     1     2   502     0 -9.980468537E+00  1.478383785E+00 -8.202842503E+02  8.203462968E+02  1.078959322E-05  0.00000E+00  9.000E+00
#rwgt            1           1   2.1850854158948919E-002           9      253668           0
</event>
<event>
      5   9999  3.19816E-02  5.88531E+01 -1.00000E+00  1.35153E-01
      21    -1     0     0   502   501  0.000000000E+00  0.000000000E+00  1.321630063E+02  1.321630063E+02  0.000000000E+00  0.00000E+00  9.000E+00
      21    -1     0     0   511   502  0.000000000E+00  0.000000000E+00 -4.982946490E+02  4.982946490E+02  0.000000000E+00  0.00000E+00  9.000E+00
      25     1     1     2     0     0 -1.395008170E+02  4.647036589E+01 -5.067095144E+01  1.995307449E+02  1.250000000E+02  0.00000E+00  9.000E+00
      25     1     1     2     0     0  1.747238863E+02 -9.361936299E+01 -2.605656847E+02  3.504461408E+02  1.250000000E+02  0.00000E+00  9.000E+00
      21     1     1     2   511   501 -3.522306926E+01  4.714899710E+01 -5.489500654E+01  8.048076962E+01  1.348699152E-06  0.00000E+00  9.000E+00
#rwgt            1           1   2.7598273638294427E-002           9      253824           0
</event>
<event>
      5   9999  3.19816E-02  1.09865E+02 -1.00000E+00  1.22018E-01
      21    -1     0     0   502   501  0.000000000E+00  0.000000000E+00  5.782239091E+02  5.782239091E+02  0.000000000E+00  0.00000E+00  9.000E+00
      21    -1     0     0   512   502  0.000000000E+00  0.000000000E+00 -3.208313983E+02  3.208313983E+02  0.000000000E+00  0.00000E+00  9.000E+00
      25     1     1     2     0     0 -2.012182834E+02 -1.088017314E+02  3.777940686E+02  4.589988808E+02  1.250000000E+02  0.00000E+00  9.000E+00
      25     1     1     2     0     0  1.070126234E+02  1.653320473E+02  4.880256237E+01  2.383129823E+02  1.250000000E+02  0.00000E+00  9.000E+00
      21     1     1     2   512   501  9.420565998E+01 -5.653031592E+01 -1.692041203E+02  2.017434443E+02  3.303624740E-06  0.00000E+00  9.000E+00
#rwgt            1           1   2.8297929375718636E-002           9      253924           0
</event>
<event>
      5   9999  3.19816E-02  8.64844E+01 -1.00000E+00  1.26732E-01
      21    -1     0     0   511   501  0.000000000E+00  0.000000000E+00  5.436592067E+02  5.436592067E+02  0.000000000E+00  0.00000E+00  9.000E+00
      21    -1     0     0   501   502  0.000000000E+00  0.000000000E+00 -5.385601737E+02  5.385601737E+02  0.000000000E+00  0.00000E+00  9.000E+00
      25     1     1     2     0     0  6.620995045E+01 -4.566316501E+02 -1.683821406E+02  5.068271566E+02  1.250000000E+02  0.00000E+00  9.000E+00
      25     1     1     2     0     0 -1.447696539E+02  4.204664806E+02  1.403181892E+02  4.827675509E+02  1.250000000E+02  0.00000E+00  9.000E+00
      21     1     1     2   511   502  7.855970341E+01  3.616516953E+01  3.316298438E+01  9.262467285E+01  1.907348633E-06  0.00000E+00  9.000E+00
#rwgt            1           1   3.2151005111772477E-002           9      253990           0
</event>
<event>
      5   9999  3.19816E-02  1.31546E+01 -1.00000E+00  1.82929E-01
      21    -1     0     0   502   501  0.000000000E+00  0.000000000E+00  7.365740465E+02  7.365740465E+02  0.000000000E+00  0.00000E+00  9.000E+00
      21    -1     0     0   501   512  0.000000000E+00  0.000000000E+00 -1.393485436E+02  1.393485436E+02  0.000000000E+00  0.00000E+00  9.000E+00
      25     1     1     2     0     0  1.231735559E+02  2.533478045E+02  2.445892087E+02  3.934535753E+02  1.250000000E+02  0.00000E+00  9.000E+00
      25     1     1     2     0     0 -1.171868895E+02 -2.650611557E+02  3.433072870E+02  4.663422312E+02  1.250000000E+02  0.00000E+00  9.000E+00
      21     1     1     2   502   512 -5.986666373E+00  1.171335125E+01  9.329007253E+00  1.612678357E+01  2.384185791E-07  0.00000E+00  9.000E+00
#rwgt            1           1   2.8342624404644148E-002           9      254080           0
</event>
<event>
      5   9999  3.19816E-02  2.00084E+02 -1.00000E+00  1.11641E-01
      21    -1     0     0   502   511  0.000000000E+00  0.000000000E+00  5.565603962E+02  5.565603962E+02  0.000000000E+00  0.00000E+00  9.000E+00
      21    -1     0     0   501   502  0.000000000E+00  0.000000000E+00 -2.141426609E+03  2.141426609E+03  0.000000000E+00  0.00000E+00  9.000E+00
      25     1     1     2     0     0 -3.691008778E+02  3.259220334E+01 -1.049142449E+03  1.119652887E+03  1.250000000E+02  0.00000E+00  9.000E+00
      25     1     1     2     0     0  4.990487168E+02 -1.847339516E+02 -9.625520974E+02  1.106936220E+03  1.250000000E+02  0.00000E+00  9.000E+00
      21     1     1     2   501   511 -1.299478390E+02  1.521417483E+02  4.268283333E+02  4.713978984E+02  9.344061824E-06  0.00000E+00  9.000E+00
#rwgt            1           1   2.9267935944240004E-002           9      254231           0
</event>
<event>
      5   9999  3.19816E-02  5.30070E+01 -1.00000E+00  1.37644E-01
      21    -1     0     0   502   501  0.000000000E+00  0.000000000E+00  2.463313181E+03  2.463313181E+03  0.000000000E+00  0.00000E+00  9.000E+00
      21    -1     0     0   501   512  0.000000000E+00  0.000000000E+00 -1.853154887E+02  1.853154887E+02  0.000000000E+00  0.00000E+00  9.000E+00
      25     1     1     2     0     0  3.014345159E+01  1.879869808E+02  2.032887026E+03  2.045605630E+03  1.250000000E+02  0.00000E+00  9.000E+00
      25     1     1     2     0     0  6.760977290E+00 -1.499369616E+02  3.968378524E+02  4.423031589E+02  1.250000000E+02  0.00000E+00  9.000E+00
      21     1     1     2   502   512 -3.690442888E+01 -3.805001920E+01 -1.517271865E+02  1.607198804E+02  5.394796609E-06  0.00000E+00  9.000E+00
#rwgt            1           1   7.5909481791732167E-002           9      254263           0
</event>
<event>
      5   9999  3.19816E-02  2.08974E+02 -1.00000E+00  1.10958E-01
      -1    -1     0     0     0   501  0.000000000E+00  0.000000000E+00  6.411083908E+02  6.411083908E+02  0.000000000E+00  0.00000E+00  9.000E+00
      21    -1     0     0   501   502  0.000000000E+00  0.000000000E+00 -2.318513785E+02  2.318513785E+02  0.000000000E+00  0.00000E+00  9.000E+00
      25     1     1     2     0     0 -9.697989981E+01 -1.187361530E+00  2.086338718E+02  2.618388879E+02  1.250000000E+02  0.00000E+00  9.000E+00
      25     1     1     2     0     0  6.518062806E+01  2.077276550E+02 -7.795757184E+01  2.628719763E+02  1.250000000E+02  0.00000E+00  9.000E+00
      -1     1     1     2     0   502  3.179927174E+01 -2.065402935E+02  2.785807124E+02  3.482489050E+02  5.394796609E-06  0.00000E+00  9.000E+00
#rwgt            1           1   3.0037936747762787E-002           9      254332           0
</event>
<event>
      5   9999  3.19816E-02  1.59258E+01 -1.00000E+00  1.74968E-01
      21    -1     0     0   511   501  0.000000000E+00  0.000000000E+00  4.005816027E+02  4.005816027E+02  0.000000000E+00  0.00000E+00  9.000E+00
      21    -1     0     0   501   502  0.000000000E+00  0.000000000E+00 -2.361875204E+02  2.361875204E+02  0.000000000E+00  0.00000E+00  9.000E+00
      25     1     1     2     0     0 -2.065737972E+02 -5.569850068E+01 -6.648046254E+01  2.565535199E+02  1.250000000E+02  0.00000E+00  9.000E+00
      25     1     1     2     0     0  2.217647123E+02  5.091659086E+01  1.543002632E+02  3.020027451E+02  1.250000000E+02  0.00000E+00  9.000E+00
      21     1     1     2   511   502 -1.519091509E+01  4.781909827E+00  7.657428167E+01  7.821285812E+01  9.536743164E-07  0.00000E+00  9.000E+00
#rwgt            1           1   2.4774606978074497E-002           9      254363           0
</event>
<event>
      5   9999  3.19816E-02  2.13357E+02 -1.00000E+00  1.10635E-01
      21    -1     0     0   512   501  0.000000000E+00  0.000000000E+00  2.124078883E+03  2.124078883E+03  0.000000000E+00  0.00000E+00  9.000E+00
      21    -1     0     0   501   502  0.000000000E+00  0.000000000E+00 -1.827582993E+02  1.827582993E+02  0.000000000E+00  0.00000E+00  9.000E+00
      25     1     1     2     0     0  2.458946453E+02  1.086454313E+02  7.579878307E+02  8.139032853E+02  1.250000000E+02  0.00000E+00  9.000E+00
      25     1     1     2     0     0 -3.304690359E+02  8.723317868E+01  8.454102226E+01  3.736195868E+02  1.250000000E+02  0.00000E+00  9.000E+00
      21     1     1     2   512   502  8.457439065E+01 -1.958786100E+02  1.098791730E+03  1.119314310E+03  2.157918644E-05  0.00000E+00  9.000E+00
#rwgt            2          11   1.2785778721117419E-003           9      254479           0
</event>
<event>
      5   9999  3.19816E-02  4.50957E+02 -1.00000E+00  1.00143E-01
      21    -1     0     0   502   501  0.000000000E+00  0.000000000E+00  1.986677912E+03  1.986677912E+03  0.000000000E+00  0.00000E+00  9.000E+00
      21    -1     0     0   501   511  0.000000000E+00  0.000000000E+00 -1.346277769E+03  1.346277769E+03  0.000000000E+00  0.00000E+00  9.000E+00
      25     1     1     2     0     0 -8.387293918E+02 -2.597922189E+02 -7.683782836E+02  1.173451821E+03  1.250000000E+02  0.00000E+00  9.000E+00
      25     1     1     2     0     0  9.385482194E+02 -1.799784892E+02  1.410754444E+03  1.708542689E+03  1.250000000E+02  0.00000E+00  9.000E+00
      21     1     1     2   502   511 -9.981882756E+01  4.397707081E+02 -1.976018072E+00  4.509611720E+02  7.777721002E-06  0.00000E+00  9.000E+00
#rwgt            2          11   1.3268979204730540E-002           9      254514           0
</event>
<event>
      5   9999  3.19816E-02  1.56633E+01 -1.00000E+00  1.75631E-01
      21    -1     0     0   502   512  0.000000000E+00  0.000000000E+00  6.623327339E+02  6.623327339E+02  0.000000000E+00  0.00000E+00  9.000E+00
      21    -1     0     0   501   502  0.000000000E+00  0.000000000E+00 -1.896837377E+02  1.896837377E+02  0.000000000E+00  0.00000E+00  9.000E+00
      25     1     1     2     0     0 -1.132360488E+02  2.729142026E+02  1.691268646E+02  3.626754211E+02  1.250000000E+02  0.00000E+00  9.000E+00
      25     1     1     2     0     0  1.280503199E+02 -2.780009605E+02  2.037698912E+02  3.883665627E+02  1.250000000E+02  0.00000E+00  9.000E+00
      21     1     1     2   501   512 -1.481427105E+01  5.086757935E+00  9.975224039E+01  1.009744879E+02  1.348699152E-06  0.00000E+00  9.000E+00
#rwgt            1           1   3.0185670644360077E-002           9      254549           0
</event>
<event>
      5   9999  3.19816E-02  2.56279E+02 -1.00000E+00  1.07863E-01
      21    -1     0     0   502   511  0.000000000E+00  0.000000000E+00  1.360489117E+03  1.360489117E+03  0.000000000E+00  0.00000E+00  9.000E+00
      21    -1     0     0   501   502  0.000000000E+00  0.000000000E+00 -3.039880335E+02  3.039880335E+02  0.000000000E+00  0.00000E+00  9.000E+00
      25     1     1     2     0     0 -2.069372187E+01  3.112279562E+02  4.113163365E+02  5.311282327E+02  1.250000000E+02  0.00000E+00  9.000E+00
      25     1     1     2     0     0  2.356033778E+02 -4.508437081E+02  1.032957713E+02  5.339138668E+02  1.250000000E+02  0.00000E+00  9.000E+00
      21     1     1     2   501   511 -2.149096559E+02  1.396157519E+02  5.418889752E+02  5.994350505E+02  0.000000000E+00  0.00000E+00  9.000E+00
#rwgt            1           1   2.6566678208953112E-002           9      254779           0
</event>
<event>
      5   9999  3.19816E-02  1.63608E+02 -1.00000E+00  1.14918E-01
      -1    -1     0     0     0   501  0.000000000E+00  0.000000000E+00  1.309884346E+03  1.309884346E+03  0.000000000E+00  0.00000E+00  9.000E+00
      21    -1     0     0   501   502  0.000000000E+00  0.000000000E+00 -2.609678719E+02  2.609678719E+02  0.000000000E+00  0.00000E+00  9.000E+00
      25     1     1     2     0     0  6.902361805E+01 -8.511398646E+00 -2.111451823E+02  2.550372360E+02  1.250000000E+02  0.00000E+00  9.000E+00
      25     1     1     2     0     0  3.941081335E+01 -1.140021144E+02  3.452357589E+02  3.864743504E+02  1.250000000E+02  0.00000E+00  9.000E+00
      -1     1     1     2     0   502 -1.084344314E+02  1.225135131E+02  9.148258973E+02  9.293406314E+02  1.868812365E-05  0.00000E+00  9.000E+00
#rwgt            1           1   2.7926958004005589E-002           9      254847           0
</event>
<event>
      5   9999  3.19816E-02  7.75927E+01 -1.00000E+00  1.28995E-01
      21    -1     0     0   502   501  0.000000000E+00  0.000000000E+00  6.663036559E+02  6.663036559E+02  0.000000000E+00  0.00000E+00  9.000E+00
      21    -1     0     0   501   511  0.000000000E+00  0.000000000E+00 -2.352745196E+02  2.352745196E+02  0.000000000E+00  0.00000E+00  9.000E+00
      25     1     1     2     0     0 -1.678139168E+02 -1.828981668E+02  7.387617136E+01  2.875690157E+02  1.250000000E+02  0.00000E+00  9.000E+00
      25     1     1     2     0     0  1.461693197E+02  1.083855388E+02  4.450296491E+02  4.967789081E+02  1.250000000E+02  0.00000E+00  9.000E+00
      21     1     1     2   502   511  2.164459710E+01  7.451262802E+01 -8.787668409E+01  1.172302517E+02  2.336015456E-06  0.00000E+00  9.000E+00
#rwgt            1           1   2.9141740012601294E-002           9      254927           0
</event>
<event>
      5   9999  3.19816E-02  9.66553E+02 -1.00000E+00  9.13472E-02
      21    -1     0     0   502   512  0.000000000E+00  0.000000000E+00  1.249822222E+03  1.249822222E+03  0.000000000E+00  0.00000E+00  9.000E+00
      21    -1     0     0   501   502  0.000000000E+00  0.000000000E+00 -2.801861783E+03  2.801861783E+03  0.000000000E+00  0.00000E+00  9.000E+00
      25     1     1     2     0     0  5.265931666E+02  1.193092125E+03 -1.434033692E+03  1.942381737E+03  1.250000000E+02  0.00000E+00  9.000E+00
      25     1     1     2     0     0 -6.386080110E+02 -2.330514896E+02 -6.978042525E+02  9.821858090E+02  1.250000000E+02  0.00000E+00  9.000E+00
      21     1     1     2   501   512  1.120148444E+02 -9.600406358E+02  5.797983836E+02  1.127116460E+03  7.629394531E-06  0.00000E+00  9.000E+00
#rwgt            2          11   1.0322138013775411E-003           9      255418           0
</event>
<event>
      5   9999  3.19816E-02  1.55757E+02 -1.00000E+00  1.15749E-01
      21    -1     0     0   511   501  0.000000000E+00  0.000000000E+00  2.611814999E+02  2.611814999E+02  0.000000000E+00  0.00000E+00  9.000E+00
      21    -1     0     0   501   502  0.000000000E+00  0.000000000E+00 -3.015306319E+02  3.015306319E+02  0.000000000E+00  0.00000E+00  9.000E+00
      25     1     1     2     0     0 -1.247141066E+02 -4.762534022E+01  8.292760519E+01  2.008077915E+02  1.250000000E+02  0.00000E+00  9.000E+00
      25     1     1     2     0     0 -1.492946399E+01  1.166171375E+02 -1.137023238E+02  2.058535015E+02  1.250000000E+02  0.00000E+00  9.000E+00
      21     1     1     2   511   502  1.396435705E+02 -6.899179725E+01 -9.574413380E+00  1.560508388E+02  1.261592536E-06  0.00000E+00  9.000E+00
#rwgt            1           1   2.8309787509034786E-002           9      255438           0
</event>
<event>
      5   9999  3.19816E-02  5.65631E+01 -1.00000E+00  1.36087E-01
      21    -1     0     0   502   501  0.000000000E+00  0.000000000E+00  1.867473594E+02  1.867473594E+02  0.000000000E+00  0.00000E+00  9.000E+00
      21    -1     0     0   512   502  0.000000000E+00  0.000000000E+00 -3.007086112E+02  3.007086112E+02  0.000000000E+00  0.00000E+00  9.000E+00
      25     1     1     2     0     0 -6.172806151E+00  1.345541339E+02  4.387634679E+00  1.838128663E+02  1.250000000E+02  0.00000E+00  9.000E+00
      25     1     1     2     0     0 -2.248339192E+01 -1.833210284E+02 -9.212729534E+01  2.412976190E+02  1.250000000E+02  0.00000E+00  9.000E+00
      21     1     1     2   512   501  2.865619807E+01  4.876689449E+01 -2.622159116E+01  6.234548523E+01  6.743495762E-07  0.00000E+00  9.000E+00
#rwgt            1           1   2.8799300324192680E-002           9      255496           0
</event>
<event>
      5   9999  3.19816E-02  1.21236E+02 -1.00000E+00  1.20180E-01
      21    -1     0     0   502   511  0.000000000E+00  0.000000000E+00  7.114517072E+02  7.114517072E+02  0.000000000E+00  0.00000E+00  9.000E+00
      21    -1     0     0   501   502  0.000000000E+00  0.000000000E+00 -1.429059831E+02  1.429059831E+02  0.000000000E+00  0.00000E+00  9.000E+00
      25     1     1     2     0     0  1.110731121E+01  2.218054439E+02  9.392770839E+01  2.716034641E+02  1.250000000E+02  0.00000E+00  9.000E+00
      25     1     1     2     0     0 -1.751469817E+00 -1.009306811E+02  1.005730037E+02  1.895521013E+02  1.250000000E+02  0.00000E+00  9.000E+00
      21     1     1     2   501   511 -9.355841393E+00 -1.208747628E+02  3.740450119E+02  3.932021249E+02  5.394796609E-06  0.00000E+00  9.000E+00
#rwgt            1           1   3.2219503938286043E-002           9      255563           0
</event>
<event>
      5   9999  3.19816E-02  2.59010E+02 -1.00000E+00  1.07707E-01
      21    -1     0     0   502   501  0.000000000E+00  0.000000000E+00  1.957714365E+03  1.957714365E+03  0.000000000E+00  0.00000E+00  9.000E+00
      21    -1     0     0   512   502  0.000000000E+00  0.000000000E+00 -1.036788782E+02  1.036788782E+02  0.000000000E+00  0.00000E+00  9.000E+00
      25     1     1     2     0     0  4.847803995E+01  2.572370548E+02  6.970582677E+02  7.550074512E+02  1.250000000E+02  0.00000E+00  9.000E+00
      25     1     1     2     0     0  5.027523404E+01 -1.779226875E+01  9.876097118E+02  9.969162988E+02  1.250000000E+02  0.00000E+00  9.000E+00
      21     1     1     2   512   501 -9.875327399E+01 -2.394447860E+02  1.693675072E+02  3.094694932E+02  6.325959759E-06  0.00000E+00  9.000E+00
#rwgt            1           1   3.2273505832498592E-002           9      255630           0
</event>
<event>
      5   9999  3.19816E-02  1.13081E+02 -1.00000E+00  1.21473E-01
      21    -1     0     0   502   501  0.000000000E+00  0.000000000E+00  7.451580579E+02  7.451580579E+02  0.000000000E+00  0.00000E+00  9.000E+00
      21    -1     0     0   501   511  0.000000000E+00  0.000000000E+00 -2.698287606E+02  2.698287606E+02  0.000000000E+00  0.00000E+00  9.000E+00
      25     1     1     2     0     0  1.948263190E+02  9.927329755E+01  4.657812158E+02  5.295182935E+02  1.250000000E+02  0.00000E+00  9.000E+00
      25     1     1     2     0     0 -2.938547420E+02 -1.538690637E+02  6.359928117E+01  3.601335401E+02  1.250000000E+02  0.00000E+00  9.000E+00
      21     1     1     2   502   511  9.902842297E+01  5.459576611E+01 -5.405119967E+01  1.253349848E+02  2.861022949E-06  0.00000E+00  9.000E+00
#rwgt            1           1   2.7068633675950315E-002           9      255705           0
</event>
<event>
      5   9999  3.19816E-02  5.07297E+02 -1.00000E+00  9.86736E-02
       2    -1     0     0   502     0  0.000000000E+00  0.000000000E+00  2.555190833E+03  2.555190833E+03  0.000000000E+00  0.00000E+00  9.000E+00
      21    -1     0     0   501   502  0.000000000E+00  0.000000000E+00 -3.812217941E+02  3.812217941E+02  0.000000000E+00  0.00000E+00  9.000E+00
      25     1     1     2     0     0  5.821319899E+02  1.733110679E+01  1.858412558E+02  6.239711478E+02  1.250000000E+02  0.00000E+00  9.000E+00
      25     1     1     2     0     0 -2.428316119E+02 -3.944595362E+02  3.400873986E+02  5.880900918E+02  1.250000000E+02  0.00000E+00  9.000E+00
       2     1     1     2   501     0 -3.393003780E+02  3.771284294E+02  1.648040385E+03  1.724351388E+03  3.051757812E-05  0.00000E+00  9.000E+00
#rwgt            2          18   1.4451070982511055E-003           9      255794           0
</event>
<event>
      5   9999  3.19816E-02  2.28233E+01 -1.00000E+00  1.61772E-01
      21    -1     0     0   502   511  0.000000000E+00  0.000000000E+00  2.323587773E+01  2.323587773E+01  0.000000000E+00  0.00000E+00  9.000E+00
      21    -1     0     0   501   502  0.000000000E+00  0.000000000E+00 -2.032892934E+03  2.032892934E+03  0.000000000E+00  0.00000E+00  9.000E+00
      25     1     1     2     0     0  9.457254386E+01  4.793437480E+01 -4.172616833E+02  4.483012187E+02  1.250000000E+02  0.00000E+00  9.000E+00
      25     1     1     2     0     0 -1.173044743E+02 -4.589366129E+01 -1.545694450E+03  1.555847968E+03  1.250000000E+02  0.00000E+00  9.000E+00
      21     1     1     2   501   511  2.273193047E+01 -2.040713514E+00 -4.670092282E+01  5.197962453E+01  6.743495762E-07  0.00000E+00  9.000E+00
#rwgt            1           1   7.3957925767936014E-002           9      255813           0
</event>
<event>
      5   9999  3.19816E-02  3.07354E+01 -1.00000E+00  1.52313E-01
      21    -1     0     0   512   501  0.000000000E+00  0.000000000E+00  8.611536831E+01  8.611536831E+01  0.000000000E+00  0.00000E+00  9.000E+00
      21    -1     0     0   501   502  0.000000000E+00  0.000000000E+00 -3.239089221E+03  3.239089221E+03  0.000000000E+00  0.00000E+00  9.000E+00
      25     1     1     2     0     0  4.099150438E+02 -1.006301148E+02 -1.504412747E+03  1.567494650E+03  1.250000000E+02  0.00000E+00  9.000E+00
      25     1     1     2     0     0 -4.120096947E+02  6.996617363E+01 -1.666146219E+03  1.722299474E+03  1.250000000E+02  0.00000E+00  9.000E+00
      21     1     1     2   512   502  2.094650893E+00  3.066394115E+01  1.758511374E+01  3.541046561E+01  5.331201500E-07  0.00000E+00  9.000E+00
#rwgt            1           1   3.2068063278258112E-002           9      255912           0
</event>
<event>
      5   9999  3.19816E-02  4.05568E+01 -1.00000E+00  1.44469E-01
      21    -1     0     0   511   501  0.000000000E+00  0.000000000E+00  4.371923128E+02  4.371923128E+02  0.000000000E+00  0.00000E+00  9.000E+00
      21    -1     0     0   501   502  0.000000000E+00  0.000000000E+00 -3.952215211E+02  3.952215211E+02  0.000000000E+00  0.00000E+00  9.000E+00
      25     1     1     2     0     0  1.331996829E+02  2.994438892E+02 -1.696319100E+02  3.896264663E+02  1.250000000E+02  0.00000E+00  9.000E+00
      25     1     1     2     0     0 -9.280828366E+01 -2.957851925E+02  1.440060102E+02  3.639573994E+02  1.250000000E+02  0.00000E+00  9.000E+00
      21     1     1     2   511   502 -4.039139920E+01 -3.658696752E+00  6.759669152E+01  7.882996826E+01  9.536743164E-07  0.00000E+00  9.000E+00
#rwgt            1           1   2.9644655610377713E-002           9      256098           0
</event>
<event>
      5   9999  3.19816E-02  1.75330E+02 -1.00000E+00  1.13770E-01
      21    -1     0     0   512   501  0.000000000E+00  0.000000000E+00  7.932143760E+02  7.932143760E+02  0.000000000E+00  0.00000E+00  9.000E+00
      21    -1     0     0   501   502  0.000000000E+00  0.000000000E+00 -1.697873627E+03  1.697873627E+03  0.000000000E+00  0.00000E+00  9.000E+00
      25     1     1     2     0     0 -8.627705599E+02  4.895614762E+02 -3.536599722E+02  1.060539417E+03  1.250000000E+02  0.00000E+00  9.000E+00
      25     1     1     2     0     0  9.204480673E+02 -6.551332289E+02 -5.293120004E+02  1.253882126E+03  1.250000000E+02  0.00000E+00  9.000E+00
      21     1     1     2   512   502 -5.767750742E+01  1.655717526E+02 -2.168727817E+01  1.766664602E+02  3.968075985E-06  0.00000E+00  9.000E+00
#rwgt            1           1   3.0813529038997090E-002           9      256172           0
</event>
<event>
      5   9999  3.19816E-02  2.59580E+01 -1.00000E+00  1.57537E-01
      21    -1     0     0   511   501  0.000000000E+00  0.000000000E+00  2.503617075E+02  2.503617075E+02  0.000000000E+00  0.00000E+00  9.000E+00
      21    -1     0     0   501   502  0.000000000E+00  0.000000000E+00 -1.303453835E+03  1.303453835E+03  0.000000000E+00  0.00000E+00  9.000E+00
      25     1     1     2     0     0  4.407518487E+02 -6.299803861E+01 -7.262929101E+02  8.610211009E+02  1.250000000E+02  0.00000E+00  9.000E+00
      25     1     1     2     0     0 -4.572547347E+02  8.303478132E+01 -3.932280298E+02  6.214740146E+02  1.250000000E+02  0.00000E+00  9.000E+00
      21     1     1     2   511   502  1.650288604E+01 -2.003674272E+01  6.642881193E+01  7.132042737E+01  9.536743164E-07  0.00000E+00  9.000E+00
#rwgt            1           1   3.1973996025558456E-002           9      256220           0
</event>
<event>
      5   9999  3.19816E-02  1.71781E+01 -1.00000E+00  1.72010E-01
      21    -1     0     0   512   501  0.000000000E+00  0.000000000E+00  7.214409249E+02  7.214409249E+02  0.000000000E+00  0.00000E+00  9.000E+00
      21    -1     0     0   501   502  0.000000000E+00  0.000000000E+00 -3.401345159E+02  3.401345159E+02  0.000000000E+00  0.00000E+00  9.000E+00
      25     1     1     2     0     0  4.164751085E+02 -1.157986554E+02  1.375240001E+01  4.501943725E+02  1.250000000E+02  0.00000E+00  9.000E+00
      25     1     1     2     0     0 -4.222261931E+02  9.961185304E+01  3.009084638E+02  5.425572624E+02  1.250000000E+02  0.00000E+00  9.000E+00
      21     1     1     2   512   502  5.751084655E+00  1.618680240E+01  6.664554524E+01  6.882380582E+01  0.000000000E+00  0.00000E+00  9.000E+00
#rwgt            1           1   2.8608760947787148E-002           9      256385           0
</event>
<event>
      5   9999  3.19816E-02  1.57706E+01 -1.00000E+00  1.75358E-01
      21    -1     0     0   502   501  0.000000000E+00  0.000000000E+00  1.700382851E+02  1.700382851E+02  0.000000000E+00  0.00000E+00  9.000E+00
      21    -1     0     0   501   511  0.000000000E+00  0.000000000E+00 -5.214818300E+02  5.214818300E+02  0.000000000E+00  0.00000E+00  9.000E+00
      25     1     1     2     0     0 -1.446516474E+02 -4.437174627E+01  7.647704402E+01  2.106340172E+02  1.250000000E+02  0.00000E+00  9.000E+00
      25     1     1     2     0     0  1.479105209E+02  5.980197172E+01 -3.837550282E+02  4.339893083E+02  1.250000000E+02  0.00000E+00  9.000E+00
      21     1     1     2   502   511 -3.258873508E+00 -1.543022546E+01 -4.416556069E+01  4.689678950E+01  9.536743164E-07  0.00000E+00  9.000E+00
#rwgt            1           1   3.2870427275775306E-002           9      256587           0
</event>
<event>
      5   9999  3.19816E-02  3.62487E+01 -1.00000E+00  1.47543E-01
      21    -1     0     0   512   501  0.000000000E+00  0.000000000E+00  1.591799290E+03  1.591799290E+03  0.000000000E+00  0.00000E+00  9.000E+00
      21    -1     0     0   501   502  0.000000000E+00  0.000000000E+00 -2.076324711E+02  2.076324711E+02  0.000000000E+00  0.00000E+00  9.000E+00
      25     1     1     2     0     0  4.436338911E+01 -4.801394049E+02  3.521236009E+02  6.100147447E+02  1.250000000E+02  0.00000E+00  9.000E+00
      25     1     1     2     0     0 -7.956138513E+01  4.714750576E+02  7.084332301E+02  8.637831820E+02  1.250000000E+02  0.00000E+00  9.000E+00
      21     1     1     2   512   502  3.519799603E+01  8.664347328E+00  3.236099877E+02  3.256338342E+02  3.814697266E-06  0.00000E+00  9.000E+00
#rwgt            1           1   3.4294257185090306E-002           9      256835           0
</event>
<event>
      5   9999  3.19816E-02  8.01864E+01 -1.00000E+00  1.28301E-01
      21    -1     0     0   502   501  0.000000000E+00  0.000000000E+00  2.815960747E+03  2.815960747E+03  0.000000000E+00  0.00000E+00  9.000E+00
      21    -1     0     0   511   502  0.000000000E+00  0.000000000E+00 -1.719755778E+02  1.719755778E+02  0.000000000E+00  0.00000E+00  9.000E+00
      25     1     1     2     0     0 -4.427742243E+02 -1.774918662E+02  1.835725745E+03  1.900806773E+03  1.250000000E+02  0.00000E+00  9.000E+00
      25     1     1     2     0     0  5.228578369E+02  1.815498072E+02  8.287314074E+02  1.004371144E+03  1.250000000E+02  0.00000E+00  9.000E+00
      21     1     1     2   511   501 -8.008361261E+01 -4.057940959E+00 -2.047198346E+01  8.275840743E+01  7.152557373E-07  0.00000E+00  9.000E+00
#rwgt            1           1   6.5436779539448847E-002           9      257021           0
</event>
<event>
      5   9999  3.19816E-02  7.45886E+01 -1.00000E+00  1.29839E-01
      21    -1     0     0   502   501  0.000000000E+00  0.000000000E+00  5.225483281E+02  5.225483281E+02  0.000000000E+00  0.00000E+00  9.000E+00
      21    -1     0     0   512   502  0.000000000E+00  0.000000000E+00 -4.339587395E+02  4.339587395E+02  0.000000000E+00  0.00000E+00  9.000E+00
      25     1     1     2     0     0  3.264621860E+02  1.434009249E+02  3.242156022E+02  4.978776365E+02  1.250000000E+02  0.00000E+00  9.000E+00
      25     1     1     2     0     0 -2.521513196E+02 -1.498318538E+02 -1.880346705E+02  3.701511984E+02  1.250000000E+02  0.00000E+00  9.000E+00
      21     1     1     2   512   501 -7.431086644E+01  6.430928913E+00 -4.759134314E+01  8.847823269E+01  2.023048729E-06  0.00000E+00  9.000E+00
#rwgt            1           1   2.8878089576460927E-002           9      257193           0
</event>
<event>
      5   9999  3.19816E-02  2.54897E+01 -1.00000E+00  1.58122E-01
      21    -1     0     0   511   501  0.000000000E+00  0.000000000E+00  1.145197440E+02  1.145197440E+02  0.000000000E+00  0.00000E+00  9.000E+00
      21    -1     0     0   501   502  0.000000000E+00  0.000000000E+00 -8.976873043E+02  8.976873043E+02  0.000000000E+00  0.00000E+00  9.000E+00
      25     1     1     2     0     0  1.842542899E+02 -1.603347083E+01 -1.961815326E+02  2.971849749E+02  1.250000000E+02  0.00000E+00  9.000E+00
      25     1     1     2     0     0 -1.596191505E+02  2.257826309E+01 -6.315529141E+02  6.636807474E+02  1.250000000E+02  0.00000E+00  9.000E+00
      21     1     1     2   511   502 -2.463513946E+01 -6.544792269E+00  4.456688633E+01  5.134132603E+01  1.507891493E-06  0.00000E+00  9.000E+00
#rwgt            1           1   3.0257433550712604E-002           9      257277           0
</event>
<event>
      5   9999  3.19816E-02  5.06692E+01 -1.00000E+00  1.38747E-01
      21    -1     0     0   502   501  0.000000000E+00  0.000000000E+00  8.802456783E+01  8.802456783E+01  0.000000000E+00  0.00000E+00  9.000E+00
      21    -1     0     0   501   512  0.000000000E+00  0.000000000E+00 -1.527740822E+03  1.527740822E+03  0.000000000E+00  0.00000E+00  9.000E+00
      25     1     1     2     0     0 -2.223209951E+02  1.435469427E+02 -1.159819840E+03  1.196176998E+03  1.250000000E+02  0.00000E+00  9.000E+00
      25     1     1     2     0     0  1.852392766E+02 -1.090170516E+02 -1.780012865E+02  3.057903942E+02  1.250000000E+02  0.00000E+00  9.000E+00
      21     1     1     2   502   512  3.708171847E+01 -3.452989104E+01 -1.018951282E+02  1.137979981E+02  2.336015456E-06  0.00000E+00  9.000E+00
#rwgt            1           1   2.8325753124592398E-002           9      257389           0
</event>
<event>
      5   9999  3.19816E-02  5.87413E+01 -1.00000E+00  1.35197E-01
      21    -1     0     0   502   511  0.000000000E+00  0.000000000E+00  7.482667188E+02  7.482667188E+02  0.000000000E+00  0.00000E+00  9.000E+00
      21    -1     0     0   501   502  0.000000000E+00  0.000000000E+00 -1.253851302E+02  1.253851302E+02  0.000000000E+00  0.00000E+00  9.000E+00
      25     1     1     2     0     0  1.881241444E+02  1.735443579E+02  3.663010461E+02  4.640148642E+02  1.250000000E+02  0.00000E+00  9.000E+00
      25     1     1     2     0     0 -1.574429857E+02 -1.234524308E+02  1.282882943E+02  2.685361854E+02  1.250000000E+02  0.00000E+00  9.000E+00
      21     1     1     2   501   511 -3.068115871E+01 -5.009192706E+01  1.282922481E+02  1.411007994E+02  1.907348633E-06  0.00000E+00  9.000E+00
#rwgt            2          11   2.3377136567390138E-003           9      257582           0
</event>
<event>
      5   9999  3.19816E-02  2.06668E+02 -1.00000E+00  1.11132E-01
      21    -1     0     0   502   501  0.000000000E+00  0.000000000E+00  5.435574111E+02  5.435574111E+02  0.000000000E+00  0.00000E+00  9.000E+00
      21    -1     0     0   501   512  0.000000000E+00  0.000000000E+00 -4.525505375E+02  4.525505375E+02  0.000000000E+00  0.00000E+00  9.000E+00
      25     1     1     2     0     0 -1.611091148E+02  2.380665863E+01 -1.075529989E+02  2.317661568E+02  1.250000000E+02  0.00000E+00  9.000E+00
      25     1     1     2     0     0  9.337478228E+01 -2.190596151E+02  3.958858529E+02  4.785985515E+02  1.250000000E+02  0.00000E+00  9.000E+00
      21     1     1     2   502   512  6.773433253E+01  1.952529565E+02 -1.973259804E+02  2.857432403E+02  3.814697266E-06  0.00000E+00  9.000E+00
#rwgt            2          11   3.0374890212722682E-003           9      257662           0
</event>
<event>
      5   9999  3.19816E-02  1.45929E+02 -1.00000E+00  1.16869E-01
      21    -1     0     0   502   501  0.000000000E+00  0.000000000E+00  1.442831218E+03  1.442831218E+03  0.000000000E+00  0.00000E+00  9.000E+00
      21    -1     0     0   501   511  0.000000000E+00  0.000000000E+00 -3.656084738E+02  3.656084738E+02  0.000000000E+00  0.00000E+00  9.000E+00
      25     1     1     2     0     0  8.717908002E+01 -1.176774477E+02  2.344453080E+02  3.033772835E+02  1.250000000E+02  0.00000E+00  9.000E+00
      25     1     1     2     0     0  5.867052709E+01  1.224980710E+02  1.150117998E+03  1.164836649E+03  1.250000000E+02  0.00000E+00  9.000E+00
      21     1     1     2   502   511 -1.458496071E+02 -4.820623288E+00 -3.073405622E+02  3.402257595E+02  8.529922400E-06  0.00000E+00  9.000E+00
#rwgt            1           1   2.6645523078836577E-002           9      257682           0
</event>
<event>
      5   9999  3.19816E-02  5.78871E+01 -1.00000E+00  1.35541E-01
      21    -1     0     0   502   512  0.000000000E+00  0.000000000E+00  9.822398144E+02  9.822398144E+02  0.000000000E+00  0.00000E+00  9.000E+00
      21    -1     0     0   501   502  0.000000000E+00  0.000000000E+00 -4.100075476E+02  4.100075476E+02  0.000000000E+00  0.00000E+00  9.000E+00
      25     1     1     2     0     0  1.623265253E+02  2.290764470E+02 -6.391212518E+01  3.139039330E+02  1.250000000E+02  0.00000E+00  9.000E+00
      25     1     1     2     0     0 -1.189364013E+02 -2.673936623E+02 -1.048756031E+02  3.350658597E+02  1.250000000E+02  0.00000E+00  9.000E+00
      21     1     1     2   501   512 -4.339012406E+01  3.831721527E+01  7.410199952E+02  7.432775693E+02  0.000000000E+00  0.00000E+00  9.000E+00
#rwgt            1           1   2.5451360740618104E-002           9      257726           0
</event>
<event>
      5   9999  3.19816E-02  9.39258E+01 -1.00000E+00  1.25064E-01
       3    -1     0     0   502     0  0.000000000E+00  0.000000000E+00  6.481525022E+02  6.481525022E+02  0.000000000E+00  0.00000E+00  9.000E+00
      21    -1     0     0   501   502  0.000000000E+00  0.000000000E+00 -7.103893954E+02  7.103893954E+02  0.000000000E+00  0.00000E+00  9.000E+00
      25     1     1     2     0     0 -4.046675866E+02  9.727485575E+01  2.002568570E+02  4.784830843E+02  1.250000000E+02  0.00000E+00  9.000E+00
      25     1     1     2     0     0  3.395262025E+02 -1.649405976E+02 -4.916974681E+02  6.323565791E+02  1.250000000E+02  0.00000E+00  9.000E+00
       3     1     1     2   501     0  6.514138405E+01  6.766574181E+01  2.292037179E+02  2.477022342E+02  3.814697266E-06  0.00000E+00  9.000E+00
#rwgt            1           1   2.9262789215684107E-002           9      257889           0
</event>
<event>
      5   9999  3.19816E-02  1.73241E+01 -1.00000E+00  1.71686E-01
      21    -1     0     0   502   501  0.000000000E+00  0.000000000E+00  4.328853571E+02  4.328853571E+02  0.000000000E+00  0.00000E+00  9.000E+00
       2    -1     0     0   501     0  0.000000000E+00  0.000000000E+00 -4.219380643E+03  4.219380643E+03  0.000000000E+00  0.00000E+00  9.000E+00
      25     1     1     2     0     0 -9.334017419E+02 -4.739899072E+02 -6.080938464E+02  1.217090124E+03  1.250000000E+02  0.00000E+00  9.000E+00
      25     1     1     2     0     0  9.444570275E+02  4.873280686E+02 -2.102697345E+03  2.359332288E+03  1.250000000E+02  0.00000E+00  9.000E+00
       2     1     1     2   502     0 -1.105528564E+01 -1.333816134E+01 -1.075704095E+03  1.075843588E+03  0.000000000E+00  0.00000E+00  9.000E+00
#rwgt            1           1   5.8325385651170979E-002           9      257954           0
</event>
<event>
      5   9999  3.19816E-02  1.65966E+01 -1.00000E+00  1.73343E-01
      21    -1     0     0   511   501  0.000000000E+00  0.000000000E+00  5.315065707E+02  5.315065707E+02  0.000000000E+00  0.00000E+00  9.000E+00
      21    -1     0     0   501   502  0.000000000E+00  0.000000000E+00 -3.124021306E+02  3.124021306E+02  0.000000000E+00  0.00000E+00  9.000E+00
      25     1     1     2     0     0  7.065530249E+01  3.438312572E+02  2.076989102E+02  4.265863834E+02  1.250000000E+02  0.00000E+00  9.000E+00
      25     1     1     2     0     0 -8.719880473E+01 -3.425052048E+02 -2.662425982E+01  3.758288149E+02  1.250000000E+02  0.00000E+00  9.000E+00
      21     1     1     2   511   502  1.654350224E+01 -1.326052386E+00  3.802978970E+01  4.149350293E+01  0.000000000E+00  0.00000E+00  9.000E+00
#rwgt            1           1   2.8130587755734782E-002           9      258176           0
</event>
<event>
      5   9999  3.19816E-02  3.85239E+01 -1.00000E+00  1.45860E-01
      21    -1     0     0   502   501  0.000000000E+00  0.000000000E+00  1.406825601E+03  1.406825601E+03  0.000000000E+00  0.00000E+00  9.000E+00
       2    -1     0     0   501     0  0.000000000E+00  0.000000000E+00 -1.588271574E+03  1.588271574E+03  0.000000000E+00  0.00000E+00  9.000E+00
      25     1     1     2     0     0 -3.514874729E+02  8.525025933E+02  8.403201848E+01  9.343396038E+02  1.250000000E+02  0.00000E+00  9.000E+00
      25     1     1     2     0     0  3.743024582E+02 -8.835439171E+02  6.363203429E+02  1.158136763E+03  1.250000000E+02  0.00000E+00  9.000E+00
       2     1     1     2   502     0 -2.281498533E+01  3.104132376E+01 -9.017983343E+02  9.026208080E+02  1.078959322E-05  0.00000E+00  9.000E+00
#rwgt            1           1   3.6465596221511430E-002           9      258347           0
</event>
<event>
      5   9999  3.19816E-02  2.83817E+01 -1.00000E+00  1.54732E-01
      -3    -1     0     0     0   501  0.000000000E+00  0.000000000E+00  2.219654269E+03  2.219654269E+03  0.000000000E+00  0.00000E+00  9.000E+00
      21    -1     0     0   501   502  0.000000000E+00  0.000000000E+00 -5.408177720E+01  5.408177720E+01  0.000000000E+00  0.00000E+00  9.000E+00
      25     1     1     2     0     0  4.135028216E+01  7.673676632E+01  3.365877962E+02  3.694789868E+02  1.250000000E+02  0.00000E+00  9.000E+00
      25     1     1     2     0     0 -1.309581620E+01 -7.942129223E+01  1.097677177E+02  1.848058276E+02  1.250000000E+02  0.00000E+00  9.000E+00
      -3     1     1     2     0   502 -2.825446596E+01  2.684525907E+00  1.719216978E+03  1.719451232E+03  2.157918644E-05  0.00000E+00  9.000E+00
#rwgt            1           1   2.7814411185948674E-002           9      258552           0
</event>
<event>
      5   9999  3.19816E-02  1.96264E+01 -1.00000E+00  1.67048E-01
      21    -1     0     0   511   501  0.000000000E+00  0.000000000E+00  6.651726556E+01  6.651726556E+01  0.000000000E+00  0.00000E+00  9.000E+00
      21    -1     0     0   501   502  0.000000000E+00  0.000000000E+00 -6.369460551E+02  6.369460551E+02  0.000000000E+00  0.00000E+00  9.000E+00
      25     1     1     2     0     0 -7.669043700E+01  2.985275432E+01 -4.820192728E+02  5.047179305E+02  1.250000000E+02  0.00000E+00  9.000E+00
      25     1     1     2     0     0  8.469853398E+01 -4.777104544E+01 -7.899862497E+01  1.769793694E+02  1.250000000E+02  0.00000E+00  9.000E+00
      21     1     1     2   511   502 -8.008096973E+00  1.791829112E+01 -9.410891743E+00  2.176602070E+01  2.920019320E-07  0.00000E+00  9.000E+00
#rwgt            1           1   3.0255303939885462E-002           9      258673           0
</event>
<event>
      5   9999  3.19816E-02  8.61680E+01 -1.00000E+00  1.26807E-01
      21    -1     0     0   502   501  0.000000000E+00  0.000000000E+00  6.993961381E+01  6.993961381E+01  0.000000000E+00  0.00000E+00  9.000E+00
      21    -1     0     0   512   502  0.000000000E+00  0.000000000E+00 -2.269748542E+03  2.269748542E+03  0.000000000E+00  0.00000E+00  9.000E+00
      25     1     1     2     0     0  1.768487478E+02 -1.679303279E+01 -2.288750768E+02  3.155412593E+02  1.250000000E+02  0.00000E+00  9.000E+00
      25     1     1     2     0     0 -1.298624632E+02 -5.543723420E+01 -3.234373497E+02  3.743985383E+02  1.250000000E+02  0.00000E+00  9.000E+00
      21     1     1     2   512   501 -4.698628451E+01  7.223026698E+01 -1.647496502E+03  1.649748359E+03  3.051757812E-05  0.00000E+00  9.000E+00
#rwgt            1           1   2.8174211819340898E-002           9      258794           0
</event>
<event>
      5   9999  3.19816E-02  6.13717E+01 -1.00000E+00  1.34181E-01
      21    -1     0     0   502   501  0.000000000E+00  0.000000000E+00  5.652306967E+02  5.652306967E+02  0.000000000E+00  0.00000E+00  9.000E+00
      21    -1     0     0   511   502  0.000000000E+00  0.000000000E+00 -3.150074552E+02  3.150074552E+02  0.000000000E+00  0.00000E+00  9.000E+00
      25     1     1     2     0     0  1.908304109E+02  1.671433117E+02 -1.358828946E+02  3.137551488E+02  1.250000000E+02  0.00000E+00  9.000E+00
      25     1     1     2     0     0 -2.175216784E+02 -1.118797295E+02  4.157689263E+02  4.983187278E+02  1.250000000E+02  0.00000E+00  9.000E+00
      21     1     1     2   511   501  2.669126750E+01 -5.526358224E+01 -2.966279027E+01  6.816427517E+01  1.390207266E-06  0.00000E+00  9.000E+00
#rwgt            1           1   3.1711858122324091E-002           9      258839           0
</event>
<event>
      5   9999  3.19816E-02  5.93921E+01 -1.00000E+00  1.34940E-01
       2    -1     0     0   502     0  0.000000000E+00  0.000000000E+00  1.479896395E+03  1.479896395E+03  0.000000000E+00  0.00000E+00  9.000E+00
      21    -1     0     0   501   502  0.000000000E+00  0.000000000E+00 -1.053673217E+02  1.053673217E+02  0.000000000E+00  0.00000E+00  9.000E+00
      25     1     1     2     0     0  8.135485937E+01  2.176919789E+02  2.348496836E+02  3.532531454E+02  1.250000000E+02  0.00000E+00  9.000E+00
      25     1     1     2     0     0 -1.253222994E+02 -1.777635392E+02  3.036330898E+02  3.938573445E+02  1.250000000E+02  0.00000E+00  9.000E+00
       2     1     1     2   501     0  4.396744003E+01 -3.992843972E+01  8.360463002E+02  8.381532271E+02  1.078959322E-05  0.00000E+00  9.000E+00
#rwgt            1           1   2.6077386093412567E-002           9      258903           0
</event>
<event>
      5   9999  3.19816E-02  1.50112E+02 -1.00000E+00  1.16381E-01
      21    -1     0     0   502   501  0.000000000E+00  0.000000000E+00  6.675967776E+02  6.675967776E+02  0.000000000E+00  0.00000E+00  9.000E+00
      21    -1     0     0   501   511  0.000000000E+00  0.000000000E+00 -3.169954242E+02  3.169954242E+02  0.000000000E+00  0.00000E+00  9.000E+00
      25     1     1     2     0     0 -1.144034225E+02 -2.030046634E+02 -1.512994368E+02  3.046564558E+02  1.250000000E+02  0.00000E+00  9.000E+00
      25     1     1     2     0     0 -3.567125575E+01  1.996523645E+02  4.693228365E+02  5.263292030E+02  1.250000000E+02  0.00000E+00  9.000E+00
      21     1     1     2   502   511  1.500746783E+02  3.352298970E+00  3.257795381E+01  1.536065430E+02  1.581489940E-06  0.00000E+00  9.000E+00
#rwgt            1           1   2.7393541580394393E-002           9      259046           0
</event>
<event>
      5   9999  3.19816E-02  3.92677E+01 -1.00000E+00  1.45340E-01
      21    -1     0     0   502   512  0.000000000E+00  0.000000000E+00  4.557396177E+02  4.557396177E+02  0.000000000E+00  0.00000E+00  9.000E+00
      21    -1     0     0   501   502  0.000000000E+00  0.000000000E+00 -1.955408788E+02  1.955408788E+02  0.000000000E+00  0.00000E+00  9.000E+00
      25     1     1     2     0     0 -1.253384224E+02  4.331982260E+01 -1.091978211E+02  2.124511504E+02  1.250000000E+02  0.00000E+00  9.000E+00
      25     1     1     2     0     0  1.450221550E+02 -9.341808166E+00  2.631889160E+02  3.255949944E+02  1.250000000E+02  0.00000E+00  9.000E+00
      21     1     1     2   501   512 -1.968373258E+01 -3.397801444E+01  1.062076439E+02  1.132343518E+02  1.348699152E-06  0.00000E+00  9.000E+00
#rwgt            1           1   2.8404108495628796E-002           9      259090           0
</event>
<event>
      5   9999  3.19816E-02  3.92507E+01 -1.00000E+00  1.45351E-01
      21    -1     0     0   502   501  0.000000000E+00  0.000000000E+00  2.660922270E+02  2.660922270E+02  0.000000000E+00  0.00000E+00  9.000E+00
      21    -1     0     0   511   502  0.000000000E+00  0.000000000E+00 -2.760892826E+03  2.760892826E+03  0.000000000E+00  0.00000E+00  9.000E+00
      25     1     1     2     0     0 -7.328170501E+02 -2.925339832E+02 -7.781098085E+02  1.115202598E+03  1.250000000E+02  0.00000E+00  9.000E+00
      25     1     1     2     0     0  6.943395586E+02  3.002866247E+02 -1.431598178E+03  1.624000561E+03  1.250000000E+02  0.00000E+00  9.000E+00
      21     1     1     2   511   501  3.847749142E+01 -7.752641439E+00 -2.850926120E+02  2.877818935E+02  3.814697266E-06  0.00000E+00  9.000E+00
#rwgt            1           1   2.4636150158482625E-002           9      259202           0
</event>
<event>
      5   9999  3.19816E-02  3.94695E+01 -1.00000E+00  1.45201E-01
      21    -1     0     0   502   501  0.000000000E+00  0.000000000E+00  8.120296241E+01  8.120296241E+01  0.000000000E+00  0.00000E+00  9.000E+00
      21    -1     0     0   501   512  0.000000000E+00  0.000000000E+00 -9.225014837E+02  9.225014837E+02  0.000000000E+00  0.00000E+00  9.000E+00
      25     1     1     2     0     0  1.862396144E+02  5.250886987E+01 -3.778605084E+02  4.425448443E+02  1.250000000E+02  0.00000E+00  9.000E+00
      25     1     1     2     0     0 -2.157954316E+02 -7.866797827E+01 -3.246480249E+02  4.168664764E+02  1.250000000E+02  0.00000E+00  9.000E+00
      21     1     1     2   502   512  2.955581720E+01  2.615910839E+01 -1.387899880E+02  1.442931255E+02  1.907348633E-06  0.00000E+00  9.000E+00
#rwgt            2          11   1.8866283332669097E-003           9      259404           0
</event>
<event>
      5   9999  3.19816E-02  2.28261E+02 -1.00000E+00  1.09598E-01
      21    -1     0     0   502   501  0.000000000E+00  0.000000000E+00  1.334593777E+03  1.334593777E+03  0.000000000E+00  0.00000E+00  9.000E+00
      21    -1     0     0   511   502  0.000000000E+00  0.000000000E+00 -8.540973477E+01  8.540973477E+01  0.000000000E+00  0.00000E+00  9.000E+00
      25     1     1     2     0     0 -3.015828576E+01 -8.509608271E+01  1.710157906E+02  2.302656425E+02  1.250000000E+02  0.00000E+00  9.000E+00
      25     1     1     2     0     0  2.384101830E+02 -8.361081409E+00  6.695506996E+02  7.216872331E+02  1.250000000E+02  0.00000E+00  9.000E+00
      21     1     1     2   511   501 -2.082518972E+02  9.345716412E+01  4.086175522E+02  4.680506364E+02  9.344061824E-06  0.00000E+00  9.000E+00
#rwgt            1           1   2.7049164927347137E-002           9      259439           0
</event>
<event>
      5   9999  3.19816E-02  7.45085E+01 -1.00000E+00  1.29862E-01
      21    -1     0     0   502   501  0.000000000E+00  0.000000000E+00  2.047110037E+03  2.047110037E+03  0.000000000E+00  0.00000E+00  9.000E+00
      21    -1     0     0   501   512  0.000000000E+00  0.000000000E+00 -6.191357827E+02  6.191357827E+02  0.000000000E+00  0.00000E+00  9.000E+00
      25     1     1     2     0     0 -8.884407055E+02 -4.556248306E+02  1.158089708E+03  1.534183055E+03  1.250000000E+02  0.00000E+00  9.000E+00
      25     1     1     2     0     0  9.287209696E+02  3.929429945E+02  2.864218355E+02  1.055741116E+03  1.250000000E+02  0.00000E+00  9.000E+00
      21     1     1     2   502   512 -4.028026411E+01  6.268183609E+01 -1.653728885E+01  7.632164946E+01  1.469710828E-06  0.00000E+00  9.000E+00
#rwgt            1           1   2.9325694847152955E-002           9      259492           0
</event>
<event>
      5   9999  3.19816E-02  5.31995E+02 -1.00000E+00  9.80927E-02
      21    -1     0     0   502   501  0.000000000E+00  0.000000000E+00  1.130161787E+03  1.130161787E+03  0.000000000E+00  0.00000E+00  9.000E+00
      -3    -1     0     0     0   502  0.000000000E+00  0.000000000E+00 -7.577223526E+02  7.577223526E+02  0.000000000E+00  0.00000E+00  9.000E+00
      25     1     1     2     0     0 -4.350629203E+02  3.546429953E+02 -3.825773939E+02  6.906821708E+02  1.250000000E+02  0.00000E+00  9.000E+00
      25     1     1     2     0     0  1.659650487E+02  1.042743646E+02 -4.467067584E+01  2.367234880E+02  1.250000000E+02  0.00000E+00  9.000E+00
      -3     1     1     2     0   501  2.690978716E+02 -4.589173600E+02  7.996875045E+02  9.604784811E+02  1.078959322E-05  0.00000E+00  9.000E+00
#rwgt            1           1   2.7737649228287479E-002           9      259644           0
</event>
<event>
      5   9999  3.19816E-02  3.33179E+01 -1.00000E+00  1.49942E-01
      21    -1     0     0   511   501  0.000000000E+00  0.000000000E+00  1.001944843E+02  1.001944843E+02  0.000000000E+00  0.00000E+00  9.000E+00
      21    -1     0     0   501   502  0.000000000E+00  0.000000000E+00 -4.168407619E+02  4.168407619E+02  0.000000000E+00  0.00000E+00  9.000E+00
      25     1     1     2     0     0  7.006761633E+01  8.335865692E+01 -2.788436874E+02  3.244024330E+02  1.250000000E+02  0.00000E+00  9.000E+00
      25     1     1     2     0     0 -7.618950785E+01 -5.060803982E+01 -2.477830413E+01  1.568597436E+02  1.250000000E+02  0.00000E+00  9.000E+00
      21     1     1     2   511   502  6.121891522E+00 -3.275061710E+01 -1.302428606E+01  3.577306953E+01  8.596304120E-07  0.00000E+00  9.000E+00
#rwgt            1           1   3.3285227315290898E-002           9      259683           0
</event>
<event>
      5   9999  3.19816E-02  4.05034E+02 -1.00000E+00  1.01522E-01
       1    -1     0     0   502     0  0.000000000E+00  0.000000000E+00  3.529213917E+03  3.529213917E+03  0.000000000E+00  0.00000E+00  9.000E+00
      21    -1     0     0   501   502  0.000000000E+00  0.000000000E+00 -1.919281250E+02  1.919281250E+02  0.000000000E+00  0.00000E+00  9.000E+00
      25     1     1     2     0     0 -2.731819025E+01 -1.251809590E+02  4.899160809E+00  1.790685840E+02  1.250000000E+02  0.00000E+00  9.000E+00
      25     1     1     2     0     0  4.308690832E+02  1.598159254E+02  5.381070015E+02  7.185912899E+02  1.250000000E+02  0.00000E+00  9.000E+00
       1     1     1     2   501     0 -4.035508930E+02 -3.463496639E+01  2.794279629E+03  2.823482168E+03  3.051757812E-05  0.00000E+00  9.000E+00
#rwgt            1           1   2.7836664225966798E-002           9      259785           0
</event>
<event>
      5   9999  3.19816E-02  1.11242E+01 -1.00000E+00  1.90556E-01
      21    -1     0     0   502   511  0.000000000E+00  0.000000000E+00  2.231929261E+02  2.231929261E+02  0.000000000E+00  0.00000E+00  9.000E+00
      21    -1     0     0   501   502  0.000000000E+00  0.000000000E+00 -1.557156106E+02  1.557156106E+02  0.000000000E+00  0.00000E+00  9.000E+00
      25     1     1     2     0     0 -2.367215983E+01 -3.556569949E+01 -1.095545649E+01  1.325530541E+02  1.250000000E+02  0.00000E+00  9.000E+00
      25     1     1     2     0     0  2.345267932E+01  4.668776497E+01 -2.883338313E+01  1.385140410E+02  1.250000000E+02  0.00000E+00  9.000E+00
      21     1     1     2   501   511  2.194805124E-01 -1.112206548E+01  1.072661550E+02  1.078414416E+02  0.000000000E+00  0.00000E+00  9.000E+00
#rwgt            1           1   6.2575104831899620E-003           9      259816           0
</event>
<event>
      5   9999  3.19816E-02  1.78373E+02 -1.00000E+00  1.13488E-01
      21    -1     0     0   502   501  0.000000000E+00  0.000000000E+00  1.367979263E+02  1.367979263E+02  0.000000000E+00  0.00000E+00  9.000E+00
       2    -1     0     0   501     0  0.000000000E+00  0.000000000E+00 -2.453864901E+03  2.453864901E+03  0.000000000E+00  0.00000E+00  9.000E+00
      25     1     1     2     0     0  3.105396961E+02 -2.143842775E+02 -3.467865215E+02  5.275238504E+02  1.250000000E+02  0.00000E+00  9.000E+00
      25     1     1     2     0     0 -1.602890177E+02  3.105171130E+02 -8.327408802E+02  9.116994133E+02  1.250000000E+02  0.00000E+00  9.000E+00
       2     1     1     2   502     0 -1.502506784E+02 -9.613283554E+01 -1.137539573E+03  1.151439563E+03  2.157918644E-05  0.00000E+00  9.000E+00
#rwgt            1           1   2.9285899932095526E-002           9      260022           0
</event>
<event>
      5   9999  3.19816E-02  2.49167E+02 -1.00000E+00  1.08280E-01
      21    -1     0     0   502   511  0.000000000E+00  0.000000000E+00  5.814196984E+02  5.814196984E+02  0.000000000E+00  0.00000E+00  9.000E+00
      21    -1     0     0   501   502  0.000000000E+00  0.000000000E+00 -5.147472199E+02  5.147472199E+02  0.000000000E+00  0.00000E+00  9.000E+00
      25     1     1     2     0     0 -3.589151506E+02  1.825328894E+00 -1.217059769E+02  3.990748827E+02  1.250000000E+02  0.00000E+00  9.000E+00
      25     1     1     2     0     0  2.633278054E+02  2.282768885E+02 -2.213791621E+01  3.709001999E+02  1.250000000E+02  0.00000E+00  9.000E+00
      21     1     1     2   501   511  9.558734519E+01 -2.301022174E+02  2.105163716E+02  3.261918358E+02  3.814697266E-06  0.00000E+00  9.000E+00
#rwgt            2          11   3.2398100493262671E-003           9      260066           0
</event>
<event>
      5   9999  3.19816E-02  2.60280E+02 -1.00000E+00  1.07636E-01
      21    -1     0     0   502   512  0.000000000E+00  0.000000000E+00  2.552002797E+03  2.552002797E+03  0.000000000E+00  0.00000E+00  9.000E+00
      21    -1     0     0   501   502  0.000000000E+00  0.000000000E+00 -1.176518990E+03  1.176518990E+03  0.000000000E+00  0.00000E+00  9.000E+00
      25     1     1     2     0     0 -5.325572425E+02 -3.601161981E+02 -7.084896296E+02  9.648230138E+02  1.250000000E+02  0.00000E+00  9.000E+00
      25     1     1     2     0     0  2.885975856E+02  4.508308062E+02 -1.047240609E+02  5.595794056E+02  1.250000000E+02  0.00000E+00  9.000E+00
      21     1     1     2   501   512  2.439596569E+02 -9.071460812E+01  2.188697497E+03  2.204119368E+03  5.285799584E-05  0.00000E+00  9.000E+00
#rwgt            1           1   2.9084447000701098E-002           9      260086           0
</event>
<event>
      5   9999  3.19816E-02  2.55351E+01 -1.00000E+00  1.58065E-01
      21    -1     0     0   502   501  0.000000000E+00  0.000000000E+00  1.164169583E+03  1.164169583E+03  0.000000000E+00  0.00000E+00  9.000E+00
      21    -1     0     0   511   502  0.000000000E+00  0.000000000E+00 -2.109093967E+02  2.109093967E+02  0.000000000E+00  0.00000E+00  9.000E+00
      25     1     1     2     0     0 -2.977072405E+02  5.311229330E+01 -2.564492845E+01  3.282273284E+02  1.250000000E+02  0.00000E+00  9.000E+00
      25     1     1     2     0     0  2.731156689E+02 -4.623494871E+01  9.746938679E+02  1.020971584E+03  1.250000000E+02  0.00000E+00  9.000E+00
      21     1     1     2   511   501  2.459157165E+01 -6.877344587E+00  4.211246406E+00  2.588006687E+01  7.102713160E-07  0.00000E+00  9.000E+00
#rwgt            1           1   2.5434646395648804E-002           9      260122           0
</event>
<event>
      5   9999  3.19816E-02  1.51399E+02 -1.00000E+00  1.16234E-01
      21    -1     0     0   502   501  0.000000000E+00  0.000000000E+00  1.807797275E+02  1.807797275E+02  0.000000000E+00  0.00000E+00  9.000E+00
      21    -1     0     0   512   502  0.000000000E+00  0.000000000E+00 -1.273271838E+03  1.273271838E+03  0.000000000E+00  0.00000E+00  9.000E+00
      25     1     1     2     0     0  2.267365075E+01  1.464930481E+02  4.139604258E+01  1.982749100E+02  1.250000000E+02  0.00000E+00  9.000E+00
      25     1     1     2     0     0 -7.265714359E+01 -2.894035656E+02 -4.433308838E+02  5.488175988E+02  1.250000000E+02  0.00000E+00  9.000E+00
      21     1     1     2   512   501  4.998349284E+01  1.429105174E+02 -6.905572695E+02  7.069590568E+02  1.078959322E-05  0.00000E+00  9.000E+00
#rwgt            1           1   2.8375149638919305E-002           9      260264           0
</event>
<event>
      5   9999  3.19816E-02  6.12878E+01 -1.00000E+00  1.34212E-01
      21    -1     0     0   502   501  0.000000000E+00  0.000000000E+00  7.304324829E+01  7.304324829E+01  0.000000000E+00  0.00000E+00  9.000E+00
      21    -1     0     0   511   502  0.000000000E+00  0.000000000E+00 -1.607865452E+03  1.607865452E+03  0.000000000E+00  0.00000E+00  9.000E+00
      25     1     1     2     0     0  5.810378148E+01 -8.261435219E+00 -1.069000838E+03  1.077883153E+03  1.250000000E+02  0.00000E+00  9.000E+00
      25     1     1     2     0     0 -2.497403960E+01  5.982317394E+01 -7.911346929E+00  1.410322807E+02  1.250000000E+02  0.00000E+00  9.000E+00
      21     1     1     2   511   501 -3.312974188E+01 -5.156173872E+01 -4.579100189E+02  4.619932663E+02  5.394796609E-06  0.00000E+00  9.000E+00
#rwgt            1           1   2.6535084427321106E-002           9      260338           0
</event>
<event>
      5   9999  3.19816E-02  4.39897E+01 -1.00000E+00  1.42325E-01
      21    -1     0     0   512   501  0.000000000E+00  0.000000000E+00  4.033152541E+02  4.033152541E+02  0.000000000E+00  0.00000E+00  9.000E+00
      21    -1     0     0   501   502  0.000000000E+00  0.000000000E+00 -4.428449174E+02  4.428449174E+02  0.000000000E+00  0.00000E+00  9.000E+00
      25     1     1     2     0     0 -1.544467416E+02  3.262626232E+02 -1.981694982E+01  3.825164138E+02  1.250000000E+02  0.00000E+00  9.000E+00
      25     1     1     2     0     0  1.914313642E+02 -3.500793181E+02 -2.726429156E+01  4.190105461E+02  1.250000000E+02  0.00000E+00  9.000E+00
      21     1     1     2   512   502 -3.698462256E+01  2.381669484E+01  7.551578056E+00  4.463321174E+01  7.152557373E-07  0.00000E+00  9.000E+00
#rwgt            1           1   3.1704184634778337E-002           9      260475           0
</event>
<event>
      5   9999  3.19816E-02  1.74851E+02 -1.00000E+00  1.13815E-01
      21    -1     0     0   502   501  0.000000000E+00  0.000000000E+00  4.008994390E+02  4.008994390E+02  0.000000000E+00  0.00000E+00  9.000E+00
      21    -1     0     0   501   511  0.000000000E+00  0.000000000E+00 -7.185269832E+02  7.185269832E+02  0.000000000E+00  0.00000E+00  9.000E+00
      25     1     1     2     0     0 -2.596907305E+02 -1.462416059E+02 -7.831314780E+01  3.325414739E+02  1.250000000E+02  0.00000E+00  9.000E+00
      25     1     1     2     0     0  4.092118361E+02  2.368847815E+02  1.759279850E+00  4.890775210E+02  1.250000000E+02  0.00000E+00  9.000E+00
      21     1     1     2   502   511 -1.495211056E+02 -9.064317565E+01 -2.410736763E+02  2.978074273E+02  3.814697266E-06  0.00000E+00  9.000E+00
#rwgt            2          11   3.5332890467837277E-003           9      260609           0
</event>
<event>
      5   9999  3.19816E-02  2.44051E+01 -1.00000E+00  1.59538E-01
      21    -1     0     0   502   501  0.000000000E+00  0.000000000E+00  3.100286105E+02  3.100286105E+02  0.000000000E+00  0.00000E+00  9.000E+00
      21    -1     0     0   512   502  0.000000000E+00  0.000000000E+00 -3.225098515E+02  3.225098515E+02  0.000000000E+00  0.00000E+00  9.000E+00
      25     1     1     2     0     0  1.653683429E+01  7.574098164E+01  2.631470781E+02  3.014656662E+02  1.250000000E+02  0.00000E+00  9.000E+00
      25     1     1     2     0     0  7.827293154E+00 -7.432797536E+01 -1.757299776E+02  2.282365866E+02  1.250000000E+02  0.00000E+00  9.000E+00
      21     1     1     2   512   501 -2.436412745E+01 -1.413006274E+00 -9.989834151E+01  1.028362092E+02  0.000000000E+00  0.00000E+00  9.000E+00
#rwgt            1           1   2.8235968457799236E-002           9      260644           0
</event>
<event>
      5   9999  3.19816E-02  2.14417E+02 -1.00000E+00  1.10559E-01
      21    -1     0     0   502   511  0.000000000E+00  0.000000000E+00  1.587295202E+02  1.587295202E+02  0.000000000E+00  0.00000E+00  9.000E+00
      21    -1     0     0   501   502  0.000000000E+00  0.000000000E+00 -7.411221788E+02  7.411221788E+02  0.000000000E+00  0.00000E+00  9.000E+00
      25     1     1     2     0     0  1.682596857E+02 -9.057977073E+01 -4.084377801E+02  4.679342228E+02  1.250000000E+02  0.00000E+00  9.000E+00
      25     1     1     2     0     0  4.438565571E+01  1.180831044E+02 -1.067946531E+02  2.072288684E+02  1.250000000E+02  0.00000E+00  9.000E+00
      21     1     1     2   501   511 -2.126453414E+02 -2.750333365E+01 -6.716022541E+01  2.246886078E+02  2.523185073E-06  0.00000E+00  9.000E+00
#rwgt            2          11   3.9721291463105943E-003           9      260914           0
</event>
<event>
      5   9999  3.19816E-02  2.40529E+01 -1.00000E+00  1.60017E-01
      21    -1     0     0   502   501  0.000000000E+00  0.000000000E+00  9.087283117E+01  9.087283117E+01  0.000000000E+00  0.00000E+00  9.000E+00
      21    -1     0     0   512   502  0.000000000E+00  0.000000000E+00 -2.293311321E+03  2.293311321E+03  0.000000000E+00  0.00000E+00  9.000E+00
      25     1     1     2     0     0  2.316527339E+02 -2.928000036E+02 -5.048703184E+02  6.402451637E+02  1.250000000E+02  0.00000E+00  9.000E+00
      25     1     1     2     0     0 -2.095301898E+02  2.833588167E+02 -1.552888794E+03  1.597273842E+03  1.250000000E+02  0.00000E+00  9.000E+00
      21     1     1     2   512   501 -2.212254411E+01  9.441186867E+00 -1.446793768E+02  1.466651459E+02  0.000000000E+00  0.00000E+00  9.000E+00
#rwgt            1           1   3.0300713105913736E-002           9      260934           0
</event>
<event>
      5   9999  3.19816E-02  1.60325E+02 -1.00000E+00  1.15259E-01
      21    -1     0     0   502   501  0.000000000E+00  0.000000000E+00  9.852475175E+02  9.852475175E+02  0.000000000E+00  0.00000E+00  9.000E+00
      21    -1     0     0   501   511  0.000000000E+00  0.000000000E+00 -1.425124156E+03  1.425124156E+03  0.000000000E+00  0.00000E+00  9.000E+00
      25     1     1     2     0     0 -1.907367780E+02  2.862660605E+02  8.880226142E+02  9.604883858E+02  1.250000000E+02  0.00000E+00  9.000E+00
      25     1     1     2     0     0  3.276900510E+02 -2.029113978E+02 -1.091175386E+03  1.163977030E+03  1.250000000E+02  0.00000E+00  9.000E+00
      21     1     1     2   502   511 -1.369532730E+02 -8.335466274E+01 -2.367238670E+02  2.859062573E+02  6.031565972E-06  0.00000E+00  9.000E+00
#rwgt            1           1   2.7435922763997242E-002           9      261081           0
</event>
<event>
      5   9999  3.19816E-02  2.69642E+01 -1.00000E+00  1.56329E-01
      21    -1     0     0   502   501  0.000000000E+00  0.000000000E+00  3.383511260E+02  3.383511260E+02  0.000000000E+00  0.00000E+00  9.000E+00
      21    -1     0     0   512   502  0.000000000E+00  0.000000000E+00 -3.793255973E+02  3.793255973E+02  0.000000000E+00  0.00000E+00  9.000E+00
      25     1     1     2     0     0 -1.191535184E+02 -4.296747234E+01  9.946802116E+01  2.038692028E+02  1.250000000E+02  0.00000E+00  9.000E+00
      25     1     1     2     0     0  9.839081672E+01  6.017144779E+01  1.471832846E+02  2.249205976E+02  1.250000000E+02  0.00000E+00  9.000E+00
      21     1     1     2   512   501  2.076270164E+01 -1.720397545E+01 -2.876257771E+02  2.888869229E+02  0.000000000E+00  0.00000E+00  9.000E+00
#rwgt            1           1   2.5888002869465711E-002           9      261173           0
</event>
<event>
      5   9999  3.19816E-02  5.05870E+01 -1.00000E+00  1.38787E-01
      21    -1     0     0   502   501  0.000000000E+00  0.000000000E+00  6.238429030E+02  6.238429030E+02  0.000000000E+00  0.00000E+00  9.000E+00
      21    -1     0     0   501   511  0.000000000E+00  0.000000000E+00 -8.179698426E+01  8.179698426E+01  0.000000000E+00  0.00000E+00  9.000E+00
      25     1     1     2     0     0 -1.152087662E+02  8.422055211E+01  1.694198818E+02  2.543506587E+02  1.250000000E+02  0.00000E+00  9.000E+00
      25     1     1     2     0     0  1.392106566E+02 -3.969018135E+01  3.428516804E+02  3.925903617E+02  1.250000000E+02  0.00000E+00  9.000E+00
      21     1     1     2   502   511 -2.400189033E+01 -4.453037077E+01  2.977435659E+01  5.869886686E+01  1.168007728E-06  0.00000E+00  9.000E+00
#rwgt            1           1   2.5369569304774606E-002           9      261264           0
</event>
<event>
      5   9999  3.19816E-02  5.97434E+01 -1.00000E+00  1.34803E-01
      21    -1     0     0   502   501  0.000000000E+00  0.000000000E+00  2.180981181E+02  2.180981181E+02  0.000000000E+00  0.00000E+00  9.000E+00
      21    -1     0     0   512   502  0.000000000E+00  0.000000000E+00 -7.936047672E+02  7.936047672E+02  0.000000000E+00  0.00000E+00  9.000E+00
      25     1     1     2     0     0 -1.438849259E+01  5.981588508E+01 -4.880000462E+02  5.074977969E+02  1.250000000E+02  0.00000E+00  9.000E+00
      25     1     1     2     0     0 -3.639761423E+01 -9.128077757E+01  1.741479503E+02  2.358166136E+02  1.250000000E+02  0.00000E+00  9.000E+00
      21     1     1     2   512   501  5.078610682E+01  3.146489250E+01 -2.616545533E+02  2.683884747E+02  3.814697266E-06  0.00000E+00  9.000E+00
#rwgt            1           1   2.6150374524914321E-002           9      261373           0
</event>
<event>
      5   9999  3.19816E-02  2.06252E+01 -1.00000E+00  1.65274E-01
      21    -1     0     0   502   501  0.000000000E+00  0.000000000E+00  1.061737465E+02  1.061737465E+02  0.000000000E+00  0.00000E+00  9.000E+00
      21    -1     0     0   511   502  0.000000000E+00  0.000000000E+00 -3.233455990E+02  3.233455990E+02  0.000000000E+00  0.00000E+00  9.000E+00
      25     1     1     2     0     0  9.899422522E+01 -7.502669502E+01 -1.414091874E+02  2.259433997E+02  1.250000000E+02  0.00000E+00  9.000E+00
      25     1     1     2     0     0 -8.722161559E+01  5.809139080E+01 -5.007014726E+01  1.706289529E+02  1.250000000E+02  0.00000E+00  9.000E+00
      21     1     1     2   511   501 -1.177260963E+01  1.693530422E+01 -2.569251793E+01  3.294699294E+01  4.768371582E-07  0.00000E+00  9.000E+00
#rwgt            1           1   3.2153524999957543E-002           9      261433           0
</event>
<event>
      5   9999  3.19816E-02  8.59202E+01 -1.00000E+00  1.26867E-01
       1    -1     0     0   502     0  0.000000000E+00  0.000000000E+00  2.242409716E+03  2.242409716E+03  0.000000000E+00  0.00000E+00  9.000E+00
      21    -1     0     0   501   502  0.000000000E+00  0.000000000E+00 -9.563580512E+02  9.563580512E+02  0.000000000E+00  0.00000E+00  9.000E+00
      25     1     1     2     0     0  1.202111607E+02  2.902949542E+02 -7.416029034E+02  8.150593536E+02  1.250000000E+02  0.00000E+00  9.000E+00
      25     1     1     2     0     0 -1.830482023E+02 -2.316964347E+02 -3.202011685E+01  3.222424089E+02  1.250000000E+02  0.00000E+00  9.000E+00
       1     1     1     2   501     0  6.283704158E+01 -5.859851953E+01  2.059674685E+03  2.061466005E+03  4.315837288E-05  0.00000E+00  9.000E+00
#rwgt            1           1   2.9175942549930139E-002           9      261576           0
</event>
<event>
      5   9999  3.19816E-02  7.12219E+02 -1.00000E+00  9.46747E-02
      21    -1     0     0   502   501  0.000000000E+00  0.000000000E+00  9.369819225E+02  9.369819225E+02  0.000000000E+00  0.00000E+00  9.000E+00
      21    -1     0     0   501   511  0.000000000E+00  0.000000000E+00 -1.148975548E+03  1.148975548E+03  0.000000000E+00  0.00000E+00  9.000E+00
      25     1     1     2     0     0 -2.118791168E+02  1.246061093E+02  2.823576563E+02  3.946774489E+02  1.250000000E+02  0.00000E+00  9.000E+00
      25     1     1     2     0     0 -1.148826090E+02 -7.574429850E+02  7.445605295E+01  7.797990723E+02  1.250000000E+02  0.00000E+00  9.000E+00
      21     1     1     2   502   511  3.267617257E+02  6.328368756E+02 -5.688073346E+02  9.114809491E+02  7.629394531E-06  0.00000E+00  9.000E+00
#rwgt            2          11   1.8029512321026122E-003           9      261641           0
</event>
<event>
      5   9999  3.19816E-02  7.61093E+01 -1.00000E+00  1.29406E-01
      21    -1     0     0   502   512  0.000000000E+00  0.000000000E+00  1.376549520E+03  1.376549520E+03  0.000000000E+00  0.00000E+00  9.000E+00
      21    -1     0     0   501   502  0.000000000E+00  0.000000000E+00 -1.220058728E+03  1.220058728E+03  0.000000000E+00  0.00000E+00  9.000E+00
      25     1     1     2     0     0  3.516734503E+02 -7.903127806E+02  8.114055818E+02  1.192590678E+03  1.250000000E+02  0.00000E+00  9.000E+00
      25     1     1     2     0     0 -3.855799812E+02  8.584520990E+02 -7.991600938E+02  1.240924568E+03  1.250000000E+02  0.00000E+00  9.000E+00
      21     1     1     2   501   512  3.390653086E+01 -6.813931840E+01  1.442453040E+02  1.630930020E+02  1.907348633E-06  0.00000E+00  9.000E+00
#rwgt            1           1   5.0125335827192370E-002           9      261661           0
</event>
<event>
      5   9999  3.19816E-02  3.97397E+00 -1.00000E+00  2.64140E-01
      21    -1     0     0   511   501  0.000000000E+00  0.000000000E+00  3.454963749E+03  3.454963749E+03  0.000000000E+00  0.00000E+00  9.000E+00
      21    -1     0     0   501   502  0.000000000E+00  0.000000000E+00 -3.194656360E+01  3.194656360E+01  0.000000000E+00  0.00000E+00  9.000E+00
      25     1     1     2     0     0 -1.865328745E+02 -2.209074672E+02  2.136913053E+03  2.160003940E+03  1.250000000E+02  0.00000E+00  9.000E+00
      25     1     1     2     0     0  1.831926031E+02  2.187545640E+02  1.170757892E+03  1.211491696E+03  1.250000000E+02  0.00000E+00  9.000E+00
      21     1     1     2   511   502  3.340271403E+00  2.152903134E+00  1.153462397E+02  1.154146759E+02  1.907348633E-06  0.00000E+00  9.000E+00
#rwgt            1           1   1.9269946685388197E-002           9      261791           0
</event>
<event>
      5   9999  3.19816E-02  4.52080E+01 -1.00000E+00  1.41619E-01
      21    -1     0     0   512   501  0.000000000E+00  0.000000000E+00  3.689667075E+02  3.689667075E+02  0.000000000E+00  0.00000E+00  9.000E+00
      21    -1     0     0   501   502  0.000000000E+00  0.000000000E+00 -5.858705223E+02  5.858705223E+02  0.000000000E+00  0.00000E+00  9.000E+00
      25     1     1     2     0     0  2.750332330E+02  3.188422734E+02 -1.261813145E+02  4.570015303E+02  1.250000000E+02  0.00000E+00  9.000E+00
      25     1     1     2     0     0 -3.078681024E+02 -2.877676524E+02 -1.019944220E+02  4.512436730E+02  1.250000000E+02  0.00000E+00  9.000E+00
      21     1     1     2   512   502  3.283486946E+01 -3.107462096E+01  1.127192171E+01  4.659202656E+01  4.298152060E-07  0.00000E+00  9.000E+00
#rwgt            1           1   3.0741721152229052E-002           9      262241           0
</event>
<event>
      5   9999  3.19816E-02  1.00238E+02 -1.00000E+00  1.23782E-01
      21    -1     0     0   502   501  0.000000000E+00  0.000000000E+00  1.477265685E+03  1.477265685E+03  0.000000000E+00  0.00000E+00  9.000E+00
      21    -1     0     0   511   502  0.000000000E+00  0.000000000E+00 -4.349084474E+02  4.349084474E+02  0.000000000E+00  0.00000E+00  9.000E+00
      25     1     1     2     0     0  5.997103569E+01  6.874866030E+02  9.667060868E+02  1.194311522E+03  1.250000000E+02  0.00000E+00  9.000E+00
      25     1     1     2     0     0 -3.704584810E+01 -5.899057194E+02  2.286004331E+01  6.045731835E+02  1.250000000E+02  0.00000E+00  9.000E+00
      21     1     1     2   511   501 -2.292518759E+01 -9.758088360E+01  5.279110704E+01  1.132894260E+02  1.784161275E-06  0.00000E+00  9.000E+00
#rwgt            1           1   3.0479790272323580E-002           9      262360           0
</event>
<event>
      5   9999  3.19816E-02  1.74619E+01 -1.00000E+00  1.71384E-01
      21    -1     0     0   502   501  0.000000000E+00  0.000000000E+00  1.883283499E+02  1.883283499E+02  0.000000000E+00  0.00000E+00  9.000E+00
      21    -1     0     0   512   502  0.000000000E+00  0.000000000E+00 -6.390287533E+02  6.390287533E+02  0.000000000E+00  0.00000E+00  9.000E+00
      25     1     1     2     0     0 -2.482102063E+02  1.096011874E+02 -4.103124066E+02  5.075450697E+02  1.250000000E+02  0.00000E+00  9.000E+00
      25     1     1     2     0     0  2.307724097E+02 -1.086844960E+02 -9.374054691E+00  2.842201570E+02  1.250000000E+02  0.00000E+00  9.000E+00
      21     1     1     2   512   501  1.743779656E+01 -9.166913312E-01 -3.101394211E+01  3.559187657E+01  4.768371582E-07  0.00000E+00  9.000E+00
#rwgt            1           1   2.4279564216213616E-002           9      262486           0
</event>
<event>
      5   9999  3.19816E-02  1.93582E+02 -1.00000E+00  1.12166E-01
      21    -1     0     0   502   501  0.000000000E+00  0.000000000E+00  8.458778505E+02  8.458778505E+02  0.000000000E+00  0.00000E+00  9.000E+00
       3    -1     0     0   501     0  0.000000000E+00  0.000000000E+00 -6.555255507E+02  6.555255507E+02  0.000000000E+00  0.00000E+00  9.000E+00
      25     1     1     2     0     0 -1.678323249E+02 -2.898901285E+01  7.552444660E+02  7.842367344E+02  1.250000000E+02  0.00000E+00  9.000E+00
      25     1     1     2     0     0  3.360819675E+01  1.684801906E+02 -1.522741253E+02  2.613952845E+02  1.250000000E+02  0.00000E+00  9.000E+00
       3     1     1     2   502     0  1.342241281E+02 -1.394911778E+02 -4.126180409E+02  4.557713823E+02  0.000000000E+00  0.00000E+00  9.000E+00
#rwgt            1           1   2.8630387909008691E-002           9      262666           0
</event>
<event>
      5   9999  3.19816E-02  9.60925E+01 -1.00000E+00  1.24612E-01
      21    -1     0     0   502   511  0.000000000E+00  0.000000000E+00  5.282163579E+02  5.282163579E+02  0.000000000E+00  0.00000E+00  9.000E+00
      21    -1     0     0   501   502  0.000000000E+00  0.000000000E+00 -1.919366301E+03  1.919366301E+03  0.000000000E+00  0.00000E+00  9.000E+00
      25     1     1     2     0     0  7.752806224E+02  5.264407339E+02 -8.477591199E+02  1.269850548E+03  1.250000000E+02  0.00000E+00  9.000E+00
      25     1     1     2     0     0 -6.827568835E+02 -5.523853914E+02 -5.954952479E+02  1.068422282E+03  1.250000000E+02  0.00000E+00  9.000E+00
      21     1     1     2   501   511 -9.252373889E+01  2.594465755E+01  5.210442475E+01  1.093098284E+02  1.784161275E-06  0.00000E+00  9.000E+00
#rwgt            2          11   6.6460126734697242E-003           9      262726           0
</event>
<event>
      5   9999  3.19816E-02  4.48025E+01 -1.00000E+00  1.41851E-01
      21    -1     0     0   502   501  0.000000000E+00  0.000000000E+00  4.088265912E+02  4.088265912E+02  0.000000000E+00  0.00000E+00  9.000E+00
      21    -1     0     0   501   512  0.000000000E+00  0.000000000E+00 -3.690852312E+02  3.690852312E+02  0.000000000E+00  0.00000E+00  9.000E+00
      25     1     1     2     0     0  1.314531841E+02  1.408942583E+02  2.831758489E+02  3.646158157E+02  1.250000000E+02  0.00000E+00  9.000E+00
      25     1     1     2     0     0 -1.723544439E+02 -1.226089488E+02 -1.039207146E+02  2.667649219E+02  1.250000000E+02  0.00000E+00  9.000E+00
      21     1     1     2   502   512  4.090125983E+01 -1.828530954E+01 -1.395137743E+02  1.465310848E+02  1.907348633E-06  0.00000E+00  9.000E+00
#rwgt            1           1   2.7505605853939161E-002           9      262806           0
</event>
<event>
      5   9999  3.19816E-02  1.28789E+02 -1.00000E+00  1.19080E-01
      21    -1     0     0   511   501  0.000000000E+00  0.000000000E+00  1.964980734E+03  1.964980734E+03  0.000000000E+00  0.00000E+00  9.000E+00
      21    -1     0     0   501   502  0.000000000E+00  0.000000000E+00 -1.828824448E+02  1.828824448E+02  0.000000000E+00  0.00000E+00  9.000E+00
      25     1     1     2     0     0  9.862399281E+01 -3.590968702E+02  2.042697149E+02  4.427509126E+02  1.250000000E+02  0.00000E+00  9.000E+00
      25     1     1     2     0     0 -1.183856795E+02  4.863603234E+02  1.210619093E+03  1.315973071E+03  1.250000000E+02  0.00000E+00  9.000E+00
      21     1     1     2   511   502  1.976168667E+01 -1.272634532E+02  3.672094807E+02  3.891391956E+02  5.394796609E-06  0.00000E+00  9.000E+00
#rwgt            1           1   2.8058755210364564E-002           9      262878           0
</event>
<event>
      5   9999  3.19816E-02  1.36456E+02 -1.00000E+00  1.18046E-01
      21    -1     0     0   502   501  0.000000000E+00  0.000000000E+00  6.818898923E+02  6.818898923E+02  0.000000000E+00  0.00000E+00  9.000E+00
       3    -1     0     0   501     0  0.000000000E+00  0.000000000E+00 -1.488943417E+03  1.488943417E+03  0.000000000E+00  0.00000E+00  9.000E+00
      25     1     1     2     0     0 -1.472207400E+00 -2.982985331E+02  5.759015824E+02  6.605087546E+02  1.250000000E+02  0.00000E+00  9.000E+00
      25     1     1     2     0     0  9.718102626E+01  3.955612208E+02 -7.476833015E+02  8.605626942E+02  1.250000000E+02  0.00000E+00  9.000E+00
       3     1     1     2   502     0 -9.570881886E+01 -9.726268766E+01 -6.352718061E+02  6.497618610E+02  0.000000000E+00  0.00000E+00  9.000E+00
#rwgt            1           1   2.3714822261441174E-002           9      262960           0
</event>
<event>
      5   9999  3.19816E-02  2.60443E+01 -1.00000E+00  1.57431E-01
       1    -1     0     0   502     0  0.000000000E+00  0.000000000E+00  8.132567652E+02  8.132567652E+02  0.000000000E+00  0.00000E+00  9.000E+00
      21    -1     0     0   501   502  0.000000000E+00  0.000000000E+00 -4.411319040E+02  4.411319040E+02  0.000000000E+00  0.00000E+00  9.000E+00
      25     1     1     2     0     0 -1.456488046E+02 -2.729063605E+01 -2.686174812E+02  3.312683268E+02  1.250000000E+02  0.00000E+00  9.000E+00
      25     1     1     2     0     0  1.241839690E+02  1.254051683E+01 -8.561208644E+01  1.962991392E+02  1.250000000E+02  0.00000E+00  9.000E+00
       1     1     1     2   501     0  2.146483560E+01  1.475011921E+01  7.263544289E+02  7.268212033E+02  0.000000000E+00  0.00000E+00  9.000E+00
#rwgt            1           1   3.0050757015754603E-002           9      263007           0
</event>
<event>
      5   9999  3.19816E-02  8.33354E+01 -1.00000E+00  1.27497E-01
      21    -1     0     0   511   501  0.000000000E+00  0.000000000E+00  5.846468205E+01  5.846468205E+01  0.000000000E+00  0.00000E+00  9.000E+00
      21    -1     0     0   501   502  0.000000000E+00  0.000000000E+00 -1.719687347E+03  1.719687347E+03  0.000000000E+00  0.00000E+00  9.000E+00
      25     1     1     2     0     0  2.489871590E+00  1.164190190E+02 -1.229918313E+03  1.241726075E+03  1.250000000E+02  0.00000E+00  9.000E+00
      25     1     1     2     0     0  3.974049405E+01 -1.882617946E+02 -3.591871901E+02  4.262185445E+02  1.250000000E+02  0.00000E+00  9.000E+00
      21     1     1     2   511   502 -4.223036564E+01  7.184277552E+01 -7.211716162E+01  1.102074098E+02  1.907348633E-06  0.00000E+00  9.000E+00
#rwgt            1           1   3.0400620669360411E-002           9      263123           0
</event>
<event>
      5   9999  3.19816E-02  2.21258E+01 -1.00000E+00  1.62829E-01
      21    -1     0     0   502   501  0.000000000E+00  0.000000000E+00  1.876423740E+02  1.876423740E+02  0.000000000E+00  0.00000E+00  9.000E+00
      21    -1     0     0   512   502  0.000000000E+00  0.000000000E+00 -1.397084248E+03  1.397084248E+03  0.000000000E+00  0.00000E+00  9.000E+00
      25     1     1     2     0     0  1.964771497E+02  3.627856210E+02 -7.740337003E+02  8.859852405E+02  1.250000000E+02  0.00000E+00  9.000E+00
      25     1     1     2     0     0 -1.848183034E+02 -3.815904184E+02 -2.417483440E+02  5.038217091E+02  1.250000000E+02  0.00000E+00  9.000E+00
      21     1     1     2   512   501 -1.165884628E+01  1.880479747E+01 -1.936598298E+02  1.949196726E+02  2.697398305E-06  0.00000E+00  9.000E+00
#rwgt            1           1   2.9979409367823850E-002           9      263183           0
</event>
<event>
      5   9999  3.19816E-02  1.98961E+01 -1.00000E+00  1.66556E-01
      21    -1     0     0   502   501  0.000000000E+00  0.000000000E+00  2.523302155E+02  2.523302155E+02  0.000000000E+00  0.00000E+00  9.000E+00
      21    -1     0     0   501   511  0.000000000E+00  0.000000000E+00 -4.630946871E+02  4.630946871E+02  0.000000000E+00  0.00000E+00  9.000E+00
      25     1     1     2     0     0  3.345601429E+01  1.028841394E+02 -3.883881715E+02  4.221075963E+02  1.250000000E+02  0.00000E+00  9.000E+00
      25     1     1     2     0     0 -1.728377419E+01 -9.129471323E+01  2.062522819E+02  2.584539752E+02  1.250000000E+02  0.00000E+00  9.000E+00
      21     1     1     2   502   511 -1.617224010E+01 -1.158942612E+01 -2.862858200E+01  3.486333109E+01  4.768371582E-07  0.00000E+00  9.000E+00
#rwgt            1           1   2.4167356295482372E-002           9      263370           0
</event>
<event>
      5   9999  3.19816E-02  1.57673E+01 -1.00000E+00  1.75366E-01
      21    -1     0     0   502   501  0.000000000E+00  0.000000000E+00  3.833224701E+03  3.833224701E+03  0.000000000E+00  0.00000E+00  9.000E+00
      21    -1     0     0   512   502  0.000000000E+00  0.000000000E+00 -2.871464893E+01  2.871464893E+01  0.000000000E+00  0.00000E+00  9.000E+00
      25     1     1     2     0     0  4.187349825E+01 -1.960694156E+02  7.082033784E+02  7.465745983E+02  1.250000000E+02  0.00000E+00  9.000E+00
      25     1     1     2     0     0 -2.964468715E+01  2.060225601E+02  3.088024431E+03  3.097554517E+03  1.250000000E+02  0.00000E+00  9.000E+00
      21     1     1     2   512   501 -1.222881111E+01 -9.953144502E+00  8.282243211E+00  1.781023468E+01  8.344650269E-07  0.00000E+00  9.000E+00
#rwgt            1           1   9.9762352967453314E-003           9      263472           0
</event>
<event>
      5   9999  3.19816E-02  1.26746E+01 -1.00000E+00  1.84565E-01
      21    -1     0     0   502   501  0.000000000E+00  0.000000000E+00  1.809162174E+02  1.809162174E+02  0.000000000E+00  0.00000E+00  9.000E+00
       2    -1     0     0   501     0  0.000000000E+00  0.000000000E+00 -2.141159647E+02  2.141159647E+02  0.000000000E+00  0.00000E+00  9.000E+00
      25     1     1     2     0     0  2.758870910E+01 -1.226589114E+02  6.248102161E+01  1.879766568E+02  1.250000000E+02  0.00000E+00  9.000E+00
      25     1     1     2     0     0 -3.358754143E+01  1.114937557E+02 -9.087834055E+01  1.935015588E+02  1.250000000E+02  0.00000E+00  9.000E+00
       2     1     1     2   502     0  5.998832321E+00  1.116515575E+01 -4.802428362E+00  1.355396659E+01  1.460009660E-07  0.00000E+00  9.000E+00
#rwgt            1           1   3.1394613498920379E-002           9      263648           0
</event>
<event>
      5   9999  3.19816E-02  1.25197E+01 -1.00000E+00  1.85113E-01
      21    -1     0     0   502   511  0.000000000E+00  0.000000000E+00  8.316307673E+01  8.316307673E+01  0.000000000E+00  0.00000E+00  9.000E+00
      21    -1     0     0   501   502  0.000000000E+00  0.000000000E+00 -5.116286756E+02  5.116286756E+02  0.000000000E+00  0.00000E+00  9.000E+00
      25     1     1     2     0     0  1.258941579E+02 -7.704577177E+01 -1.485892648E+02  2.439039966E+02  1.250000000E+02  0.00000E+00  9.000E+00
      25     1     1     2     0     0 -1.246730475E+02  8.950574452E+01 -2.707803462E+02  3.354126458E+02  1.250000000E+02  0.00000E+00  9.000E+00
      21     1     1     2   501   511 -1.221110432E+00 -1.245997276E+01 -9.095987899E+00  1.547510994E+01  2.384185791E-07  0.00000E+00  9.000E+00
#rwgt            1           1   3.0909966494576790E-002           9      263817           0
</event>
<event>
      5   9999  3.19816E-02  2.37686E+01 -1.00000E+00  1.60412E-01
       2    -1     0     0   502     0  0.000000000E+00  0.000000000E+00  8.660754354E+02  8.660754354E+02  0.000000000E+00  0.00000E+00  9.000E+00
      21    -1     0     0   501   502  0.000000000E+00  0.000000000E+00 -4.306828097E+02  4.306828097E+02  0.000000000E+00  0.00000E+00  9.000E+00
      25     1     1     2     0     0 -4.184983226E+02 -3.374259318E+02 -5.514556772E+01  5.546739034E+02  1.250000000E+02  0.00000E+00  9.000E+00
      25     1     1     2     0     0  3.966710921E+02  3.280175798E+02  4.838032336E+02  7.173799947E+02  1.250000000E+02  0.00000E+00  9.000E+00
       2     1     1     2   501     0  2.182723054E+01  9.408351987E+00  6.734959825E+00  2.470434707E+01  8.429369702E-08  0.00000E+00  9.000E+00
#rwgt            2          18   3.6745644252222142E-005           9      264187           0
</event>
<event>
      5   9999  3.19816E-02  6.60384E+01 -1.00000E+00  1.32515E-01
      21    -1     0     0   502   501  0.000000000E+00  0.000000000E+00  6.352144163E+02  6.352144163E+02  0.000000000E+00  0.00000E+00  9.000E+00
       2    -1     0     0   501     0  0.000000000E+00  0.000000000E+00 -7.995744564E+02  7.995744564E+02  0.000000000E+00  0.00000E+00  9.000E+00
      25     1     1     2     0     0  1.731242882E+01 -2.095415292E+02  4.721673275E+02  5.317653221E+02  1.250000000E+02  0.00000E+00  9.000E+00
      25     1     1     2     0     0  3.557317734E+00  2.721955625E+02 -3.925060753E+01  3.021070819E+02  1.250000000E+02  0.00000E+00  9.000E+00
       2     1     1     2   502     0 -2.086974655E+01 -6.265403327E+01 -5.972767600E+02  6.009164686E+02  0.000000000E+00  0.00000E+00  9.000E+00
#rwgt            1           1   2.9714673871987049E-002           9      264221           0
</event>
<event>
      5   9999  3.19816E-02  2.98299E+01 -1.00000E+00  1.53212E-01
      21    -1     0     0   511   501  0.000000000E+00  0.000000000E+00  3.410662324E+02  3.410662324E+02  0.000000000E+00  0.00000E+00  9.000E+00
      21    -1     0     0   501   502  0.000000000E+00  0.000000000E+00 -1.647136142E+03  1.647136142E+03  0.000000000E+00  0.00000E+00  9.000E+00
      25     1     1     2     0     0 -2.092796933E+01  3.530968212E+02 -3.062991224E+02  4.843134289E+02  1.250000000E+02  0.00000E+00  9.000E+00
      25     1     1     2     0     0  5.005926338E+01 -3.466789192E+02 -1.223193700E+03  1.278483489E+03  1.250000000E+02  0.00000E+00  9.000E+00
      21     1     1     2   511   502 -2.913129406E+01 -6.417902027E+00  2.234229131E+02  2.254054566E+02  7.136645101E-06  0.00000E+00  9.000E+00
#rwgt            1           1   3.1341517726732451E-002           9      264304           0
</event>
<event>
      5   9999  3.19816E-02  1.59415E+01 -1.00000E+00  1.74929E-01
      21    -1     0     0   502   501  0.000000000E+00  0.000000000E+00  9.698497282E+01  9.698497282E+01  0.000000000E+00  0.00000E+00  9.000E+00
      21    -1     0     0   501   512  0.000000000E+00  0.000000000E+00 -8.479538080E+02  8.479538080E+02  0.000000000E+00  0.00000E+00  9.000E+00
      25     1     1     2     0     0  2.395006793E+02 -7.540792555E+01 -3.696863128E+02  4.640473041E+02  1.250000000E+02  0.00000E+00  9.000E+00
      25     1     1     2     0     0 -2.272466491E+02  6.521131952E+01 -3.173699189E+02  4.150207479E+02  1.250000000E+02  0.00000E+00  9.000E+00
      21     1     1     2   502   512 -1.225403021E+01  1.019660604E+01 -6.391260350E+01  6.587072883E+01  9.536743164E-07  0.00000E+00  9.000E+00
#rwgt            1           1   2.9106113803784719E-002           9      264483           0
</event>
<event>
      5   9999  3.19816E-02  1.95139E+02 -1.00000E+00  1.12038E-01
      21    -1     0     0   502   501  0.000000000E+00  0.000000000E+00  7.221902332E+02  7.221902332E+02  0.000000000E+00  0.00000E+00  9.000E+00
      21    -1     0     0   501   511  0.000000000E+00  0.000000000E+00 -3.394967151E+02  3.394967151E+02  0.000000000E+00  0.00000E+00  9.000E+00
      25     1     1     2     0     0 -1.790877856E+02 -3.523101245E+02  2.672949607E+02  4.932204931E+02  1.250000000E+02  0.00000E+00  9.000E+00
      25     1     1     2     0     0  1.582104859E+02  1.582913892E+02  2.280880241E+02  3.431266070E+02  1.250000000E+02  0.00000E+00  9.000E+00
      21     1     1     2   502   511  2.087729971E+01  1.940187353E+02 -1.126894666E+02  2.253398482E+02  1.907348633E-06  0.00000E+00  9.000E+00
#rwgt            1           1   2.4143103766377804E-002           9      264655           0
</event>
<event>
      5   9999  3.19816E-02  1.08188E+02 -1.00000E+00  1.22310E-01
      21    -1     0     0   502   501  0.000000000E+00  0.000000000E+00  1.307673772E+02  1.307673772E+02  0.000000000E+00  0.00000E+00  9.000E+00
      -2    -1     0     0     0   502  0.000000000E+00  0.000000000E+00 -6.604635032E+02  6.604635032E+02  0.000000000E+00  0.00000E+00  9.000E+00
      25     1     1     2     0     0 -1.398954062E+02 -1.735256730E+02 -1.202507005E+02  2.824307257E+02  1.250000000E+02  0.00000E+00  9.000E+00
      25     1     1     2     0     0  8.209683026E+01  8.207119990E+01 -1.479535945E+02  2.258115088E+02  1.250000000E+02  0.00000E+00  9.000E+00
      -2     1     1     2     0   501  5.779857593E+01  9.145447307E+01 -2.614918310E+02  2.829886459E+02  5.394796609E-06  0.00000E+00  9.000E+00
#rwgt            1           1   2.5387905993111377E-002           9      264716           0
</event>
<event>
      5   9999  3.19816E-02  2.75116E+01 -1.00000E+00  1.55699E-01
      21    -1     0     0   502   501  0.000000000E+00  0.000000000E+00  4.279381556E+02  4.279381556E+02  0.000000000E+00  0.00000E+00  9.000E+00
      21    -1     0     0   511   502  0.000000000E+00  0.000000000E+00 -1.399003989E+03  1.399003989E+03  0.000000000E+00  0.00000E+00  9.000E+00
      25     1     1     2     0     0  9.518835496E+01  7.574113413E+00  7.866768997E+01  1.758743744E+02  1.250000000E+02  0.00000E+00  9.000E+00
      25     1     1     2     0     0 -8.625255513E+01 -3.359405502E+01  2.803992065E+02  3.206505556E+02  1.250000000E+02  0.00000E+00  9.000E+00
      21     1     1     2   511   501 -8.935799831E+00  2.601994161E+01 -1.330132730E+03  1.330417215E+03  2.157918644E-05  0.00000E+00  9.000E+00
#rwgt            1           1   3.5672102783525277E-002           9      264782           0
</event>
<event>
      5   9999  3.19816E-02  2.19803E+01 -1.00000E+00  1.63056E-01
      21    -1     0     0   502   501  0.000000000E+00  0.000000000E+00  1.307344310E+03  1.307344310E+03  0.000000000E+00  0.00000E+00  9.000E+00
       1    -1     0     0   501     0  0.000000000E+00  0.000000000E+00 -2.671330275E+03  2.671330275E+03  0.000000000E+00  0.00000E+00  9.000E+00
      25     1     1     2     0     0 -2.101330288E+02 -5.667814981E+02 -2.669177646E+02  6.725081779E+02  1.250000000E+02  0.00000E+00  9.000E+00
      25     1     1     2     0     0  2.020808701E+02  5.872337659E+02  1.013657087E+03  1.195326676E+03  1.250000000E+02  0.00000E+00  9.000E+00
       1     1     1     2   502     0  8.052158770E+00 -2.045226785E+01 -2.110725287E+03  2.110839731E+03  0.000000000E+00  0.00000E+00  9.000E+00
#rwgt            1           1   3.1349580745892239E-002           9      264858           0
</event>
<event>
      5   9999  3.19816E-02  3.12882E+01 -1.00000E+00  1.51782E-01
      21    -1     0     0   502   501  0.000000000E+00  0.000000000E+00  6.112747984E+02  6.112747984E+02  0.000000000E+00  0.00000E+00  9.000E+00
      21    -1     0     0   501   511  0.000000000E+00  0.000000000E+00 -5.818770551E+02  5.818770551E+02  0.000000000E+00  0.00000E+00  9.000E+00
      25     1     1     2     0     0  2.279872651E+02 -1.647062674E+02  5.103935275E+02  5.960141780E+02  1.250000000E+02  0.00000E+00  9.000E+00
      25     1     1     2     0     0 -2.216950759E+02  1.953552832E+02 -4.532882055E+02  5.553445693E+02  1.250000000E+02  0.00000E+00  9.000E+00
      21     1     1     2   502   511 -6.292189163E+00 -3.064901582E+01 -2.770757862E+01  4.179310623E+01  1.066240300E-06  0.00000E+00  9.000E+00
#rwgt            1           1   2.4161871643499869E-002           9      265011           0
</event>
<event>
      5   9999  3.19816E-02  1.02744E+02 -1.00000E+00  1.23301E-01
      21    -1     0     0   502   512  0.000000000E+00  0.000000000E+00  2.446464652E+02  2.446464652E+02  0.000000000E+00  0.00000E+00  9.000E+00
      21    -1     0     0   501   502  0.000000000E+00  0.000000000E+00 -7.047673057E+02  7.047673057E+02  0.000000000E+00  0.00000E+00  9.000E+00
      25     1     1     2     0     0 -1.979840451E+02  1.597826470E+02 -1.585287326E+02  3.247838288E+02  1.250000000E+02  0.00000E+00  9.000E+00
      25     1     1     2     0     0  2.932649604E+02 -1.982255671E+02 -3.480053529E+02  5.118890877E+02  1.250000000E+02  0.00000E+00  9.000E+00
      21     1     1     2   501   512 -9.528091529E+01  3.844292006E+01  4.641324502E+01  1.127408543E+02  1.168007728E-06  0.00000E+00  9.000E+00
#rwgt            1           1   2.8175408266418407E-002           9      265194           0
</event>
<event>
      5   9999  3.19816E-02  7.77015E+01 -1.00000E+00  1.28965E-01
      21    -1     0     0   502   501  0.000000000E+00  0.000000000E+00  1.346719510E+02  1.346719510E+02  0.000000000E+00  0.00000E+00  9.000E+00
      21    -1     0     0   511   502  0.000000000E+00  0.000000000E+00 -7.995113843E+02  7.995113843E+02  0.000000000E+00  0.00000E+00  9.000E+00
      25     1     1     2     0     0  2.517385106E+02  1.166104620E+02 -1.853573242E+02  3.563041049E+02  1.250000000E+02  0.00000E+00  9.000E+00
      25     1     1     2     0     0 -1.754778549E+02 -1.017161998E+02 -3.061866837E+02  3.879612714E+02  1.250000000E+02  0.00000E+00  9.000E+00
      21     1     1     2   511   501 -7.626065565E+01 -1.489426225E+01 -1.732954254E+02  1.899179589E+02  3.303624740E-06  0.00000E+00  9.000E+00
#rwgt            1           1   2.9059763883487161E-002           9      265263           0
</event>
<event>
      5   9999  3.19816E-02  1.15315E+02 -1.00000E+00  1.21107E-01
      21    -1     0     0   502   501  0.000000000E+00  0.000000000E+00  4.847964398E+02  4.847964398E+02  0.000000000E+00  0.00000E+00  9.000E+00
      21    -1     0     0   512   502  0.000000000E+00  0.000000000E+00 -3.909595024E+02  3.909595024E+02  0.000000000E+00  0.00000E+00  9.000E+00
      25     1     1     2     0     0 -2.899673533E+01 -7.893685084E+01  3.396738944E+02  3.715847032E+02  1.250000000E+02  0.00000E+00  9.000E+00
      25     1     1     2     0     0  1.302617966E+02  1.340999023E+02  8.354516520E+00  2.250460339E+02  1.250000000E+02  0.00000E+00  9.000E+00
      21     1     1     2   512   501 -1.012650613E+02 -5.516305142E+01 -2.541914735E+02  2.791252050E+02  3.814697266E-06  0.00000E+00  9.000E+00
#rwgt            1           1   3.0207199201729543E-002           9      265317           0
</event>
<event>
      5   9999  3.19816E-02  2.09747E+01 -1.00000E+00  1.64682E-01
      21    -1     0     0   502   501  0.000000000E+00  0.000000000E+00  4.146187901E+02  4.146187901E+02  0.000000000E+00  0.00000E+00  9.000E+00
      -2    -1     0     0     0   502  0.000000000E+00  0.000000000E+00 -7.049460748E+02  7.049460748E+02  0.000000000E+00  0.00000E+00  9.000E+00
      25     1     1     2     0     0 -1.973227054E+02  6.931903271E+01 -8.686959391E+01  2.586749016E+02  1.250000000E+02  0.00000E+00  9.000E+00
      25     1     1     2     0     0  2.180503201E+02 -6.610905984E+01  2.770840610E+02  3.798906774E+02  1.250000000E+02  0.00000E+00  9.000E+00
      -2     1     1     2     0   501 -2.072761470E+01 -3.209972867E+00 -4.805417518E+02  4.809992860E+02  5.394796609E-06  0.00000E+00  9.000E+00
#rwgt            1           1   2.2627785120844280E-002           9      265373           0
</event>
<event>
      5   9999  3.19816E-02  2.81782E+02 -1.00000E+00  1.06484E-01
      21    -1     0     0   502   511  0.000000000E+00  0.000000000E+00  2.652125628E+03  2.652125628E+03  0.000000000E+00  0.00000E+00  9.000E+00
      21    -1     0     0   501   502  0.000000000E+00  0.000000000E+00 -2.378499117E+02  2.378499117E+02  0.000000000E+00  0.00000E+00  9.000E+00
      25     1     1     2     0     0  4.300127388E+02 -4.595164155E+02  1.600535803E+03  1.724356735E+03  1.250000000E+02  0.00000E+00  9.000E+00
      25     1     1     2     0     0 -3.613164898E+02  1.862362611E+02  1.611346948E+02  4.547779025E+02  1.250000000E+02  0.00000E+00  9.000E+00
      21     1     1     2   501   511 -6.869624904E+01  2.732801544E+02  6.526052187E+02  7.108409027E+02  7.629394531E-06  0.00000E+00  9.000E+00
#rwgt            1           1   1.9381340877436388E-002           9      265488           0
</event>
<event>
      5   9999  3.19816E-02  3.36978E+02 -1.00000E+00  1.03977E-01
      21    -1     0     0   502   501  0.000000000E+00  0.000000000E+00  2.481832913E+02  2.481832913E+02  0.000000000E+00  0.00000E+00  9.000E+00
      -3    -1     0     0     0   502  0.000000000E+00  0.000000000E+00 -1.253495975E+03  1.253495975E+03  0.000000000E+00  0.00000E+00  9.000E+00
      25     1     1     2     0     0  1.167785305E+02 -1.229169794E+02 -7.430494051E+01  2.233652462E+02  1.250000000E+02  0.00000E+00  9.000E+00
      25     1     1     2     0     0  1.130460719E+02  3.693611785E+02 -1.590970048E+02  4.360549868E+02  1.250000000E+02  0.00000E+00  9.000E+00
      -3     1     1     2     0   501 -2.298246025E+02 -2.464441991E+02 -7.719107386E+02  8.422590335E+02  1.078959322E-05  0.00000E+00  9.000E+00
#rwgt            2           8   4.9642255100826832E-005           9      265548           0
</event>
<event>
      5   9999  3.19816E-02  2.04368E+01 -1.00000E+00  1.65599E-01
       1    -1     0     0   502     0  0.000000000E+00  0.000000000E+00  1.894215964E+03  1.894215964E+03  0.000000000E+00  0.00000E+00  9.000E+00
      21    -1     0     0   501   502  0.000000000E+00  0.000000000E+00 -1.172797464E+02  1.172797464E+02  0.000000000E+00  0.00000E+00  9.000E+00
      25     1     1     2     0     0 -3.535497802E+02 -1.904703385E+01  3.601002083E+02  5.202474379E+02  1.250000000E+02  0.00000E+00  9.000E+00
      25     1     1     2     0     0  3.374808847E+02  6.419561178E+00  8.377648563E+02  9.118166004E+02  1.250000000E+02  0.00000E+00  9.000E+00
       1     1     1     2   501     0  1.606889551E+01  1.262747267E+01  5.790711528E+02  5.794316720E+02  0.000000000E+00  0.00000E+00  9.000E+00
#rwgt            1           1   3.1071944730129364E-002           9      265567           0
</event>
<event>
      5   9999  3.19816E-02  4.54857E+01 -1.00000E+00  1.41462E-01
      21    -1     0     0   502   511  0.000000000E+00  0.000000000E+00  1.396292022E+02  1.396292022E+02  0.000000000E+00  0.00000E+00  9.000E+00
      21    -1     0     0   501   502  0.000000000E+00  0.000000000E+00 -1.111682821E+03  1.111682821E+03  0.000000000E+00  0.00000E+00  9.000E+00
      25     1     1     2     0     0  5.580644179E+01  1.726569215E+02 -9.787367508E+02  1.003232475E+03  1.250000000E+02  0.00000E+00  9.000E+00
      25     1     1     2     0     0 -6.743740067E+01 -1.286834087E+02  3.453630425E+01  1.947433670E+02  1.250000000E+02  0.00000E+00  9.000E+00
      21     1     1     2   501   511  1.163095888E+01 -4.397351279E+01 -2.785317241E+01  5.333618138E+01  5.840038640E-07  0.00000E+00  9.000E+00
#rwgt            1           1   2.4681149413909215E-002           9      265755           0
</event>
<event>
      5   9999  3.19816E-02  1.89347E+02 -1.00000E+00  1.12520E-01
      21    -1     0     0   512   501  0.000000000E+00  0.000000000E+00  4.508817081E+02  4.508817081E+02  0.000000000E+00  0.00000E+00  9.000E+00
      21    -1     0     0   501   502  0.000000000E+00  0.000000000E+00 -1.153252122E+03  1.153252122E+03  0.000000000E+00  0.00000E+00  9.000E+00
      25     1     1     2     0     0  4.672964668E+02 -4.704771524E+02 -6.060732399E+02  9.070085506E+02  1.250000000E+02  0.00000E+00  9.000E+00
      25     1     1     2     0     0 -3.696263577E+02  3.082651608E+02 -1.023047355E+02  5.076832798E+02  1.250000000E+02  0.00000E+00  9.000E+00
      21     1     1     2   512   502 -9.767010913E+01  1.622119917E+02  6.007561514E+00  1.894419997E+02  3.392755859E-06  0.00000E+00  9.000E+00
#rwgt            2          11   5.8011500081018861E-003           9      265896           0
</event>
<event>
      5   9999  3.19816E-02  1.07157E+02 -1.00000E+00  1.22493E-01
      21    -1     0     0   502   501  0.000000000E+00  0.000000000E+00  5.157153385E+02  5.157153385E+02  0.000000000E+00  0.00000E+00  9.000E+00
       2    -1     0     0   501     0  0.000000000E+00  0.000000000E+00 -4.500938492E+02  4.500938492E+02  0.000000000E+00  0.00000E+00  9.000E+00
      25     1     1     2     0     0  4.246231202E+01 -1.341106047E+02  4.272653435E+02  4.668719053E+02  1.250000000E+02  0.00000E+00  9.000E+00
      25     1     1     2     0     0  4.668526123E+01  1.935695088E+02 -2.264350722E+02  3.264146294E+02  1.250000000E+02  0.00000E+00  9.000E+00
       2     1     1     2   502     0 -8.914757326E+01 -5.945890406E+01 -1.352087819E+02  1.725226530E+02  2.697398305E-06  0.00000E+00  9.000E+00
#rwgt            1           1   2.4689742154701030E-002           9      265931           0
</event>
<event>
      5   9999  3.19816E-02  2.07246E+01 -1.00000E+00  1.65104E-01
      21    -1     0     0   511   501  0.000000000E+00  0.000000000E+00  2.661250985E+03  2.661250985E+03  0.000000000E+00  0.00000E+00  9.000E+00
      21    -1     0     0   501   502  0.000000000E+00  0.000000000E+00 -1.658319684E+01  1.658319684E+01  0.000000000E+00  0.00000E+00  9.000E+00
      25     1     1     2     0     0 -5.480702394E+01 -1.252761633E+02  7.173426668E+02  7.408801716E+02  1.250000000E+02  0.00000E+00  9.000E+00
      25     1     1     2     0     0  5.543539195E+01  1.045610727E+02  1.708664347E+03  1.717313295E+03  1.250000000E+02  0.00000E+00  9.000E+00
      21     1     1     2   511   502 -6.283680176E-01  2.071509058E+01  2.186607743E+02  2.196407158E+02  2.697398305E-06  0.00000E+00  9.000E+00
#rwgt            1           1   4.8970761818782703E-002           9      266029           0
</event>
<event>
      5   9999  3.19816E-02  8.32725E+01 -1.00000E+00  1.27512E-01
      21    -1     0     0   502   501  0.000000000E+00  0.000000000E+00  5.851712555E+01  5.851712555E+01  0.000000000E+00  0.00000E+00  9.000E+00
      21    -1     0     0   512   502  0.000000000E+00  0.000000000E+00 -9.893041650E+02  9.893041650E+02  0.000000000E+00  0.00000E+00  9.000E+00
      25     1     1     2     0     0  1.324018068E+02  1.021436353E+02 -3.007021946E+02  3.660742692E+02  1.250000000E+02  0.00000E+00  9.000E+00
      25     1     1     2     0     0 -5.045640757E+01 -8.733595815E+01 -2.889042039E+02  3.305511423E+02  1.250000000E+02  0.00000E+00  9.000E+00
      21     1     1     2   512   501 -8.194539921E+01 -1.480767717E+01 -3.411806409E+02  3.511958791E+02  5.394796609E-06  0.00000E+00  9.000E+00
#rwgt            1           1   2.1452532320505629E-002           9      266152           0
</event>
<event>
      5   9999  3.19816E-02  6.80393E+01 -1.00000E+00  1.31849E-01
      21    -1     0     0   502   501  0.000000000E+00  0.000000000E+00  7.452243311E+01  7.452243311E+01  0.000000000E+00  0.00000E+00  9.000E+00
      21    -1     0     0   511   502  0.000000000E+00  0.000000000E+00 -1.279598081E+03  1.279598081E+03  0.000000000E+00  0.00000E+00  9.000E+00
      25     1     1     2     0     0 -1.471706565E+02 -1.634148616E+02 -3.709260169E+02  4.489707442E+02  1.250000000E+02  0.00000E+00  9.000E+00
      25     1     1     2     0     0  8.487286247E+01  1.360593111E+02 -2.756721747E+02  3.425429708E+02  1.250000000E+02  0.00000E+00  9.000E+00
      21     1     1     2   511   501  6.229779404E+01  2.735555048E+01 -5.584774559E+02  5.626067988E+02  0.000000000E+00  0.00000E+00  9.000E+00
#rwgt            1           1   2.8328412544832624E-002           9      266245           0
</event>
<event>
      5   9999  3.19816E-02  4.24851E+02 -1.00000E+00  1.00904E-01
      21    -1     0     0   502   501  0.000000000E+00  0.000000000E+00  1.549073072E+03  1.549073072E+03  0.000000000E+00  0.00000E+00  9.000E+00
      21    -1     0     0   501   512  0.000000000E+00  0.000000000E+00 -9.805694299E+02  9.805694299E+02  0.000000000E+00  0.00000E+00  9.000E+00
      25     1     1     2     0     0 -3.155708962E+00  8.024360843E+02 -2.063114390E+02  8.379158894E+02  1.250000000E+02  0.00000E+00  9.000E+00
      25     1     1     2     0     0  4.062920457E+02 -9.365237475E+02  7.368213632E+02  1.265180097E+03  1.250000000E+02  0.00000E+00  9.000E+00
      21     1     1     2   502   512 -4.031363367E+02  1.340876633E+02  3.799371774E+01  4.265465156E+02  1.507891493E-06  0.00000E+00  9.000E+00
#rwgt            1           1   3.6240922004724042E-002           9      266305           0
</event>
<event>
      5   9999  3.19816E-02  1.18377E+02 -1.00000E+00  1.20620E-01
      21    -1     0     0   502   501  0.000000000E+00  0.000000000E+00  2.050577853E+02  2.050577853E+02  0.000000000E+00  0.00000E+00  9.000E+00
       2    -1     0     0   501     0  0.000000000E+00  0.000000000E+00 -9.310021764E+02  9.310021764E+02  0.000000000E+00  0.00000E+00  9.000E+00
      25     1     1     2     0     0  1.378253328E+02 -1.769042029E+02 -5.436383877E+01  2.624335084E+02  1.250000000E+02  0.00000E+00  9.000E+00
      25     1     1     2     0     0 -2.368965151E+02  1.121125845E+02 -1.280421182E+02  3.173467733E+02  1.250000000E+02  0.00000E+00  9.000E+00
       2     1     1     2   502     0  9.907118231E+01  6.479161836E+01 -5.435384341E+02  5.562796800E+02  1.525878906E-05  0.00000E+00  9.000E+00
#rwgt            1           1   2.8460048992012384E-002           9      266367           0
</event>
<event>
      5   9999  3.19816E-02  2.36609E+01 -1.00000E+00  1.60563E-01
      21    -1     0     0   502   501  0.000000000E+00  0.000000000E+00  1.082197841E+03  1.082197841E+03  0.000000000E+00  0.00000E+00  9.000E+00
      21    -1     0     0   501   511  0.000000000E+00  0.000000000E+00 -1.991698770E+02  1.991698770E+02  0.000000000E+00  0.00000E+00  9.000E+00
      25     1     1     2     0     0 -3.302134189E+01 -3.107058554E+02  8.168068763E+02  8.834178008E+02  1.250000000E+02  0.00000E+00  9.000E+00
      25     1     1     2     0     0  3.246194843E+01  3.343601600E+02  8.424979194E+01  3.682030990E+02  1.250000000E+02  0.00000E+00  9.000E+00
      21     1     1     2   502   511  5.593934566E-01 -2.365430462E+01 -1.802870388E+01  2.974681851E+01  2.384185791E-07  0.00000E+00  9.000E+00
#rwgt            1           1   2.6608994870179821E-002           9      266450           0
</event>
<event>
      5   9999  3.19816E-02  3.08865E+01 -1.00000E+00  1.52167E-01
      21    -1     0     0   512   501  0.000000000E+00  0.000000000E+00  5.634404028E+02  5.634404028E+02  0.000000000E+00  0.00000E+00  9.000E+00
      21    -1     0     0   501   502  0.000000000E+00  0.000000000E+00 -1.787683622E+03  1.787683622E+03  0.000000000E+00  0.00000E+00  9.000E+00
      25     1     1     2     0     0  1.519815381E+02  9.081402592E+02 -7.257850336E+02  1.179069987E+03  1.250000000E+02  0.00000E+00  9.000E+00
      25     1     1     2     0     0 -1.234017657E+02 -8.964281979E+02 -5.819051796E+02  1.083074396E+03  1.250000000E+02  0.00000E+00  9.000E+00
      21     1     1     2   512   502 -2.857977240E+01 -1.171206131E+01  8.344699429E+01  8.897964164E+01  2.132480600E-06  0.00000E+00  9.000E+00
#rwgt            1           1   3.2316558981273218E-002           9      266597           0
</event>
<event>
      5   9999  3.19816E-02  7.86143E+01 -1.00000E+00  1.28718E-01
      21    -1     0     0   502   501  0.000000000E+00  0.000000000E+00  1.864554448E+02  1.864554448E+02  0.000000000E+00  0.00000E+00  9.000E+00
      21    -1     0     0   511   502  0.000000000E+00  0.000000000E+00 -5.777417415E+02  5.777417415E+02  0.000000000E+00  0.00000E+00  9.000E+00
      25     1     1     2     0     0 -1.459242103E+02  2.072864501E+02 -2.885560731E+02  4.039197381E+02  1.250000000E+02  0.00000E+00  9.000E+00
      25     1     1     2     0     0  6.753576546E+01 -2.013316493E+02 -2.168438554E+01  2.473675912E+02  1.250000000E+02  0.00000E+00  9.000E+00
      21     1     1     2   511   501  7.838844480E+01 -5.954800825E+00 -8.104583800E+01  1.129098569E+02  9.536743164E-07  0.00000E+00  9.000E+00
#rwgt            1           1   2.7986658152246241E-002           9      266843           0
</event>
<event>
      5   9999  3.19816E-02  3.76960E+01 -1.00000E+00  1.46456E-01
      21    -1     0     0   502   501  0.000000000E+00  0.000000000E+00  1.159554746E+03  1.159554746E+03  0.000000000E+00  0.00000E+00  9.000E+00
      21    -1     0     0   512   502  0.000000000E+00  0.000000000E+00 -4.692222493E+01  4.692222493E+01  0.000000000E+00  0.00000E+00  9.000E+00
      25     1     1     2     0     0 -6.772174831E+01  6.886200982E+01  1.965842445E+02  2.521875825E+02  1.250000000E+02  0.00000E+00  9.000E+00
      25     1     1     2     0     0  9.033213880E+01 -9.902419589E+01  8.894937809E+02  9.081794277E+02  1.250000000E+02  0.00000E+00  9.000E+00
      21     1     1     2   512   501 -2.261039049E+01  3.016218606E+01  2.655449547E+01  4.610996049E+01  5.840038640E-07  0.00000E+00  9.000E+00
#rwgt            1           1   2.8137907037550109E-002           9      266948           0
</event>
<event>
      5   9999  3.19816E-02  4.23487E+01 -1.00000E+00  1.43320E-01
      21    -1     0     0   511   501  0.000000000E+00  0.000000000E+00  3.513688945E+02  3.513688945E+02  0.000000000E+00  0.00000E+00  9.000E+00
      21    -1     0     0   501   502  0.000000000E+00  0.000000000E+00 -7.310019463E+02  7.310019463E+02  0.000000000E+00  0.00000E+00  9.000E+00
      25     1     1     2     0     0  1.270891346E+02 -1.994364572E+02 -6.186348977E+02  6.739886388E+02  1.250000000E+02  0.00000E+00  9.000E+00
      25     1     1     2     0     0 -1.689032319E+02  1.927287433E+02  2.267458112E+02  3.642956672E+02  1.250000000E+02  0.00000E+00  9.000E+00
      21     1     1     2   511   502  4.181409736E+01  6.707713893E+00  1.225603469E+01  4.408653479E+01  7.725644944E-07  0.00000E+00  9.000E+00
#rwgt            1           1   3.0292436644035536E-002           9      267032           0
</event>
<event>
      5   9999  3.19816E-02  1.03522E+02 -1.00000E+00  1.23156E-01
      21    -1     0     0   502   501  0.000000000E+00  0.000000000E+00  6.536816021E+02  6.536816021E+02  0.000000000E+00  0.00000E+00  9.000E+00
      21    -1     0     0   501   512  0.000000000E+00  0.000000000E+00 -3.884388447E+03  3.884388447E+03  0.000000000E+00  0.00000E+00  9.000E+00
      25     1     1     2     0     0 -1.330846256E+03 -6.530683638E+02 -2.125957339E+03  2.594796650E+03  1.250000000E+02  0.00000E+00  9.000E+00
      25     1     1     2     0     0  1.227407485E+03  6.489220419E+02 -7.692554698E+02  1.592170823E+03  1.250000000E+02  0.00000E+00  9.000E+00
      21     1     1     2   502   512  1.034387705E+02  4.146321838E+00 -3.354940357E+02  3.511025765E+02  5.394796609E-06  0.00000E+00  9.000E+00
#rwgt            1           1   2.8483698100594562E-002           9      267203           0
</event>
<event>
      5   9999  3.19816E-02  1.14226E+02 -1.00000E+00  1.21284E-01
      21    -1     0     0   502   501  0.000000000E+00  0.000000000E+00  3.405172177E+03  3.405172177E+03  0.000000000E+00  0.00000E+00  9.000E+00
      21    -1     0     0   511   502  0.000000000E+00  0.000000000E+00 -5.837719601E+02  5.837719601E+02  0.000000000E+00  0.00000E+00  9.000E+00
      25     1     1     2     0     0 -6.627612358E+02  1.209185810E+02  1.858811861E+03  1.981080587E+03  1.250000000E+02  0.00000E+00  9.000E+00
      25     1     1     2     0     0  6.748717994E+02 -7.336252167E+00  1.398163691E+03  1.557559782E+03  1.250000000E+02  0.00000E+00  9.000E+00
      21     1     1     2   511   501 -1.211056350E+01 -1.135823289E+02 -4.355753351E+02  4.503037682E+02  9.344061824E-06  0.00000E+00  9.000E+00
#rwgt            1           1   3.6713281884741364E-002           9      267337           0
</event>
<event>
      5   9999  3.19816E-02  1.14589E+02 -1.00000E+00  1.21225E-01
      21    -1     0     0   502   512  0.000000000E+00  0.000000000E+00  3.990369602E+02  3.990369602E+02  0.000000000E+00  0.00000E+00  9.000E+00
      21    -1     0     0   501   502  0.000000000E+00  0.000000000E+00 -1.831049018E+03  1.831049018E+03  0.000000000E+00  0.00000E+00  9.000E+00
      25     1     1     2     0     0  2.192974175E+02  5.734292544E+01  9.271419152E+01  2.749554323E+02  1.250000000E+02  0.00000E+00  9.000E+00
      25     1     1     2     0     0 -1.830209602E+02 -1.660386731E+02 -1.712721088E+03  1.734965140E+03  1.250000000E+02  0.00000E+00  9.000E+00
      21     1     1     2   501   512 -3.627645729E+01  1.086957476E+02  1.879948382E+02  2.201654062E+02  2.697398305E-06  0.00000E+00  9.000E+00
#rwgt            1           1   3.0057067099889999E-002           9      267426           0
</event>
<event>
      5   9999  3.19816E-02  5.93356E+01 -1.00000E+00  1.34962E-01
      21    -1     0     0   502   501  0.000000000E+00  0.000000000E+00  3.984654638E+03  3.984654638E+03  0.000000000E+00  0.00000E+00  9.000E+00
       2    -1     0     0   501     0  0.000000000E+00  0.000000000E+00 -2.153289133E+02  2.153289133E+02  0.000000000E+00  0.00000E+00  9.000E+00
      25     1     1     2     0     0 -2.914400018E+02  6.634391508E+02  2.745559023E+03  2.842324424E+03  1.250000000E+02  0.00000E+00  9.000E+00
      25     1     1     2     0     0  3.194054526E+02 -6.111070213E+02  1.072311718E+03  1.280995337E+03  1.250000000E+02  0.00000E+00  9.000E+00
       2     1     1     2   502     0 -2.796545084E+01 -5.233212947E+01 -4.854501566E+01  7.666379042E+01  3.438521648E-06  0.00000E+00  9.000E+00
#rwgt            1           1   1.6972090296372210E-002           9      267499           0
</event>
<event>
      5   9999  3.19816E-02  3.78053E+01 -1.00000E+00  1.46377E-01
      21    -1     0     0   511   501  0.000000000E+00  0.000000000E+00  9.466926945E+01  9.466926945E+01  0.000000000E+00  0.00000E+00  9.000E+00
      21    -1     0     0   501   502  0.000000000E+00  0.000000000E+00 -6.885594335E+02  6.885594335E+02  0.000000000E+00  0.00000E+00  9.000E+00
      25     1     1     2     0     0 -1.338033680E+02  6.746614217E+00 -5.189153088E+02  5.503153239E+02  1.250000000E+02  0.00000E+00  9.000E+00
      25     1     1     2     0     0  1.252791925E+02 -4.357834690E+01 -6.761485912E+01  1.943983476E+02  1.250000000E+02  0.00000E+00  9.000E+00
      21     1     1     2   511   502  8.524175502E+00  3.683173268E+01 -7.359996210E+00  3.851503141E+01  7.001960352E-07  0.00000E+00  9.000E+00
#rwgt            1           1   2.7436471356668195E-002           9      267590           0
</event>
<event>
      5   9999  3.19816E-02  5.32945E+01 -1.00000E+00  1.37513E-01
      21    -1     0     0   502   512  0.000000000E+00  0.000000000E+00  1.544981930E+02  1.544981930E+02  0.000000000E+00  0.00000E+00  9.000E+00
      21    -1     0     0   501   502  0.000000000E+00  0.000000000E+00 -9.055210571E+02  9.055210571E+02  0.000000000E+00  0.00000E+00  9.000E+00
      25     1     1     2     0     0 -2.326331752E+02 -2.176798740E+02 -5.272234029E+02  6.285636311E+02  1.250000000E+02  0.00000E+00  9.000E+00
      25     1     1     2     0     0  1.797679875E+02  2.244308337E+02 -1.743812684E+02  3.587750761E+02  1.250000000E+02  0.00000E+00  9.000E+00
      21     1     1     2   501   512  5.286518775E+01 -6.750959693E+00 -4.941819280E+01  7.268054287E+01  1.168007728E-06  0.00000E+00  9.000E+00
#rwgt            1           1   2.7777376508508599E-002           9      267673           0
</event>
<event>
      5   9999  3.19816E-02  7.35316E+01 -1.00000E+00  1.30147E-01
      21    -1     0     0   502   501  0.000000000E+00  0.000000000E+00  9.145494006E+02  9.145494006E+02  0.000000000E+00  0.00000E+00  9.000E+00
      21    -1     0     0   511   502  0.000000000E+00  0.000000000E+00 -1.815767749E+02  1.815767749E+02  0.000000000E+00  0.00000E+00  9.000E+00
      25     1     1     2     0     0 -1.025517856E+02  2.925720677E+02  1.300423486E+02  3.586799352E+02  1.250000000E+02  0.00000E+00  9.000E+00
      25     1     1     2     0     0  3.153689074E+01 -3.116450935E+02  5.557587890E+02  6.500846647E+02  1.250000000E+02  0.00000E+00  9.000E+00
      21     1     1     2   511   501  7.101489485E+01  1.907302580E+01  4.717148805E+01  8.736157558E+01  0.000000000E+00  0.00000E+00  9.000E+00
#rwgt            1           1   2.8113455644409032E-002           9      267760           0
</event>
<event>
      5   9999  3.19816E-02  1.66499E+01 -1.00000E+00  1.73218E-01
      21    -1     0     0   512   501  0.000000000E+00  0.000000000E+00  1.007679816E+03  1.007679816E+03  0.000000000E+00  0.00000E+00  9.000E+00
      21    -1     0     0   501   502  0.000000000E+00  0.000000000E+00 -9.406780094E+01  9.406780094E+01  0.000000000E+00  0.00000E+00  9.000E+00
      25     1     1     2     0     0 -9.973332387E+01  1.602765703E+01  1.221038300E+01  1.611760377E+02  1.250000000E+02  0.00000E+00  9.000E+00
      25     1     1     2     0     0  8.463415003E+01 -2.304436453E+01  2.798949270E+02  3.188418922E+02  1.250000000E+02  0.00000E+00  9.000E+00
      21     1     1     2   512   502  1.509917383E+01  7.016707494E+00  6.215067051E+02  6.217296870E+02  0.000000000E+00  0.00000E+00  9.000E+00
#rwgt            1           1   2.0803548967516565E-002           9      267864           0
</event>
<event>
      5   9999  3.19816E-02  2.06083E+01 -1.00000E+00  1.65303E-01
      21    -1     0     0   511   501  0.000000000E+00  0.000000000E+00  2.576784435E+02  2.576784435E+02  0.000000000E+00  0.00000E+00  9.000E+00
      21    -1     0     0   501   502  0.000000000E+00  0.000000000E+00 -3.109233747E+02  3.109233747E+02  0.000000000E+00  0.00000E+00  9.000E+00
      25     1     1     2     0     0 -1.421410939E+02  5.701774846E+01 -2.174210799E+02  2.938571765E+02  1.250000000E+02  0.00000E+00  9.000E+00
      25     1     1     2     0     0  1.385170381E+02 -3.673065333E+01  1.170196274E+02  2.232816695E+02  1.250000000E+02  0.00000E+00  9.000E+00
      21     1     1     2   511   502  3.624055855E+00 -2.028709513E+01  4.715652135E+01  5.146297228E+01  6.743495762E-07  0.00000E+00  9.000E+00
#rwgt            1           1   2.9182448647944718E-002           9      267992           0
</event>
<event>
      5   9999  3.19816E-02  3.19601E+01 -1.00000E+00  1.51155E-01
      21    -1     0     0   502   501  0.000000000E+00  0.000000000E+00  7.932359184E+02  7.932359184E+02  0.000000000E+00  0.00000E+00  9.000E+00
      21    -1     0     0   512   502  0.000000000E+00  0.000000000E+00 -8.897860024E+02  8.897860024E+02  0.000000000E+00  0.00000E+00  9.000E+00
      25     1     1     2     0     0  1.027114271E+02 -3.290907285E+01  5.242619005E+02  5.496436888E+02  1.250000000E+02  0.00000E+00  9.000E+00
      25     1     1     2     0     0 -1.344233293E+02  2.893363083E+01  2.222552977E+02  2.897053742E+02  1.250000000E+02  0.00000E+00  9.000E+00
      21     1     1     2   512   501  3.171190217E+01  3.975442017E+00 -8.430672821E+02  8.436728579E+02  0.000000000E+00  0.00000E+00  9.000E+00
#rwgt            1           1   2.2788575276181975E-002           9      268131           0
</event>
<event>
      5   9999  3.19816E-02  2.42003E+02 -1.00000E+00  1.08715E-01
       1    -1     0     0   502     0  0.000000000E+00  0.000000000E+00  5.881683418E+02  5.881683418E+02  0.000000000E+00  0.00000E+00  9.000E+00
      21    -1     0     0   501   502  0.000000000E+00  0.000000000E+00 -2.887764991E+02  2.887764991E+02  0.000000000E+00  0.00000E+00  9.000E+00
      25     1     1     2     0     0  3.350134474E+01  1.537832376E+02  6.534498521E+01  2.113447216E+02  1.250000000E+02  0.00000E+00  9.000E+00
      25     1     1     2     0     0  1.627126537E+02 -2.954364569E+02  5.347139754E+01  3.636513414E+02  1.250000000E+02  0.00000E+00  9.000E+00
       1     1     1     2   501     0 -1.962139984E+02  1.416532193E+02  1.805754599E+02  3.019487778E+02  3.303624740E-06  0.00000E+00  9.000E+00
#rwgt            2          17   2.2060810492910242E-004           9      268299           0
</event>
<event>
      5   9999  3.19816E-02  5.10913E+01 -1.00000E+00  1.38543E-01
      21    -1     0     0   511   501  0.000000000E+00  0.000000000E+00  2.663330977E+02  2.663330977E+02  0.000000000E+00  0.00000E+00  9.000E+00
      21    -1     0     0   501   502  0.000000000E+00  0.000000000E+00 -6.233980003E+02  6.233980003E+02  0.000000000E+00  0.00000E+00  9.000E+00
      25     1     1     2     0     0  3.399762105E+02 -2.230773259E+01 -1.733738665E+02  4.022001445E+02  1.250000000E+02  0.00000E+00  9.000E+00
      25     1     1     2     0     0 -3.690364376E+02 -1.971401849E+01 -1.935401695E+02  4.354989461E+02  1.250000000E+02  0.00000E+00  9.000E+00
      21     1     1     2   511   502  2.906022707E+01  4.202175108E+01  9.849133433E+00  5.203200736E+01  3.576278687E-07  0.00000E+00  9.000E+00
#rwgt            1           1   2.7251985689979233E-002           9      268318           0
</event>
<event>
      5   9999  3.19816E-02  1.44816E+02 -1.00000E+00  1.17002E-01
      21    -1     0     0   502   501  0.000000000E+00  0.000000000E+00  8.991931342E+02  8.991931342E+02  0.000000000E+00  0.00000E+00  9.000E+00
      21    -1     0     0   512   502  0.000000000E+00  0.000000000E+00 -8.991218524E+02  8.991218524E+02  0.000000000E+00  0.00000E+00  9.000E+00
      25     1     1     2     0     0 -1.793992472E+02  6.824769217E+01 -7.974421343E+02  8.296871669E+02  1.250000000E+02  0.00000E+00  9.000E+00
      25     1     1     2     0     0  7.266141707E+01  2.962344874E+01  8.099422954E+02  8.232792674E+02  1.250000000E+02  0.00000E+00  9.000E+00
      21     1     1     2   512   501  1.067378301E+02 -9.787114091E+01 -1.242887927E+01  1.453485522E+02  1.440411326E-06  0.00000E+00  9.000E+00
#rwgt            1           1   2.7471498237465555E-002           9      268433           0
</event>
<event>
      5   9999  3.19816E-02  1.42596E+01 -1.00000E+00  1.79480E-01
      21    -1     0     0   502   501  0.000000000E+00  0.000000000E+00  7.431137167E+02  7.431137167E+02  0.000000000E+00  0.00000E+00  9.000E+00
      21    -1     0     0   511   502  0.000000000E+00  0.000000000E+00 -2.113086744E+02  2.113086744E+02  0.000000000E+00  0.00000E+00  9.000E+00
      25     1     1     2     0     0 -3.403984098E+02 -9.296621622E+01  3.801385591E+02  5.335204953E+02  1.250000000E+02  0.00000E+00  9.000E+00
      25     1     1     2     0     0  3.383829314E+02  7.884978075E+01  1.620688074E+02  4.032512796E+02  1.250000000E+02  0.00000E+00  9.000E+00
      21     1     1     2   511   501  2.015478434E+00  1.411643547E+01 -1.040232415E+01  1.765061618E+01  3.371747881E-07  0.00000E+00  9.000E+00
#rwgt            1           1   2.8505161379993663E-002           9      268532           0
</event>
<event>
      5   9999  3.19816E-02  5.33819E+01 -1.00000E+00  1.37473E-01
      21    -1     0     0   502   501  0.000000000E+00  0.000000000E+00  5.033408156E+02  5.033408156E+02  0.000000000E+00  0.00000E+00  9.000E+00
       2    -1     0     0   501     0  0.000000000E+00  0.000000000E+00 -8.953004712E+02  8.953004712E+02  0.000000000E+00  0.00000E+00  9.000E+00
      25     1     1     2     0     0  1.848825907E+02 -5.541741588E+02 -1.564477258E+02  6.175689933E+02  1.250000000E+02  0.00000E+00  9.000E+00
      25     1     1     2     0     0 -1.477164203E+02  5.924925768E+02 -9.465344191E+01  6.304378387E+02  1.250000000E+02  0.00000E+00  9.000E+00
       2     1     1     2   502     0 -3.716617038E+01 -3.831841800E+01 -1.408584878E+02  1.506344548E+02  1.907348633E-06  0.00000E+00  9.000E+00
#rwgt            1           1   3.3150576111666143E-002           9      268787           0
</event>
<event>
      5   9999  3.19816E-02  7.88294E+01 -1.00000E+00  1.28660E-01
      21    -1     0     0   502   501  0.000000000E+00  0.000000000E+00  8.945936014E+02  8.945936014E+02  0.000000000E+00  0.00000E+00  9.000E+00
      21    -1     0     0   501   511  0.000000000E+00  0.000000000E+00 -6.709713090E+02  6.709713090E+02  0.000000000E+00  0.00000E+00  9.000E+00
      25     1     1     2     0     0  2.432460504E+01 -9.500502236E+01  8.478276036E+02  8.625858137E+02  1.250000000E+02  0.00000E+00  9.000E+00
      25     1     1     2     0     0 -4.582458026E+01  1.708458416E+02 -5.628496794E+02  6.030861923E+02  1.250000000E+02  0.00000E+00  9.000E+00
      21     1     1     2   502   511  2.149997522E+01 -7.584081926E+01 -6.135563173E+01  9.989290438E+01  1.348699152E-06  0.00000E+00  9.000E+00
#rwgt            1           1   2.8092602388711703E-002           9      268957           0
</event>
<event>
      5   9999  3.19816E-02  2.18925E+01 -1.00000E+00  1.63193E-01
       1    -1     0     0   502     0  0.000000000E+00  0.000000000E+00  1.867937440E+02  1.867937440E+02  0.000000000E+00  0.00000E+00  9.000E+00
      21    -1     0     0   501   502  0.000000000E+00  0.000000000E+00 -9.089937982E+02  9.089937982E+02  0.000000000E+00  0.00000E+00  9.000E+00
      25     1     1     2     0     0 -1.719866539E+02  1.325614912E+02  1.496100409E+01  2.509995811E+02  1.250000000E+02  0.00000E+00  9.000E+00
      25     1     1     2     0     0  1.934376358E+02 -1.369358497E+02 -7.643074356E+02  8.099138239E+02  1.250000000E+02  0.00000E+00  9.000E+00
       1     1     1     2   501     0 -2.145098188E+01  4.374358473E+00  2.714637738E+01  3.487413713E+01  1.011524364E-06  0.00000E+00  9.000E+00
#rwgt            1           1   2.0415403909026714E-002           9      269075           0
</event>
<event>
      5   9999  3.19816E-02  2.41461E+02 -1.00000E+00  1.08748E-01
      21    -1     0     0   502   501  0.000000000E+00  0.000000000E+00  1.814446927E+02  1.814446927E+02  0.000000000E+00  0.00000E+00  9.000E+00
       2    -1     0     0   501     0  0.000000000E+00  0.000000000E+00 -1.158841305E+03  1.158841305E+03  0.000000000E+00  0.00000E+00  9.000E+00
      25     1     1     2     0     0 -3.036294001E+02 -7.445273885E+01 -2.116168602E+02  3.976691067E+02  1.250000000E+02  0.00000E+00  9.000E+00
      25     1     1     2     0     0  7.068451453E+01  1.088954482E+01 -4.632703619E+00  1.440879756E+02  1.250000000E+02  0.00000E+00  9.000E+00
       2     1     1     2   502     0  2.329448856E+02  6.356319403E+01 -7.611470488E+02  7.985289157E+02  1.525878906E-05  0.00000E+00  9.000E+00
#rwgt            1           1   2.9346201062951886E-002           9      269278           0
</event>
<event>
      5   9999  3.19816E-02  4.16743E+01 -1.00000E+00  1.43744E-01
      21    -1     0     0   502   511  0.000000000E+00  0.000000000E+00  6.903995748E+02  6.903995748E+02  0.000000000E+00  0.00000E+00  9.000E+00
      21    -1     0     0   501   502  0.000000000E+00  0.000000000E+00 -2.579996703E+02  2.579996703E+02  0.000000000E+00  0.00000E+00  9.000E+00
      25     1     1     2     0     0 -1.643495471E+02 -1.497689184E+02 -7.436025948E+01  2.656989852E+02  1.250000000E+02  0.00000E+00  9.000E+00
      25     1     1     2     0     0  1.889983961E+02  1.161656549E+02  9.961566230E+01  2.734284793E+02  1.250000000E+02  0.00000E+00  9.000E+00
      21     1     1     2   501   511 -2.464884907E+01  3.360326355E+01  4.071445017E+02  4.092717806E+02  5.394796609E-06  0.00000E+00  9.000E+00
#rwgt            1           1   2.9924662159717744E-002           9      269339           0
</event>
<event>
      5   9999  3.19816E-02  1.17837E+02 -1.00000E+00  1.20705E-01
       1    -1     0     0   502     0  0.000000000E+00  0.000000000E+00  1.038743111E+03  1.038743111E+03  0.000000000E+00  0.00000E+00  9.000E+00
      21    -1     0     0   501   502  0.000000000E+00  0.000000000E+00 -1.275391555E+03  1.275391555E+03  0.000000000E+00  0.00000E+00  9.000E+00
      25     1     1     2     0     0 -5.866415162E+01  7.782451293E+01 -7.206336808E+01  1.741156699E+02  1.250000000E+02  0.00000E+00  9.000E+00
      25     1     1     2     0     0 -2.048135760E+01 -1.651257121E+02 -1.139327980E+03  1.158179275E+03  1.250000000E+02  0.00000E+00  9.000E+00
       1     1     1     2   501     0  7.914550923E+01  8.730119916E+01  9.747429033E+02  9.818397214E+02  1.525878906E-05  0.00000E+00  9.000E+00
#rwgt            1           1   2.8749494659855854E-002           9      269428           0
</event>
<event>
      5   9999  3.19816E-02  5.76638E+01 -1.00000E+00  1.35632E-01
      21    -1     0     0   502   511  0.000000000E+00  0.000000000E+00  7.383297459E+02  7.383297459E+02  0.000000000E+00  0.00000E+00  9.000E+00
      21    -1     0     0   501   502  0.000000000E+00  0.000000000E+00 -9.366612587E+02  9.366612587E+02  0.000000000E+00  0.00000E+00  9.000E+00
      25     1     1     2     0     0 -2.144160885E+02  5.401721379E+02 -6.063890563E+02  8.491718820E+02  1.250000000E+02  0.00000E+00  9.000E+00
      25     1     1     2     0     0  1.977653895E+02 -5.953796478E+02  3.071912304E+02  7.096333746E+02  1.250000000E+02  0.00000E+00  9.000E+00
      21     1     1     2   501   511  1.665069902E+01  5.520750984E+01  1.008663131E+02  1.161857480E+02  1.348699152E-06  0.00000E+00  9.000E+00
#rwgt            1           1   2.6790493823323432E-002           9      269487           0
</event>
<event>
      5   9999  3.19816E-02  1.00716E+02 -1.00000E+00  1.23689E-01
      21    -1     0     0   502   501  0.000000000E+00  0.000000000E+00  1.586133890E+02  1.586133890E+02  0.000000000E+00  0.00000E+00  9.000E+00
      21    -1     0     0   501   512  0.000000000E+00  0.000000000E+00 -5.104030972E+02  5.104030972E+02  0.000000000E+00  0.00000E+00  9.000E+00
      25     1     1     2     0     0  4.837233534E+01  8.374515536E+01 -2.226232465E+02  2.730187608E+02  1.250000000E+02  0.00000E+00  9.000E+00
      25     1     1     2     0     0 -1.103688362E+02 -4.371186308E+00  6.358648102E+01  1.785178642E+02  1.250000000E+02  0.00000E+00  9.000E+00
      21     1     1     2   502   512  6.199650082E+01 -7.937396905E+01 -1.927529427E+02  2.174798612E+02  0.000000000E+00  0.00000E+00  9.000E+00
#rwgt            1           1   2.5798325149318738E-002           9      269665           0
</event>
<event>
      5   9999  3.19816E-02  7.33860E+01 -1.00000E+00  1.30190E-01
      21    -1     0     0   502   501  0.000000000E+00  0.000000000E+00  2.228210495E+02  2.228210495E+02  0.000000000E+00  0.00000E+00  9.000E+00
      21    -1     0     0   501   511  0.000000000E+00  0.000000000E+00 -4.656821105E+02  4.656821105E+02  0.000000000E+00  0.00000E+00  9.000E+00
      25     1     1     2     0     0  8.309690799E+01 -1.506815428E+02  5.346333938E+01  2.193019656E+02  1.250000000E+02  0.00000E+00  9.000E+00
      25     1     1     2     0     0 -1.365720024E+02  2.009400826E+02 -1.661916620E+02  3.198022783E+02  1.250000000E+02  0.00000E+00  9.000E+00
      21     1     1     2   502   511  5.347509446E+01 -5.025853985E+01 -1.301327384E+02  1.493989162E+02  2.697398305E-06  0.00000E+00  9.000E+00
#rwgt            1           1   2.6448212214206356E-002           9      269718           0
</event>
<event>
      5   9999  3.19816E-02  4.42004E+01 -1.00000E+00  1.42201E-01
      21    -1     0     0   502   501  0.000000000E+00  0.000000000E+00  4.779212412E+02  4.779212412E+02  0.000000000E+00  0.00000E+00  9.000E+00
      21    -1     0     0   512   502  0.000000000E+00  0.000000000E+00 -4.679236176E+02  4.679236176E+02  0.000000000E+00  0.00000E+00  9.000E+00
      25     1     1     2     0     0  2.410039502E+02 -2.443334538E+02  2.881513652E+02  4.652289221E+02  1.250000000E+02  0.00000E+00  9.000E+00
      25     1     1     2     0     0 -1.968086104E+02  2.436636015E+02 -2.035677251E+02  3.939167406E+02  1.250000000E+02  0.00000E+00  9.000E+00
      21     1     1     2   512   501 -4.419533985E+01  6.698522604E-01 -7.458601647E+01  8.669919619E+01  9.536743164E-07  0.00000E+00  9.000E+00
#rwgt            1           1   2.4022748880825569E-002           9      269790           0
</event>
<event>
      5   9999  3.19816E-02  5.18947E+01 -1.00000E+00  1.38160E-01
      21    -1     0     0   502   501  0.000000000E+00  0.000000000E+00  7.058040348E+02  7.058040348E+02  0.000000000E+00  0.00000E+00  9.000E+00
      21    -1     0     0   501   511  0.000000000E+00  0.000000000E+00 -3.599577895E+02  3.599577895E+02  0.000000000E+00  0.00000E+00  9.000E+00
      25     1     1     2     0     0  1.287826375E+02 -4.357868549E+00 -8.464286165E+01  1.984776379E+02  1.250000000E+02  0.00000E+00  9.000E+00
      25     1     1     2     0     0 -1.105344094E+02 -4.422258215E+01  6.340934465E+02  6.571704431E+02  1.250000000E+02  0.00000E+00  9.000E+00
      21     1     1     2   502   511 -1.824822811E+01  4.858045070E+01 -2.036043395E+02  2.101137432E+02  2.697398305E-06  0.00000E+00  9.000E+00
#rwgt            1           1   2.9285926830815226E-002           9      269898           0
</event>
<event>
      5   9999  3.19816E-02  1.06109E+02 -1.00000E+00  1.22681E-01
      21    -1     0     0   502   512  0.000000000E+00  0.000000000E+00  1.364084712E+03  1.364084712E+03  0.000000000E+00  0.00000E+00  9.000E+00
      21    -1     0     0   501   502  0.000000000E+00  0.000000000E+00 -4.309030711E+02  4.309030711E+02  0.000000000E+00  0.00000E+00  9.000E+00
      25     1     1     2     0     0  4.487571054E+02  3.562332039E+02  3.883216528E+01  5.877227001E+02  1.250000000E+02  0.00000E+00  9.000E+00
      25     1     1     2     0     0 -5.532607189E+02 -3.746192008E+02  6.484160637E+02  9.394175644E+02  1.250000000E+02  0.00000E+00  9.000E+00
      21     1     1     2   501   512  1.045036135E+02  1.838599691E+01  2.459334122E+02  2.678475189E+02  2.697398305E-06  0.00000E+00  9.000E+00
#rwgt            1           1   3.1007089957197212E-002           9      269982           0
</event>
<event>
      5   9999  3.19816E-02  3.52357E+01 -1.00000E+00  1.48341E-01
      21    -1     0     0   502   501  0.000000000E+00  0.000000000E+00  3.195023882E+02  3.195023882E+02  0.000000000E+00  0.00000E+00  9.000E+00
      21    -1     0     0   511   502  0.000000000E+00  0.000000000E+00 -8.197848996E+02  8.197848996E+02  0.000000000E+00  0.00000E+00  9.000E+00
      25     1     1     2     0     0 -3.584134378E+02 -2.816765967E+02 -1.223234416E+02  4.882519041E+02  1.250000000E+02  0.00000E+00  9.000E+00
      25     1     1     2     0     0  3.926326532E+02  2.732740829E+02 -3.460853509E+02  6.035223234E+02  1.250000000E+02  0.00000E+00  9.000E+00
      21     1     1     2   511   501 -3.421921546E+01  8.402513773E+00 -3.187371890E+01  4.751306031E+01  6.743495762E-07  0.00000E+00  9.000E+00
#rwgt            1           1   2.6928301656770535E-002           9      270056           0
</event>
<event>
      5   9999  3.19816E-02  1.62425E+02 -1.00000E+00  1.15040E-01
      21    -1     0     0   502   501  0.000000000E+00  0.000000000E+00  2.840746566E+02  2.840746566E+02  0.000000000E+00  0.00000E+00  9.000E+00
       2    -1     0     0   501     0  0.000000000E+00  0.000000000E+00 -4.522725767E+02  4.522725767E+02  0.000000000E+00  0.00000E+00  9.000E+00
      25     1     1     2     0     0  1.762396288E+02  8.397572242E+01  7.098322385E+01  2.424375111E+02  1.250000000E+02  0.00000E+00  9.000E+00
      25     1     1     2     0     0 -1.069982077E+02  6.295099166E+01  3.079216691E+01  1.788423925E+02  1.250000000E+02  0.00000E+00  9.000E+00
       2     1     1     2   502     0 -6.924142111E+01 -1.469267141E+02 -2.699733109E+02  3.150673298E+02  5.394796609E-06  0.00000E+00  9.000E+00
#rwgt            1           1   3.2820665485702796E-002           9      270202           0
</event>
<event>
      5   9999  3.19816E-02  1.31183E+01 -1.00000E+00  1.83049E-01
      21    -1     0     0   511   501  0.000000000E+00  0.000000000E+00  3.013590967E+02  3.013590967E+02  0.000000000E+00  0.00000E+00  9.000E+00
      21    -1     0     0   501   502  0.000000000E+00  0.000000000E+00 -2.588347443E+02  2.588347443E+02  0.000000000E+00  0.00000E+00  9.000E+00
      25     1     1     2     0     0  3.423189207E+01  1.285765369E+02  2.116653496E+02  2.795191737E+02  1.250000000E+02  0.00000E+00  9.000E+00
      25     1     1     2     0     0 -3.350545503E+01 -1.416747014E+02 -1.804132775E+02  2.633786005E+02  1.250000000E+02  0.00000E+00  9.000E+00
      21     1     1     2   511   502 -7.264370355E-01  1.309816447E+01  1.127228021E+01  1.729606673E+01  2.064765462E-07  0.00000E+00  9.000E+00
#rwgt            1           1   2.7717656842496330E-002           9      270229           0
</event>
<event>
      5   9999  3.19816E-02  1.78589E+02 -1.00000E+00  1.13468E-01
       2    -1     0     0   502     0  0.000000000E+00  0.000000000E+00  3.321739226E+02  3.321739226E+02  0.000000000E+00  0.00000E+00  9.000E+00
      21    -1     0     0   501   502  0.000000000E+00  0.000000000E+00 -3.579492767E+02  3.579492767E+02  0.000000000E+00  0.00000E+00  9.000E+00
      25     1     1     2     0     0  1.023040085E+02 -6.878656209E+01 -1.952824031E+02  2.625983973E+02  1.250000000E+02  0.00000E+00  9.000E+00
      25     1     1     2     0     0 -7.509248501E+01 -1.077172159E+02  1.705886731E+02  2.489324714E+02  1.250000000E+02  0.00000E+00  9.000E+00
       2     1     1     2   501     0 -2.721152353E+01  1.765037780E+02 -1.081624161E+00  1.785923307E+02  1.356087541E-06  0.00000E+00  9.000E+00
#rwgt            1           1   2.6117180558152295E-002           9      270459           0
</event>
<event>
      5   9999  3.19816E-02  1.53504E+02 -1.00000E+00  1.15998E-01
      21    -1     0     0   502   501  0.000000000E+00  0.000000000E+00  2.653284976E+02  2.653284976E+02  0.000000000E+00  0.00000E+00  9.000E+00
       2    -1     0     0   501     0  0.000000000E+00  0.000000000E+00 -7.219605094E+02  7.219605094E+02  0.000000000E+00  0.00000E+00  9.000E+00
      25     1     1     2     0     0 -2.077922537E+02  1.672934421E+02  4.202291868E+01  2.975830005E+02  1.250000000E+02  0.00000E+00  9.000E+00
      25     1     1     2     0     0  2.187578824E+02 -1.418175263E+01 -1.166400037E+02  2.780036397E+02  1.250000000E+02  0.00000E+00  9.000E+00
       2     1     1     2   502     0 -1.096562869E+01 -1.531116895E+02 -3.820149268E+02  4.117023668E+02  0.000000000E+00  0.00000E+00  9.000E+00
#rwgt            1           1   2.8983067387177850E-002           9      270534           0
</event>
<event>
      5   9999  3.19816E-02  1.56920E+02 -1.00000E+00  1.15623E-01
      21    -1     0     0   502   501  0.000000000E+00  0.000000000E+00  6.640241998E+02  6.640241998E+02  0.000000000E+00  0.00000E+00  9.000E+00
      21    -1     0     0   501   511  0.000000000E+00  0.000000000E+00 -2.011458935E+02  2.011458935E+02  0.000000000E+00  0.00000E+00  9.000E+00
      25     1     1     2     0     0  1.424313821E+02  2.995060392E+01  1.585928901E+02  2.489185451E+02  1.250000000E+02  0.00000E+00  9.000E+00
      25     1     1     2     0     0 -2.404097254E+02 -1.525236935E+02  3.342265846E+02  4.565005181E+02  1.250000000E+02  0.00000E+00  9.000E+00
      21     1     1     2   502   511  9.797834326E+01  1.225730896E+02 -2.994116847E+01  1.597510301E+02  5.840038640E-07  0.00000E+00  9.000E+00
#rwgt            1           1   2.7952764807263355E-002           9      270583           0
</event>
<event>
      5   9999  3.19816E-02  4.93341E+01 -1.00000E+00  1.39409E-01
      21    -1     0     0   502   501  0.000000000E+00  0.000000000E+00  7.878206511E+02  7.878206511E+02  0.000000000E+00  0.00000E+00  9.000E+00
      21    -1     0     0   501   512  0.000000000E+00  0.000000000E+00 -3.109065816E+02  3.109065816E+02  0.000000000E+00  0.00000E+00  9.000E+00
      25     1     1     2     0     0  1.281211603E+02 -3.826058455E+02  3.555092748E+02  5.520997276E+02  1.250000000E+02  0.00000E+00  9.000E+00
      25     1     1     2     0     0 -8.491302236E+01  3.587959223E+02  2.121267061E+02  4.433593065E+02  1.250000000E+02  0.00000E+00  9.000E+00
      21     1     1     2   502   512 -4.320813796E+01  2.380992322E+01 -9.072191147E+01  1.032681986E+02  0.000000000E+00  0.00000E+00  9.000E+00
#rwgt            1           1   2.7527504860025257E-002           9      270619           0
</event>
<event>
      5   9999  3.19816E-02  3.30730E+02 -1.00000E+00  1.04234E-01
       2    -1     0     0   502     0  0.000000000E+00  0.000000000E+00  2.184813951E+03  2.184813951E+03  0.000000000E+00  0.00000E+00  9.000E+00
      21    -1     0     0   501   502  0.000000000E+00  0.000000000E+00 -3.573699434E+02  3.573699434E+02  0.000000000E+00  0.00000E+00  9.000E+00
      25     1     1     2     0     0  2.619753260E+01 -2.131341026E+02 -2.633835893E+02  3.620889000E+02  1.250000000E+02  0.00000E+00  9.000E+00
      25     1     1     2     0     0  2.354283749E+02  1.081278467E+01  6.672337229E+02  7.185883919E+02  1.250000000E+02  0.00000E+00  9.000E+00
       2     1     1     2   501     0 -2.616259075E+02  2.023213180E+02  1.423593874E+03  1.461506603E+03  0.000000000E+00  0.00000E+00  9.000E+00
#rwgt            1           1   2.9104957155042750E-002           9      270748           0
</event>
<event>
      5   9999  3.19816E-02  5.63769E+01 -1.00000E+00  1.36165E-01
      21    -1     0     0   511   501  0.000000000E+00  0.000000000E+00  2.976416599E+03  2.976416599E+03  0.000000000E+00  0.00000E+00  9.000E+00
      21    -1     0     0   501   502  0.000000000E+00  0.000000000E+00 -3.417003691E+02  3.417003691E+02  0.000000000E+00  0.00000E+00  9.000E+00
      25     1     1     2     0     0  8.602890351E+02 -3.555404340E+02  9.361940133E+02  1.326118567E+03  1.250000000E+02  0.00000E+00  9.000E+00
      25     1     1     2     0     0 -9.140204875E+02  3.384732675E+02  1.578192439E+03  1.859116451E+03  1.250000000E+02  0.00000E+00  9.000E+00
      21     1     1     2   511   502  5.373145237E+01  1.706716644E+01  1.203297775E+02  1.328819495E+02  3.015782986E-06  0.00000E+00  9.000E+00
#rwgt            1           1   4.4647632407191128E-002           9      270795           0
</event>
<event>
      5   9999  3.19816E-02  6.69605E+01 -1.00000E+00  1.32205E-01
      21    -1     0     0   502   501  0.000000000E+00  0.000000000E+00  8.556687471E+02  8.556687471E+02  0.000000000E+00  0.00000E+00  9.000E+00
      21    -1     0     0   512   502  0.000000000E+00  0.000000000E+00 -1.386184359E+02  1.386184359E+02  0.000000000E+00  0.00000E+00  9.000E+00
      25     1     1     2     0     0  1.864894436E+01  2.448925853E+02  4.047812223E+02  4.896866339E+02  1.250000000E+02  0.00000E+00  9.000E+00
      25     1     1     2     0     0 -5.861475676E+01 -2.986181623E+02  2.679697842E+02  4.243127406E+02  1.250000000E+02  0.00000E+00  9.000E+00
      21     1     1     2   512   501  3.996581240E+01  5.372557706E+01  4.429930466E+01  8.028780844E+01  0.000000000E+00  0.00000E+00  9.000E+00
#rwgt            1           1   2.8885428754507714E-002           9      270941           0
</event>
<event>
      5   9999  3.19816E-02  4.76133E+01 -1.00000E+00  1.40298E-01
      -4    -1     0     0     0   501  0.000000000E+00  0.000000000E+00  6.775921541E+02  6.775921541E+02  0.000000000E+00  0.00000E+00  9.000E+00
      21    -1     0     0   501   502  0.000000000E+00  0.000000000E+00 -4.929249769E+02  4.929249769E+02  0.000000000E+00  0.00000E+00  9.000E+00
      25     1     1     2     0     0 -3.697369497E+01  3.119383581E+02 -1.023440387E+02  3.532306550E+02  1.250000000E+02  0.00000E+00  9.000E+00
      25     1     1     2     0     0 -8.572613721E+00 -2.980617995E+02 -1.648487852E+02  3.629248517E+02  1.250000000E+02  0.00000E+00  9.000E+00
      -4     1     1     2     0   502  4.554630870E+01 -1.387655865E+01  4.518600011E+02  4.543616244E+02  0.000000000E+00  0.00000E+00  9.000E+00
#rwgt            1           1   2.8847276409932746E-002           9      271033           0
</event>
<event>
      5   9999  3.19816E-02  2.79935E+02 -1.00000E+00  1.06578E-01
      21    -1     0     0   502   501  0.000000000E+00  0.000000000E+00  8.761947696E+02  8.761947696E+02  0.000000000E+00  0.00000E+00  9.000E+00
      21    -1     0     0   501   511  0.000000000E+00  0.000000000E+00 -2.681793573E+02  2.681793573E+02  0.000000000E+00  0.00000E+00  9.000E+00
      25     1     1     2     0     0  1.048336617E+02  1.292074138E+02  5.107337477E+02  5.515057692E+02  1.250000000E+02  0.00000E+00  9.000E+00
      25     1     1     2     0     0  1.639035833E+02 -2.075919929E+02 -1.091607457E+01  2.927507144E+02  1.250000000E+02  0.00000E+00  9.000E+00
      21     1     1     2   502   511 -2.687372450E+02  7.838457910E+01  1.081977391E+02  3.001176433E+02  2.336015456E-06  0.00000E+00  9.000E+00
#rwgt            1           1   2.8581586483515997E-002           9      271141           0
</event>
<event>
      5   9999  3.19816E-02  6.02400E+01 -1.00000E+00  1.34611E-01
      21    -1     0     0   512   501  0.000000000E+00  0.000000000E+00  1.937714558E+02  1.937714558E+02  0.000000000E+00  0.00000E+00  9.000E+00
      21    -1     0     0   501   502  0.000000000E+00  0.000000000E+00 -7.172374984E+02  7.172374984E+02  0.000000000E+00  0.00000E+00  9.000E+00
      25     1     1     2     0     0  1.523417565E+01  3.385690565E+02 -2.494030699E+02  4.389623872E+02  1.250000000E+02  0.00000E+00  9.000E+00
      25     1     1     2     0     0 -5.498662829E+01 -2.933075892E+02 -2.400543695E+02  4.028696706E+02  1.250000000E+02  0.00000E+00  9.000E+00
      21     1     1     2   512   502  3.975245264E+01 -4.526146730E+01 -3.400860313E+01  6.917689643E+01  1.651812370E-06  0.00000E+00  9.000E+00
#rwgt            1           1   2.8512563271493117E-002           9      271171           0
</event>
<event>
      5   9999  3.19816E-02  1.54666E+02 -1.00000E+00  1.15869E-01
      -3    -1     0     0     0   501  0.000000000E+00  0.000000000E+00  1.459367844E+03  1.459367844E+03  0.000000000E+00  0.00000E+00  9.000E+00
      21    -1     0     0   501   502  0.000000000E+00  0.000000000E+00 -1.471682795E+03  1.471682795E+03  0.000000000E+00  0.00000E+00  9.000E+00
      25     1     1     2     0     0 -1.076244910E+02  1.690938968E+02  9.634745262E+02  9.920100501E+02  1.250000000E+02  0.00000E+00  9.000E+00
      25     1     1     2     0     0  2.648902731E+01 -3.007701153E+02 -1.426020383E+03  1.462984437E+03  1.250000000E+02  0.00000E+00  9.000E+00
      -3     1     1     2     0   502  8.113546365E+01  1.316762185E+02  4.502309065E+02  4.760561513E+02  0.000000000E+00  0.00000E+00  9.000E+00
#rwgt            1           1   6.4612792608839606E-002           9      271231           0
</event>
<event>
      5   9999  3.19816E-02  1.44014E+01 -1.00000E+00  1.79066E-01
      21    -1     0     0   502   501  0.000000000E+00  0.000000000E+00  3.778533189E+02  3.778533189E+02  0.000000000E+00  0.00000E+00  9.000E+00
      21    -1     0     0   501   511  0.000000000E+00  0.000000000E+00 -1.839575068E+02  1.839575068E+02  0.000000000E+00  0.00000E+00  9.000E+00
      25     1     1     2     0     0  1.417928494E+02  1.630848465E+02  3.347179676E+01  2.518873567E+02  1.250000000E+02  0.00000E+00  9.000E+00
      25     1     1     2     0     0 -1.398622499E+02 -1.488134060E+02  1.690798748E+02  2.931209355E+02  1.250000000E+02  0.00000E+00  9.000E+00
      21     1     1     2   502   511 -1.930599485E+00 -1.427144053E+01 -8.655859422E+00  1.680253349E+01  2.064765462E-07  0.00000E+00  9.000E+00
#rwgt            1           1   2.9681058539350554E-002           9      271278           0
</event>
<event>
      5   9999  3.19816E-02  8.20083E+01 -1.00000E+00  1.27830E-01
      21    -1     0     0   502   501  0.000000000E+00  0.000000000E+00  8.026243199E+02  8.026243199E+02  0.000000000E+00  0.00000E+00  9.000E+00
      21    -1     0     0   512   502  0.000000000E+00  0.000000000E+00 -6.363142114E+02  6.363142114E+02  0.000000000E+00  0.00000E+00  9.000E+00
      25     1     1     2     0     0 -5.427800383E+02 -2.302194447E+01 -2.006055248E+02  5.924590758E+02  1.250000000E+02  0.00000E+00  9.000E+00
      25     1     1     2     0     0  6.182497703E+02  5.511050405E+01  4.095279148E+02  7.540610447E+02  1.250000000E+02  0.00000E+00  9.000E+00
      21     1     1     2   512   501 -7.546973199E+01 -3.208855958E+01 -4.261228151E+01  9.241841071E+01  1.430511475E-06  0.00000E+00  9.000E+00
#rwgt            1           1   2.6163273959182710E-002           9      271428           0
</event>
<event>
      5   9999  3.19816E-02  3.95881E+01 -1.00000E+00  1.45119E-01
       1    -1     0     0   502     0  0.000000000E+00  0.000000000E+00  3.937263191E+02  3.937263191E+02  0.000000000E+00  0.00000E+00  9.000E+00
      21    -1     0     0   501   502  0.000000000E+00  0.000000000E+00 -2.033189959E+02  2.033189959E+02  0.000000000E+00  0.00000E+00  9.000E+00
      25     1     1     2     0     0 -1.477393471E+02 -6.436363148E+01 -7.016170654E+01  2.156785961E+02  1.250000000E+02  0.00000E+00  9.000E+00
      25     1     1     2     0     0  1.751089704E+02  9.296650774E+01  1.955264753E+02  3.052237304E+02  1.250000000E+02  0.00000E+00  9.000E+00
       1     1     1     2   501     0 -2.736962325E+01 -2.860287627E+01  6.504255442E+01  7.614298847E+01  9.536743164E-07  0.00000E+00  9.000E+00
#rwgt            1           1   2.7130951287954345E-002           9      271597           0
</event>
<event>
      5   9999  3.19816E-02  1.31216E+02 -1.00000E+00  1.18744E-01
      21    -1     0     0   502   501  0.000000000E+00  0.000000000E+00  1.663725660E+03  1.663725660E+03  0.000000000E+00  0.00000E+00  9.000E+00
      21    -1     0     0   511   502  0.000000000E+00  0.000000000E+00 -1.381798561E+02  1.381798561E+02  0.000000000E+00  0.00000E+00  9.000E+00
      25     1     1     2     0     0 -1.490347444E+02  2.677583159E+02  2.654341335E+02  4.242477460E+02  1.250000000E+02  0.00000E+00  9.000E+00
      25     1     1     2     0     0  2.801955971E+02 -2.639560335E+02  1.090708793E+03  1.163380003E+03  1.250000000E+02  0.00000E+00  9.000E+00
      21     1     1     2   511   501 -1.311608526E+02 -3.802282354E+00  1.694028773E+02  2.142777670E+02  0.000000000E+00  0.00000E+00  9.000E+00
#rwgt            1           1   2.9583553133417869E-002           9      271693           0
</event>
<event>
      5   9999  3.19816E-02  3.25075E+01 -1.00000E+00  1.50657E-01
      21    -1     0     0   512   501  0.000000000E+00  0.000000000E+00  6.086748094E+02  6.086748094E+02  0.000000000E+00  0.00000E+00  9.000E+00
      21    -1     0     0   501   502  0.000000000E+00  0.000000000E+00 -1.280603421E+03  1.280603421E+03  0.000000000E+00  0.00000E+00  9.000E+00
      25     1     1     2     0     0  7.257422742E+00 -5.732502139E+01 -2.935710603E+01  1.408036503E+02  1.250000000E+02  0.00000E+00  9.000E+00
      25     1     1     2     0     0 -3.085352270E+01  7.968483520E+01 -1.190244893E+03  1.199837288E+03  1.250000000E+02  0.00000E+00  9.000E+00
      21     1     1     2   512   502  2.359609996E+01 -2.235981382E+01  5.476733882E+02  5.486372912E+02  0.000000000E+00  0.00000E+00  9.000E+00
#rwgt            2          11   9.4487290063553688E-003           9      271871           0
</event>
<event>
      5   9999  3.19816E-02  8.11770E+01 -1.00000E+00  1.28043E-01
      21    -1     0     0   502   501  0.000000000E+00  0.000000000E+00  2.192235477E+02  2.192235477E+02  0.000000000E+00  0.00000E+00  9.000E+00
       2    -1     0     0   501     0  0.000000000E+00  0.000000000E+00 -1.069133441E+03  1.069133441E+03  0.000000000E+00  0.00000E+00  9.000E+00
      25     1     1     2     0     0  1.010733737E+02  4.470641505E+01 -2.254840279E+02  2.805040771E+02  1.250000000E+02  0.00000E+00  9.000E+00
      25     1     1     2     0     0 -5.270103342E+01 -1.098970879E+02  1.493988056E+02  2.297820097E+02  1.250000000E+02  0.00000E+00  9.000E+00
       2     1     1     2   502     0 -4.837234032E+01  6.519067288E+01 -7.738246711E+02  7.780709021E+02  0.000000000E+00  0.00000E+00  9.000E+00
#rwgt            1           1   2.6335687049682078E-002           9      271891           0
</event>
<event>
      5   9999  3.19816E-02  3.08192E+01 -1.00000E+00  1.52232E-01
      21    -1     0     0   502   501  0.000000000E+00  0.000000000E+00  3.630550820E+02  3.630550820E+02  0.000000000E+00  0.00000E+00  9.000E+00
      21    -1     0     0   511   502  0.000000000E+00  0.000000000E+00 -3.538710344E+02  3.538710344E+02  0.000000000E+00  0.00000E+00  9.000E+00
      25     1     1     2     0     0  2.454193312E+02 -1.498940376E+02  5.398472576E+01  3.181795425E+02  1.250000000E+02  0.00000E+00  9.000E+00
      25     1     1     2     0     0 -2.426347354E+02  1.192008453E+02  4.735345329E+01  3.015755392E+02  1.250000000E+02  0.00000E+00  9.000E+00
      21     1     1     2   511   501 -2.784595881E+00  3.069319236E+01 -9.215413151E+01  9.717103471E+01  1.348699152E-06  0.00000E+00  9.000E+00
#rwgt            1           1   3.0986671024957627E-002           9      271957           0
</event>
<event>
      5   9999  3.19816E-02  1.84759E+02 -1.00000E+00  1.12916E-01
      21    -1     0     0   502   501  0.000000000E+00  0.000000000E+00  1.981091330E+03  1.981091330E+03  0.000000000E+00  0.00000E+00  9.000E+00
      21    -1     0     0   501   512  0.000000000E+00  0.000000000E+00 -5.941130245E+02  5.941130245E+02  0.000000000E+00  0.00000E+00  9.000E+00
      25     1     1     2     0     0 -8.273120224E+01 -4.276584091E+02  1.321066559E+03  1.396630953E+03  1.250000000E+02  0.00000E+00  9.000E+00
      25     1     1     2     0     0  1.859589958E+02  5.808900926E+02  4.392917458E+02  7.619818146E+02  1.250000000E+02  0.00000E+00  9.000E+00
      21     1     1     2   502   512 -1.032277935E+02 -1.532316835E+02 -3.733799992E+02  4.165915866E+02  5.394796609E-06  0.00000E+00  9.000E+00
#rwgt            1           1   3.0224694055869989E-002           9      272070           0
</event>
<event>
      5   9999  3.19816E-02  2.24756E+01 -1.00000E+00  1.62293E-01
      21    -1     0     0   502   511  0.000000000E+00  0.000000000E+00  5.623819000E+01  5.623819000E+01  0.000000000E+00  0.00000E+00  9.000E+00
      21    -1     0     0   501   502  0.000000000E+00  0.000000000E+00 -1.235158230E+03  1.235158230E+03  0.000000000E+00  0.00000E+00  9.000E+00
      25     1     1     2     0     0 -1.029414179E+02  1.207672985E+02 -2.239056845E+02  3.015633125E+02  1.250000000E+02  0.00000E+00  9.000E+00
      25     1     1     2     0     0  1.172705793E+02 -1.034517782E+02 -9.436405149E+02  9.646434992E+02  1.250000000E+02  0.00000E+00  9.000E+00
      21     1     1     2   501   511 -1.432916145E+01 -1.731552033E+01 -1.137384050E+01  2.518960817E+01  6.307962682E-07  0.00000E+00  9.000E+00
#rwgt            1           1   3.1143023504938399E-002           9      272159           0
</event>
<event>
      5   9999  3.19816E-02  7.78018E+01 -1.00000E+00  1.28938E-01
      21    -1     0     0   502   501  0.000000000E+00  0.000000000E+00  1.124545900E+03  1.124545900E+03  0.000000000E+00  0.00000E+00  9.000E+00
      21    -1     0     0   512   502  0.000000000E+00  0.000000000E+00 -1.263322320E+02  1.263322320E+02  0.000000000E+00  0.00000E+00  9.000E+00
      25     1     1     2     0     0  1.964632755E+02  1.508255627E+02  2.797131045E+02  3.939677523E+02  1.250000000E+02  0.00000E+00  9.000E+00
      25     1     1     2     0     0 -1.405492662E+02 -2.049249888E+02  7.272378881E+02  7.786194790E+02  1.250000000E+02  0.00000E+00  9.000E+00
      21     1     1     2   512   501 -5.591400931E+01  5.409942609E+01 -8.737324296E+00  7.829090098E+01  1.004475328E-06  0.00000E+00  9.000E+00
#rwgt            1           1   2.7364867941679399E-002           9      272331           0
</event>
<event>
      5   9999  3.19816E-02  7.10876E+01 -1.00000E+00  1.30882E-01
       1    -1     0     0   502     0  0.000000000E+00  0.000000000E+00  1.074849259E+03  1.074849259E+03  0.000000000E+00  0.00000E+00  9.000E+00
      21    -1     0     0   501   502  0.000000000E+00  0.000000000E+00 -4.656766991E+02  4.656766991E+02  0.000000000E+00  0.00000E+00  9.000E+00
      25     1     1     2     0     0  1.575270098E+01  1.038503170E+02 -4.268427548E+02  4.570041282E+02  1.250000000E+02  0.00000E+00  9.000E+00
      25     1     1     2     0     0 -1.118000802E+01 -1.747906840E+02  5.219550429E+02  5.645696083E+02  1.250000000E+02  0.00000E+00  9.000E+00
       1     1     1     2   501     0 -4.572692959E+00  7.094036706E+01  5.140602717E+02  5.189522215E+02  0.000000000E+00  0.00000E+00  9.000E+00
#rwgt            1           1   2.8777736217189067E-002           9      272389           0
</event>
<event>
      5   9999  3.19816E-02  2.58765E+01 -1.00000E+00  1.57638E-01
      21    -1     0     0   502   501  0.000000000E+00  0.000000000E+00  7.048435916E+01  7.048435916E+01  0.000000000E+00  0.00000E+00  9.000E+00
      21    -1     0     0   511   502  0.000000000E+00  0.000000000E+00 -6.435231084E+02  6.435231084E+02  0.000000000E+00  0.00000E+00  9.000E+00
      25     1     1     2     0     0  6.013714213E+01 -1.360972378E+02 -1.701337726E+02  2.582816962E+02  1.250000000E+02  0.00000E+00  9.000E+00
      25     1     1     2     0     0 -7.410585507E+01  1.143149651E+02 -3.286068201E+02  3.770504359E+02  1.250000000E+02  0.00000E+00  9.000E+00
      21     1     1     2   511   501  1.396871293E+01  2.178227271E+01 -7.429815653E+01  7.867533546E+01  0.000000000E+00  0.00000E+00  9.000E+00
#rwgt            1           1   2.5347437207968594E-002           9      272507           0
</event>
<event>
      5   9999  3.19816E-02  1.03049E+02 -1.00000E+00  1.23244E-01
       2    -1     0     0   502     0  0.000000000E+00  0.000000000E+00  1.928753176E+03  1.928753176E+03  0.000000000E+00  0.00000E+00  9.000E+00
      21    -1     0     0   501   502  0.000000000E+00  0.000000000E+00 -5.021844044E+02  5.021844044E+02  0.000000000E+00  0.00000E+00  9.000E+00
      25     1     1     2     0     0 -2.409040536E+01 -2.105337089E+01 -4.510368733E+02  4.691298894E+02  1.250000000E+02  0.00000E+00  9.000E+00
      25     1     1     2     0     0 -2.670124210E+01 -6.860835491E+01  8.891211893E+01  1.701482518E+02  1.250000000E+02  0.00000E+00  9.000E+00
       2     1     1     2   501     0  5.079164746E+01  8.966172580E+01  1.788693526E+03  1.791659440E+03  0.000000000E+00  0.00000E+00  9.000E+00
#rwgt            1           1   3.1096748211596276E-002           9      272610           0
</event>
<event>
      5   9999  3.19816E-02  1.55703E+03 -1.00000E+00  8.66012E-02
      21    -1     0     0   502   501  0.000000000E+00  0.000000000E+00  1.790847654E+03  1.790847654E+03  0.000000000E+00  0.00000E+00  9.000E+00
       2    -1     0     0   501     0  0.000000000E+00  0.000000000E+00 -1.717407286E+03  1.717407286E+03  0.000000000E+00  0.00000E+00  9.000E+00
      25     1     1     2     0     0 -4.957048589E+02  1.795867315E+02  5.560367531E+02  7.763868701E+02  1.250000000E+02  0.00000E+00  9.000E+00
      25     1     1     2     0     0 -1.053166367E+03 -2.037472712E+01  1.087686735E+02  1.066316159E+03  1.250000000E+02  0.00000E+00  9.000E+00
       2     1     1     2   502     0  1.548871226E+03 -1.592120044E+02 -5.913650587E+02  1.665551911E+03  2.018548058E-05  0.00000E+00  9.000E+00
#rwgt            2          13   2.5668788950120132E-003           9      272697           0
</event>
<event>
      5   9999  3.19816E-02  1.66655E+01 -1.00000E+00  1.73181E-01
      21    -1     0     0   502   511  0.000000000E+00  0.000000000E+00  1.119783116E+03  1.119783116E+03  0.000000000E+00  0.00000E+00  9.000E+00
      21    -1     0     0   501   502  0.000000000E+00  0.000000000E+00 -1.792752583E+02  1.792752583E+02  0.000000000E+00  0.00000E+00  9.000E+00
      25     1     1     2     0     0  8.277469481E-01 -1.490335554E+02 -1.114663543E+02  2.241906196E+02  1.250000000E+02  0.00000E+00  9.000E+00
      25     1     1     2     0     0 -1.334584066E+01  1.380319585E+02  7.665742675E+02  7.889816478E+02  1.250000000E+02  0.00000E+00  9.000E+00
      21     1     1     2   501   511  1.251809371E+01  1.100159687E+01  2.853999447E+02  2.858861071E+02  3.814697266E-06  0.00000E+00  9.000E+00
#rwgt            1           1   2.7279621506865963E-002           9      272731           0
</event>
<event>
      5   9999  3.19816E-02  1.73578E+02 -1.00000E+00  1.13935E-01
      21    -1     0     0   502   512  0.000000000E+00  0.000000000E+00  1.764840922E+03  1.764840922E+03  0.000000000E+00  0.00000E+00  9.000E+00
      21    -1     0     0   501   502  0.000000000E+00  0.000000000E+00 -2.085553024E+02  2.085553024E+02  0.000000000E+00  0.00000E+00  9.000E+00
      25     1     1     2     0     0 -4.582912757E+02  1.397527547E+02  4.493204517E+02  6.686371170E+02  1.250000000E+02  0.00000E+00  9.000E+00
      25     1     1     2     0     0  3.586763303E+02 -2.819006050E+02  5.714749965E+02  7.418391555E+02  1.250000000E+02  0.00000E+00  9.000E+00
      21     1     1     2   501   512  9.961494542E+01  1.421478503E+02  5.354901715E+02  5.629199521E+02  7.629394531E-06  0.00000E+00  9.000E+00
#rwgt            1           1   2.7462268097787196E-002           9      272975           0
</event>
<event>
      5   9999  3.19816E-02  5.28269E+01 -1.00000E+00  1.37726E-01
      21    -1     0     0   502   501  0.000000000E+00  0.000000000E+00  1.817085007E+02  1.817085007E+02  0.000000000E+00  0.00000E+00  9.000E+00
      21    -1     0     0   501   511  0.000000000E+00  0.000000000E+00 -8.440134905E+02  8.440134905E+02  0.000000000E+00  0.00000E+00  9.000E+00
      25     1     1     2     0     0  2.304855207E+02  8.868104356E+01 -2.195005818E+02  3.532611048E+02  1.250000000E+02  0.00000E+00  9.000E+00
      25     1     1     2     0     0 -2.219355929E+02 -1.408114997E+02 -7.455847499E+01  3.004450899E+02  1.250000000E+02  0.00000E+00  9.000E+00
      21     1     1     2   502   511 -8.549927763E+00  5.213045615E+01 -3.682459330E+02  3.720157966E+02  5.394796609E-06  0.00000E+00  9.000E+00
#rwgt            1           1   3.0279159381237864E-002           9      273048           0
</event>
<event>
      5   9999  3.19816E-02  1.99099E+02 -1.00000E+00  1.11720E-01
       2    -1     0     0   502     0  0.000000000E+00  0.000000000E+00  9.499719891E+02  9.499719891E+02  0.000000000E+00  0.00000E+00  9.000E+00
      21    -1     0     0   501   502  0.000000000E+00  0.000000000E+00 -2.673561707E+02  2.673561707E+02  0.000000000E+00  0.00000E+00  9.000E+00
      25     1     1     2     0     0 -1.580688863E+02 -2.843566645E+01 -1.272194885E+01  2.039147074E+02  1.250000000E+02  0.00000E+00  9.000E+00
      25     1     1     2     0     0  1.156848959E+02 -1.660994862E+02 -4.901082236E+01  2.428972934E+02  1.250000000E+02  0.00000E+00  9.000E+00
       2     1     1     2   501     0  4.238399040E+01  1.945351527E+02  7.443485896E+02  7.705161589E+02  0.000000000E+00  0.00000E+00  9.000E+00
#rwgt            1           1   3.4074204025825290E-002           9      273110           0
</event>
<event>
      5   9999  3.19816E-02  6.78068E+01 -1.00000E+00  1.31925E-01
      21    -1     0     0   502   511  0.000000000E+00  0.000000000E+00  1.781507263E+03  1.781507263E+03  0.000000000E+00  0.00000E+00  9.000E+00
      21    -1     0     0   501   502  0.000000000E+00  0.000000000E+00 -3.404668343E+02  3.404668343E+02  0.000000000E+00  0.00000E+00  9.000E+00
      25     1     1     2     0     0  6.635075719E+02  2.385525647E+02  5.267274385E+02  8.889411784E+02  1.250000000E+02  0.00000E+00  9.000E+00
      25     1     1     2     0     0 -7.146365934E+02 -1.940151199E+02  7.810911850E+02  1.083547769E+03  1.250000000E+02  0.00000E+00  9.000E+00
      21     1     1     2   501   511  5.112902151E+01 -4.453744482E+01  1.332218051E+02  1.494851504E+02  1.907348633E-06  0.00000E+00  9.000E+00
#rwgt            1           1   2.4003457947245059E-002           9      273142           0
</event>
<event>
      5   9999  3.19816E-02  4.15433E+01 -1.00000E+00  1.43828E-01
      21    -1     0     0   512   501  0.000000000E+00  0.000000000E+00  1.526284910E+02  1.526284910E+02  0.000000000E+00  0.00000E+00  9.000E+00
      21    -1     0     0   501   502  0.000000000E+00  0.000000000E+00 -5.306080990E+02  5.306080990E+02  0.000000000E+00  0.00000E+00  9.000E+00
      25     1     1     2     0     0  5.256183178E+00  1.144937585E+02  2.508498043E+00  1.696105561E+02  1.250000000E+02  0.00000E+00  9.000E+00
      25     1     1     2     0     0 -4.153786495E+01 -9.425803883E+01 -4.237479566E+02  4.536488761E+02  1.250000000E+02  0.00000E+00  9.000E+00
      21     1     1     2   512   502  3.628168177E+01 -2.023571964E+01  4.325985053E+01  5.997715772E+01  4.768371582E-07  0.00000E+00  9.000E+00
#rwgt            1           1   2.9547867164842784E-002           9      273263           0
</event>
<event>
      5   9999  3.19816E-02  3.59904E+01 -1.00000E+00  1.47744E-01
      21    -1     0     0   502   511  0.000000000E+00  0.000000000E+00  2.116502199E+03  2.116502199E+03  0.000000000E+00  0.00000E+00  9.000E+00
      21    -1     0     0   501   502  0.000000000E+00  0.000000000E+00 -2.762395098E+01  2.762395098E+01  0.000000000E+00  0.00000E+00  9.000E+00
      25     1     1     2     0     0  1.277483859E+01  1.322671591E+02  1.141902685E+03  1.156384253E+03  1.250000000E+02  0.00000E+00  9.000E+00
      25     1     1     2     0     0  6.022590182E+00 -1.629586050E+02  5.180395165E+02  5.572985907E+02  1.250000000E+02  0.00000E+00  9.000E+00
      21     1     1     2   501   511 -1.879742877E+01  3.069144584E+01  4.289360462E+02  4.304433063E+02  7.629394531E-06  0.00000E+00  9.000E+00
#rwgt            1           1   3.3486795227109387E-002           9      273380           0
</event>
<event>
      5   9999  3.19816E-02  2.10743E+02 -1.00000E+00  1.10827E-01
      21    -1     0     0   502   512  0.000000000E+00  0.000000000E+00  4.485280796E+02  4.485280796E+02  0.000000000E+00  0.00000E+00  9.000E+00
      21    -1     0     0   501   502  0.000000000E+00  0.000000000E+00 -1.418636735E+03  1.418636735E+03  0.000000000E+00  0.00000E+00  9.000E+00
      25     1     1     2     0     0  1.201687744E+02  9.421182404E+01 -3.728586488E+02  4.218589505E+02  1.250000000E+02  0.00000E+00  9.000E+00
      25     1     1     2     0     0 -2.297857790E+02 -2.742023228E+02 -9.564820820E+02  1.028820388E+03  1.250000000E+02  0.00000E+00  9.000E+00
      21     1     1     2   501   512  1.096170047E+02  1.799904987E+02  3.592320755E+02  4.164854757E+02  3.814697266E-06  0.00000E+00  9.000E+00
#rwgt            1           1   3.1025855161188217E-002           9      273494           0
</event>
<event>
      5   9999  3.19816E-02  6.10302E+01 -1.00000E+00  1.34309E-01
      21    -1     0     0   502   501  0.000000000E+00  0.000000000E+00  3.061363533E+02  3.061363533E+02  0.000000000E+00  0.00000E+00  9.000E+00
      21    -1     0     0   511   502  0.000000000E+00  0.000000000E+00 -1.104662621E+03  1.104662621E+03  0.000000000E+00  0.00000E+00  9.000E+00
      25     1     1     2     0     0 -6.003365829E+01 -3.563758032E+02 -2.008935640E+02  4.319617775E+02  1.250000000E+02  0.00000E+00  9.000E+00
      25     1     1     2     0     0  6.144125635E+01  4.173897506E+02 -6.745290087E+01  4.451562936E+02  1.250000000E+02  0.00000E+00  9.000E+00
      21     1     1     2   511   501 -1.407598060E+00 -6.101394747E+01 -5.301798029E+02  5.336809033E+02  0.000000000E+00  0.00000E+00  9.000E+00
#rwgt            1           1   2.4735615939928998E-002           9      273539           0
</event>
<event>
      5   9999  3.19816E-02  2.95092E+01 -1.00000E+00  1.53539E-01
      21    -1     0     0   502   512  0.000000000E+00  0.000000000E+00  5.656078193E+02  5.656078193E+02  0.000000000E+00  0.00000E+00  9.000E+00
      21    -1     0     0   501   502  0.000000000E+00  0.000000000E+00 -1.263749259E+02  1.263749259E+02  0.000000000E+00  0.00000E+00  9.000E+00
      25     1     1     2     0     0  1.774469190E+02  1.506274729E+02  2.309631243E+02  3.509202323E+02  1.250000000E+02  0.00000E+00  9.000E+00
      25     1     1     2     0     0 -1.500744145E+02 -1.396030077E+02  1.786563801E+02  2.992564649E+02  1.250000000E+02  0.00000E+00  9.000E+00
      21     1     1     2   501   512 -2.737250443E+01 -1.102446521E+01  2.961338910E+01  4.180604796E+01  4.768371582E-07  0.00000E+00  9.000E+00
#rwgt            1           1   2.7838812434373323E-002           9      273666           0
</event>
<event>
      5   9999  3.19816E-02  1.08478E+01 -1.00000E+00  1.91758E-01
      21    -1     0     0   502   501  0.000000000E+00  0.000000000E+00  9.878588392E+02  9.878588392E+02  0.000000000E+00  0.00000E+00  9.000E+00
      21    -1     0     0   501   511  0.000000000E+00  0.000000000E+00 -1.550181198E+02  1.550181198E+02  0.000000000E+00  0.00000E+00  9.000E+00
      25     1     1     2     0     0  9.633156871E+01 -9.584244557E+01  1.671411576E+02  2.490516253E+02  1.250000000E+02  0.00000E+00  9.000E+00
      25     1     1     2     0     0 -8.556335374E+01  9.715440678E+01  7.690919189E+02  7.898654607E+02  1.250000000E+02  0.00000E+00  9.000E+00
      21     1     1     2   502   511 -1.076821497E+01 -1.311961213E+00 -1.033923571E+02  1.039598730E+02  2.336015456E-06  0.00000E+00  9.000E+00
#rwgt            1           1   2.8082834701012853E-002           9      273750           0
</event>
<event>
      5   9999  3.19816E-02  2.14601E+01 -1.00000E+00  1.63883E-01
      21    -1     0     0   502   501  0.000000000E+00  0.000000000E+00  5.332854351E+01  5.332854351E+01  0.000000000E+00  0.00000E+00  9.000E+00
       2    -1     0     0   501     0  0.000000000E+00  0.000000000E+00 -1.170683075E+03  1.170683075E+03  0.000000000E+00  0.00000E+00  9.000E+00
      25     1     1     2     0     0  7.102411994E+01  7.637233352E+01 -5.680804259E+02  5.909462998E+02  1.250000000E+02  0.00000E+00  9.000E+00
      25     1     1     2     0     0 -5.072030250E+01 -8.332148561E+01 -1.093241685E+02  1.925922970E+02  1.250000000E+02  0.00000E+00  9.000E+00
       2     1     1     2   502     0 -2.030381744E+01  6.949152088E+00 -4.399499372E+02  4.404730219E+02  0.000000000E+00  0.00000E+00  9.000E+00
#rwgt            1           1   2.5777708872034406E-002           9      273953           0
</event>
<event>
      5   9999  3.19816E-02  7.64361E+01 -1.00000E+00  1.29315E-01
      21    -1     0     0   502   511  0.000000000E+00  0.000000000E+00  4.103999568E+02  4.103999568E+02  0.000000000E+00  0.00000E+00  9.000E+00
      21    -1     0     0   501   502  0.000000000E+00  0.000000000E+00 -2.938563170E+02  2.938563170E+02  0.000000000E+00  0.00000E+00  9.000E+00
      25     1     1     2     0     0  8.756848758E+01 -1.880503813E+02  1.336784076E+02  2.766335167E+02  1.250000000E+02  0.00000E+00  9.000E+00
      25     1     1     2     0     0 -1.999193723E+01  1.523307237E+02 -1.672073918E+02  2.592057847E+02  1.250000000E+02  0.00000E+00  9.000E+00
      21     1     1     2   501   511 -6.757655035E+01  3.571965758E+01  1.500726240E+02  1.684169724E+02  2.697398305E-06  0.00000E+00  9.000E+00
#rwgt            1           1   3.1309500770334835E-002           9      274046           0
</event>
<event>
      5   9999  3.19816E-02  2.48424E+01 -1.00000E+00  1.58957E-01
      21    -1     0     0   502   501  0.000000000E+00  0.000000000E+00  9.891312632E+01  9.891312632E+01  0.000000000E+00  0.00000E+00  9.000E+00
      21    -1     0     0   512   502  0.000000000E+00  0.000000000E+00 -3.675397384E+02  3.675397384E+02  0.000000000E+00  0.00000E+00  9.000E+00
      25     1     1     2     0     0  4.954751207E+01  1.219795201E+01  2.000479041E+01  1.364878662E+02  1.250000000E+02  0.00000E+00  9.000E+00
      25     1     1     2     0     0 -3.801321821E+01 -3.420032202E+01 -2.427614549E+02  2.777999114E+02  1.250000000E+02  0.00000E+00  9.000E+00
      21     1     1     2   512   501 -1.153429386E+01  2.200237001E+01 -4.586994759E+01  5.216508710E+01  6.743495762E-07  0.00000E+00  9.000E+00
#rwgt            1           1   2.4434891696333474E-002           9      274147           0
</event>
<event>
      5   9999  3.19816E-02  7.25069E+01 -1.00000E+00  1.30451E-01
      21    -1     0     0   511   501  0.000000000E+00  0.000000000E+00  1.273061593E+03  1.273061593E+03  0.000000000E+00  0.00000E+00  9.000E+00
      21    -1     0     0   501   502  0.000000000E+00  0.000000000E+00 -7.366451145E+01  7.366451145E+01  0.000000000E+00  0.00000E+00  9.000E+00
      25     1     1     2     0     0 -1.197234219E+02  2.005205453E+02  4.567167721E+02  5.279748069E+02  1.250000000E+02  0.00000E+00  9.000E+00
      25     1     1     2     0     0  5.431124064E+01 -2.318015800E+02  5.349489784E+02  5.987295657E+02  1.250000000E+02  0.00000E+00  9.000E+00
      21     1     1     2   511   502  6.541218126E+01  3.128103474E+01  2.077313313E+02  2.200217321E+02  0.000000000E+00  0.00000E+00  9.000E+00
#rwgt            2          11   2.5329160628370308E-003           9      274354           0
</event>
<event>
      5   9999  3.19816E-02  2.70924E+02 -1.00000E+00  1.07051E-01
      21    -1     0     0   502   501  0.000000000E+00  0.000000000E+00  7.525881591E+02  7.525881591E+02  0.000000000E+00  0.00000E+00  9.000E+00
      21    -1     0     0   501   512  0.000000000E+00  0.000000000E+00 -2.783696268E+03  2.783696268E+03  0.000000000E+00  0.00000E+00  9.000E+00
      25     1     1     2     0     0 -9.701362333E+02 -7.050340002E+02 -4.278881852E+02  1.279433684E+03  1.250000000E+02  0.00000E+00  9.000E+00
      25     1     1     2     0     0  7.783883117E+02  8.964296419E+02 -8.757016253E+02  1.480524503E+03  1.250000000E+02  0.00000E+00  9.000E+00
      21     1     1     2   502   512  1.917479216E+02 -1.913956417E+02 -7.275182984E+02  7.763262405E+02  0.000000000E+00  0.00000E+00  9.000E+00
#rwgt            1           1   7.1656591411322065E-002           9      274374           0
</event>
<event>
      5   9999  3.19816E-02  6.86945E+00 -1.00000E+00  2.16716E-01
      21    -1     0     0   502   501  0.000000000E+00  0.000000000E+00  9.461542837E+01  9.461542837E+01  0.000000000E+00  0.00000E+00  9.000E+00
      21    -1     0     0   501   511  0.000000000E+00  0.000000000E+00 -3.991865026E+02  3.991865026E+02  0.000000000E+00  0.00000E+00  9.000E+00
      25     1     1     2     0     0  5.363305805E+01  1.278349504E+02 -1.409576569E+02  2.339066919E+02  1.250000000E+02  0.00000E+00  9.000E+00
      25     1     1     2     0     0 -5.714264801E+01 -1.337402123E+02 -1.461066151E+02  2.410889246E+02  1.250000000E+02  0.00000E+00  9.000E+00
      21     1     1     2   502   511  3.509589967E+00  5.905261838E+00 -1.750680226E+01  1.880631449E+01  4.129530925E-07  0.00000E+00  9.000E+00
#rwgt            1           1   2.5667858675660619E-002           9      274455           0
</event>
<event>
      5   9999  3.19816E-02  1.03316E+02 -1.00000E+00  1.23194E-01
      21    -1     0     0   502   501  0.000000000E+00  0.000000000E+00  5.448484352E+02  5.448484352E+02  0.000000000E+00  0.00000E+00  9.000E+00
      21    -1     0     0   501   512  0.000000000E+00  0.000000000E+00 -1.342080437E+02  1.342080437E+02  0.000000000E+00  0.00000E+00  9.000E+00
      25     1     1     2     0     0 -5.785438371E+01  1.250733944E+01  3.583658910E+02  3.841284617E+02  1.250000000E+02  0.00000E+00  9.000E+00
      25     1     1     2     0     0  5.641036865E+01 -1.158134789E+02  8.041382521E-01  1.795008028E+02  1.250000000E+02  0.00000E+00  9.000E+00
      21     1     1     2   502   512  1.444015061E+00  1.033061394E+02  5.147036228E+01  1.154272144E+02  1.507891493E-06  0.00000E+00  9.000E+00
#rwgt            1           1   2.4648657789167056E-002           9      274721           0
</event>
<event>
      5   9999  3.19816E-02  6.04272E+01 -1.00000E+00  1.34539E-01
      21    -1     0     0   502   501  0.000000000E+00  0.000000000E+00  4.103195941E+02  4.103195941E+02  0.000000000E+00  0.00000E+00  9.000E+00
       2    -1     0     0   501     0  0.000000000E+00  0.000000000E+00 -8.681759303E+02  8.681759303E+02  0.000000000E+00  0.00000E+00  9.000E+00
      25     1     1     2     0     0  2.735868010E+02 -1.035310380E+01 -6.305832529E+01  3.075032957E+02  1.250000000E+02  0.00000E+00  9.000E+00
      25     1     1     2     0     0 -2.312594203E+02  5.347889713E+01  2.238549683E+02  3.493951327E+02  1.250000000E+02  0.00000E+00  9.000E+00
       2     1     1     2   502     0 -4.232738074E+01 -4.312579333E+01 -6.186529792E+02  6.215970961E+02  1.078959322E-05  0.00000E+00  9.000E+00
#rwgt            1           1   2.7272415437596734E-002           9      274761           0
</event>
<event>
      5   9999  3.19816E-02  2.57629E+02 -1.00000E+00  1.07786E-01
      21    -1     0     0   502   501  0.000000000E+00  0.000000000E+00  1.029642907E+03  1.029642907E+03  0.000000000E+00  0.00000E+00  9.000E+00
      21    -1     0     0   501   511  0.000000000E+00  0.000000000E+00 -1.848922626E+02  1.848922626E+02  0.000000000E+00  0.00000E+00  9.000E+00
      25     1     1     2     0     0  2.265240217E+01  2.703683231E+01  5.186967786E+02  5.347106412E+02  1.250000000E+02  0.00000E+00  9.000E+00
      25     1     1     2     0     0 -2.319381703E+02 -1.772770331E+02  2.684648457E+02  4.158375099E+02  1.250000000E+02  0.00000E+00  9.000E+00
      21     1     1     2   502   511  2.092857681E+02  1.502402008E+02  5.758901986E+01  2.639870184E+02  4.422005890E-06  0.00000E+00  9.000E+00
#rwgt            1           1   2.9813557306626371E-002           9      274836           0
</event>
<event>
      5   9999  3.19816E-02  4.78536E+01 -1.00000E+00  1.40172E-01
      21    -1     0     0   502   501  0.000000000E+00  0.000000000E+00  3.660092014E+02  3.660092014E+02  0.000000000E+00  0.00000E+00  9.000E+00
      21    -1     0     0   501   512  0.000000000E+00  0.000000000E+00 -4.535847610E+02  4.535847610E+02  0.000000000E+00  0.00000E+00  9.000E+00
      25     1     1     2     0     0  3.326332919E+02  8.748284746E+00 -1.088550921E+01  3.556190851E+02  1.250000000E+02  0.00000E+00  9.000E+00
      25     1     1     2     0     0 -3.755109949E+02  1.249950843E+01 -2.997482221E+01  3.970997797E+02  1.250000000E+02  0.00000E+00  9.000E+00
      21     1     1     2   502   512  4.287770305E+01 -2.124779318E+01 -4.671522819E+01  6.687509759E+01  0.000000000E+00  0.00000E+00  9.000E+00
#rwgt            1           1   3.0605228793962411E-002           9      274960           0
</event>
<event>
      5   9999  3.19816E-02  4.12994E+01 -1.00000E+00  1.43984E-01
      21    -1     0     0   502   501  0.000000000E+00  0.000000000E+00  1.967183046E+03  1.967183046E+03  0.000000000E+00  0.00000E+00  9.000E+00
      21    -1     0     0   501   511  0.000000000E+00  0.000000000E+00 -5.734938878E+02  5.734938878E+02  0.000000000E+00  0.00000E+00  9.000E+00
      25     1     1     2     0     0 -2.698545213E+02  2.920873201E+02  6.378587713E+02  7.619877147E+02  1.250000000E+02  0.00000E+00  9.000E+00
      25     1     1     2     0     0  2.392609469E+02 -2.643443506E+02  1.238196894E+03  1.294557949E+03  1.250000000E+02  0.00000E+00  9.000E+00
      21     1     1     2   502   511  3.059357442E+01 -2.774296949E+01 -4.823665070E+02  4.841312696E+02  7.629394531E-06  0.00000E+00  9.000E+00
#rwgt            1           1   3.4094408441123748E-002           9      275048           0
</event>
<event>
      5   9999  3.19816E-02  9.99287E+01 -1.00000E+00  1.23842E-01
      21    -1     0     0   502   501  0.000000000E+00  0.000000000E+00  7.980820783E+02  7.980820783E+02  0.000000000E+00  0.00000E+00  9.000E+00
      21    -1     0     0   512   502  0.000000000E+00  0.000000000E+00 -4.932511692E+02  4.932511692E+02  0.000000000E+00  0.00000E+00  9.000E+00
      25     1     1     2     0     0  2.202114300E+02 -4.594477146E+02  3.423991797E+02  6.264562831E+02  1.250000000E+02  0.00000E+00  9.000E+00
      25     1     1     2     0     0 -1.445059455E+02  5.246736147E+02 -7.506250173E-01  5.583815305E+02  1.250000000E+02  0.00000E+00  9.000E+00
      21     1     1     2   512   501 -7.570548454E+01 -6.522590001E+01 -3.681764551E+01  1.064954339E+02  1.261592536E-06  0.00000E+00  9.000E+00
#rwgt            1           1   2.4751243272367177E-002           9      275195           0
</event>
<event>
      5   9999  3.19816E-02  4.16655E+02 -1.00000E+00  1.01155E-01
      21    -1     0     0   502   501  0.000000000E+00  0.000000000E+00  1.610367821E+02  1.610367821E+02  0.000000000E+00  0.00000E+00  9.000E+00
       1    -1     0     0   501     0  0.000000000E+00  0.000000000E+00 -2.755753812E+03  2.755753812E+03  0.000000000E+00  0.00000E+00  9.000E+00
      25     1     1     2     0     0 -1.158053812E+02  2.312757210E+02 -2.005588945E+02  3.503544143E+02  1.250000000E+02  0.00000E+00  9.000E+00
      25     1     1     2     0     0 -2.983041993E+02 -2.772624427E+02 -1.735782311E+03  1.787295468E+03  1.250000000E+02  0.00000E+00  9.000E+00
       1     1     1     2   502     0  4.141095805E+02  4.598672168E+01 -6.583758242E+02  7.791407120E+02  0.000000000E+00  0.00000E+00  9.000E+00
#rwgt            1           1   2.7902835864034185E-002           9      275289           0
</event>
<event>
      5   9999  3.19816E-02  2.74164E+01 -1.00000E+00  1.55807E-01
       2    -1     0     0   502     0  0.000000000E+00  0.000000000E+00  5.063286095E+02  5.063286095E+02  0.000000000E+00  0.00000E+00  9.000E+00
      21    -1     0     0   501   502  0.000000000E+00  0.000000000E+00 -4.907669321E+02  4.907669321E+02  0.000000000E+00  0.00000E+00  9.000E+00
      25     1     1     2     0     0 -2.843056857E+01 -1.097365252E+02 -3.348498047E+02  3.749663903E+02  1.250000000E+02  0.00000E+00  9.000E+00
      25     1     1     2     0     0  7.094940981E+00  9.251887107E+01 -9.069703070E+01  1.801694510E+02  1.250000000E+02  0.00000E+00  9.000E+00
       2     1     1     2   501     0  2.133562759E+01  1.721765415E+01  4.411085127E+02  4.419597002E+02  0.000000000E+00  0.00000E+00  9.000E+00
#rwgt            1           1   2.6885057561905946E-002           9      275339           0
</event>
<event>
      5   9999  3.19816E-02  5.11647E+01 -1.00000E+00  1.38507E-01
      21    -1     0     0   502   511  0.000000000E+00  0.000000000E+00  3.970597801E+01  3.970597801E+01  0.000000000E+00  0.00000E+00  9.000E+00
      21    -1     0     0   501   502  0.000000000E+00  0.000000000E+00 -8.303036469E+02  8.303036469E+02  0.000000000E+00  0.00000E+00  9.000E+00
      25     1     1     2     0     0 -3.316265807E+01 -5.004958935E+01 -3.985084489E+02  4.219463320E+02  1.250000000E+02  0.00000E+00  9.000E+00
      25     1     1     2     0     0  2.647243551E+01 -6.758192711E-01 -3.715905993E+02  3.929450599E+02  1.250000000E+02  0.00000E+00  9.000E+00
      21     1     1     2   501   511  6.690222552E+00  5.072540862E+01 -2.049862065E+01  5.511823297E+01  1.390207266E-06  0.00000E+00  9.000E+00
#rwgt            1           1   2.4491531736230473E-003           9      275452           0
</event>
<event>
      5   9999  3.19816E-02  9.23830E+00 -1.00000E+00  1.99821E-01
      21    -1     0     0   502   501  0.000000000E+00  0.000000000E+00  7.316264067E+01  7.316264067E+01  0.000000000E+00  0.00000E+00  9.000E+00
      21    -1     0     0   501   512  0.000000000E+00  0.000000000E+00 -1.685061250E+03  1.685061250E+03  0.000000000E+00  0.00000E+00  9.000E+00
      25     1     1     2     0     0  2.517560553E+02 -1.631975815E+02 -9.711661435E+02  1.024110951E+03  1.250000000E+02  0.00000E+00  9.000E+00
      25     1     1     2     0     0 -2.608826339E+02  1.617652110E+02 -5.445317165E+02  6.374696248E+02  1.250000000E+02  0.00000E+00  9.000E+00
      21     1     1     2   502   512  9.126578594E+00  1.432370473E+00 -9.620074945E+01  9.664331491E+01  0.000000000E+00  0.00000E+00  9.000E+00
#rwgt            1           1   2.5814380895145699E-002           9      275590           0
</event>
<event>
      5   9999  3.19816E-02  6.51291E+01 -1.00000E+00  1.32827E-01
      21    -1     0     0   502   511  0.000000000E+00  0.000000000E+00  1.303302973E+03  1.303302973E+03  0.000000000E+00  0.00000E+00  9.000E+00
      21    -1     0     0   501   502  0.000000000E+00  0.000000000E+00 -4.392750982E+02  4.392750982E+02  0.000000000E+00  0.00000E+00  9.000E+00
      25     1     1     2     0     0 -9.107920438E+01 -9.774000186E+01  1.173404303E+02  2.173529526E+02  1.250000000E+02  0.00000E+00  9.000E+00
      25     1     1     2     0     0  8.826110922E+01  1.628080550E+02 -3.561677437E+02  4.204485080E+02  1.250000000E+02  0.00000E+00  9.000E+00
      21     1     1     2   501   511  2.818095165E+00 -6.506805317E+01  1.102855188E+03  1.104776611E+03  1.525878906E-05  0.00000E+00  9.000E+00
#rwgt            1           1   2.7439353225207901E-002           9      275893           0
</event>
<event>
      5   9999  3.19816E-02  1.48838E+02 -1.00000E+00  1.16528E-01
       2    -1     0     0   502     0  0.000000000E+00  0.000000000E+00  5.642007967E+02  5.642007967E+02  0.000000000E+00  0.00000E+00  9.000E+00
      21    -1     0     0   501   502  0.000000000E+00  0.000000000E+00 -3.896782753E+02  3.896782753E+02  0.000000000E+00  0.00000E+00  9.000E+00
      25     1     1     2     0     0 -9.744449241E+01  4.123023302E+02 -6.536069866E+00  4.417650516E+02  1.250000000E+02  0.00000E+00  9.000E+00
      25     1     1     2     0     0 -4.726872550E+00 -3.040719253E+02  1.425971155E+02  3.583866856E+02  1.250000000E+02  0.00000E+00  9.000E+00
       2     1     1     2   501     0  1.021713650E+02 -1.082304049E+02  3.846147566E+01  1.537273348E+02  4.101908334E-06  0.00000E+00  9.000E+00
#rwgt            1           1   2.7957327700355691E-002           9      276015           0
</event>
<event>
      5   9999  3.19816E-02  5.00386E+01 -1.00000E+00  1.39056E-01
      21    -1     0     0   502   511  0.000000000E+00  0.000000000E+00  1.947006997E+02  1.947006997E+02  0.000000000E+00  0.00000E+00  9.000E+00
      21    -1     0     0   501   502  0.000000000E+00  0.000000000E+00 -2.837829365E+02  2.837829365E+02  0.000000000E+00  0.00000E+00  9.000E+00
      25     1     1     2     0     0 -5.137651510E+01  4.090829565E+01 -2.120179428E+01  1.427849818E+02  1.250000000E+02  0.00000E+00  9.000E+00
      25     1     1     2     0     0  4.774260452E+01  8.998176701E+00 -1.732265393E+02  2.190724935E+02  1.250000000E+02  0.00000E+00  9.000E+00
      21     1     1     2   501   511  3.633910578E+00 -4.990647235E+01  1.053460969E+02  1.166261609E+02  1.348699152E-06  0.00000E+00  9.000E+00
#rwgt            1           1   4.9149355866620260E-002           9      276117           0
</event>
<event>
      5   9999  3.19816E-02  2.15597E+02 -1.00000E+00  1.10474E-01
      -4    -1     0     0     0   501  0.000000000E+00  0.000000000E+00  1.375890903E+03  1.375890903E+03  0.000000000E+00  0.00000E+00  9.000E+00
      21    -1     0     0   501   502  0.000000000E+00  0.000000000E+00 -4.456799443E+02  4.456799443E+02  0.000000000E+00  0.00000E+00  9.000E+00
      25     1     1     2     0     0  2.304772002E+02  4.285530999E+02 -1.260550057E+02  5.179694622E+02  1.250000000E+02  0.00000E+00  9.000E+00
      25     1     1     2     0     0 -1.491700373E+01 -4.245486856E+02  3.478549177E+02  5.631093563E+02  1.250000000E+02  0.00000E+00  9.000E+00
      -4     1     1     2     0   502 -2.155601965E+02 -4.004414352E+00  7.084110470E+02  7.404920291E+02  1.078959322E-05  0.00000E+00  9.000E+00
#rwgt            1           1   3.0658190484660723E-002           9      276240           0
</event>
<event>
      5   9999  3.19816E-02  1.10403E+02 -1.00000E+00  1.21925E-01
      21    -1     0     0   511   501  0.000000000E+00  0.000000000E+00  4.190540895E+02  4.190540895E+02  0.000000000E+00  0.00000E+00  9.000E+00
      21    -1     0     0   501   502  0.000000000E+00  0.000000000E+00 -7.412721604E+02  7.412721604E+02  0.000000000E+00  0.00000E+00  9.000E+00
      25     1     1     2     0     0 -1.463445509E+02  2.403793219E+02 -1.120773740E+02  3.276969388E+02  1.250000000E+02  0.00000E+00  9.000E+00
      25     1     1     2     0     0  2.447146842E+02 -2.905004984E+02 -4.296368692E+02  5.869315596E+02  1.250000000E+02  0.00000E+00  9.000E+00
      21     1     1     2   511   502 -9.837013335E+01  5.012117656E+01  2.194961722E+02  2.456977515E+02  3.814697266E-06  0.00000E+00  9.000E+00
#rwgt            1           1   2.9371398341372628E-002           9      276276           0
</event>
<event>
      5   9999  3.19816E-02  4.31851E+01 -1.00000E+00  1.42806E-01
      21    -1     0     0   502   501  0.000000000E+00  0.000000000E+00  3.769577973E+02  3.769577973E+02  0.000000000E+00  0.00000E+00  9.000E+00
      21    -1     0     0   501   512  0.000000000E+00  0.000000000E+00 -4.678773382E+02  4.678773382E+02  0.000000000E+00  0.00000E+00  9.000E+00
      25     1     1     2     0     0  2.196263816E+02 -9.922013787E+01  1.931176168E+02  3.331663206E+02  1.250000000E+02  0.00000E+00  9.000E+00
      25     1     1     2     0     0 -2.621951820E+02  9.195034205E+01 -9.704693418E+01  3.197566048E+02  1.250000000E+02  0.00000E+00  9.000E+00
      21     1     1     2   502   512  4.256880040E+01  7.269795824E+00 -1.869902235E+02  1.919122101E+02  2.697398305E-06  0.00000E+00  9.000E+00
#rwgt            1           1   2.7810133907976407E-002           9      276340           0
</event>
<event>
      5   9999  3.19816E-02  2.18728E+02 -1.00000E+00  1.10251E-01
      21    -1     0     0   502   501  0.000000000E+00  0.000000000E+00  9.010667654E+02  9.010667654E+02  0.000000000E+00  0.00000E+00  9.000E+00
      21    -1     0     0   501   511  0.000000000E+00  0.000000000E+00 -1.217190111E+03  1.217190111E+03  0.000000000E+00  0.00000E+00  9.000E+00
      25     1     1     2     0     0 -8.977823383E+01  1.691692578E+02 -6.928240981E+02  7.295948190E+02  1.250000000E+02  0.00000E+00  9.000E+00
      25     1     1     2     0     0  2.150353117E+02 -3.484806301E+02  8.027275643E+02  9.097667159E+02  1.250000000E+02  0.00000E+00  9.000E+00
      21     1     1     2   502   511 -1.252570778E+02  1.793113724E+02 -4.260268119E+02  4.788953416E+02  5.394796609E-06  0.00000E+00  9.000E+00
#rwgt            2          11   3.5693363906307593E-003           9      276651           0
</event>
<event>
      5   9999  3.19816E-02  7.27088E+01 -1.00000E+00  1.30391E-01
      21    -1     0     0   502   501  0.000000000E+00  0.000000000E+00  2.213654708E+02  2.213654708E+02  0.000000000E+00  0.00000E+00  9.000E+00
      21    -1     0     0   512   502  0.000000000E+00  0.000000000E+00 -2.433199381E+02  2.433199381E+02  0.000000000E+00  0.00000E+00  9.000E+00
      25     1     1     2     0     0 -6.592113242E+01 -2.099069482E+01  1.233196283E+02  1.887297955E+02  1.250000000E+02  0.00000E+00  9.000E+00
      25     1     1     2     0     0  8.421980356E+01 -4.937779514E+01 -7.737992007E+01  1.764760437E+02  1.250000000E+02  0.00000E+00  9.000E+00
      21     1     1     2   512   501 -1.829867114E+01  7.036848997E+01 -6.789417549E+01  9.947956982E+01  1.348699152E-06  0.00000E+00  9.000E+00
#rwgt            1           1   3.0381457826151398E-002           9      276701           0
</event>
<event>
      5   9999  3.19816E-02  6.18491E+01 -1.00000E+00  1.34003E-01
      21    -1     0     0   502   511  0.000000000E+00  0.000000000E+00  1.937722725E+03  1.937722725E+03  0.000000000E+00  0.00000E+00  9.000E+00
      21    -1     0     0   501   502  0.000000000E+00  0.000000000E+00 -1.087527898E+02  1.087527898E+02  0.000000000E+00  0.00000E+00  9.000E+00
      25     1     1     2     0     0  1.243370211E+02  3.368832085E+02  5.454097342E+02  6.648659784E+02  1.250000000E+02  0.00000E+00  9.000E+00
      25     1     1     2     0     0 -1.298280334E+02 -3.984880946E+02  1.001187594E+03  1.092542758E+03  1.250000000E+02  0.00000E+00  9.000E+00
      21     1     1     2   501   511  5.491012300E+00  6.160488606E+01  2.823726062E+02  2.890667776E+02  5.394796609E-06  0.00000E+00  9.000E+00
#rwgt            1           1   3.0930149629960841E-002           9      276773           0
</event>
<event>
      5   9999  3.19816E-02  4.97447E+01 -1.00000E+00  1.39202E-01
      21    -1     0     0   502   512  0.000000000E+00  0.000000000E+00  3.370204033E+02  3.370204033E+02  0.000000000E+00  0.00000E+00  9.000E+00
      21    -1     0     0   501   502  0.000000000E+00  0.000000000E+00 -2.796464597E+02  2.796464597E+02  0.000000000E+00  0.00000E+00  9.000E+00
      25     1     1     2     0     0 -1.368675182E+02  2.057941199E+02  9.830508973E+01  2.938925450E+02  1.250000000E+02  0.00000E+00  9.000E+00
      25     1     1     2     0     0  1.657662296E+02 -1.653045632E+02 -5.511399574E+01  2.710472174E+02  1.250000000E+02  0.00000E+00  9.000E+00
      21     1     1     2   501   512 -2.889871140E+01 -4.048955665E+01  1.418284971E+01  5.172710067E+01  9.233911863E-07  0.00000E+00  9.000E+00
#rwgt            1           1   2.7134463067653550E-002           9      276878           0
</event>
<event>
      5   9999  3.19816E-02  1.14809E+02 -1.00000E+00  1.21189E-01
      21    -1     0     0   502   501  0.000000000E+00  0.000000000E+00  6.170390552E+02  6.170390552E+02  0.000000000E+00  0.00000E+00  9.000E+00
      21    -1     0     0   501   511  0.000000000E+00  0.000000000E+00 -8.906729616E+02  8.906729616E+02  0.000000000E+00  0.00000E+00  9.000E+00
      25     1     1     2     0     0 -8.751494850E+01  3.096541618E+02 -3.750729445E+02  5.097541366E+02  1.250000000E+02  0.00000E+00  9.000E+00
      25     1     1     2     0     0  1.759466693E+01 -4.007162671E+02  4.591016299E+02  6.223201793E+02  1.250000000E+02  0.00000E+00  9.000E+00
      21     1     1     2   502   511  6.992028158E+01  9.106210531E+01 -3.576625918E+02  3.756377009E+02  3.814697266E-06  0.00000E+00  9.000E+00
#rwgt            1           1   2.7235254689028369E-002           9      276938           0
</event>
<event>
      5   9999  3.19816E-02  1.79304E+01 -1.00000E+00  1.70381E-01
      21    -1     0     0   502   501  0.000000000E+00  0.000000000E+00  1.254262458E+03  1.254262458E+03  0.000000000E+00  0.00000E+00  9.000E+00
      21    -1     0     0   501   512  0.000000000E+00  0.000000000E+00 -3.810699684E+02  3.810699684E+02  0.000000000E+00  0.00000E+00  9.000E+00
      25     1     1     2     0     0  1.995301966E+02 -4.797034056E+02  9.467610455E+02  1.087156444E+03  1.250000000E+02  0.00000E+00  9.000E+00
      25     1     1     2     0     0 -2.096923702E+02  4.649307762E+02 -7.351004252E+01  5.302454556E+02  1.250000000E+02  0.00000E+00  9.000E+00
      21     1     1     2   502   512  1.016217364E+01  1.477262942E+01 -5.851362375E-02  1.793052640E+01  1.652618722E-07  0.00000E+00  9.000E+00
#rwgt            1           1   2.9463416209910880E-002           9      276984           0
</event>
<event>
      5   9999  3.22578E-02  5.85652E+01 -1.00000E+00  1.35268E-01
      21    -1     0     0   502   501  0.000000000E+00  0.000000000E+00  2.373707228E+03  2.373707228E+03  0.000000000E+00  0.00000E+00  9.000E+00
      21    -1     0     0   501   511  0.000000000E+00  0.000000000E+00 -3.240949025E+02  3.240949025E+02  0.000000000E+00  0.00000E+00  9.000E+00
      25     1     1     2     0     0  6.494420076E+02  4.620922975E+02  8.877813528E+02  1.199618666E+03  1.250000000E+02  0.00000E+00  9.000E+00
      25     1     1     2     0     0 -6.367324433E+02 -4.049228484E+02  1.203727484E+03  1.426175155E+03  1.250000000E+02  0.00000E+00  9.000E+00
      21     1     1     2   502   511 -1.270956427E+01 -5.716944913E+01 -4.189651152E+01  7.200830935E+01  8.259061849E-07  0.00000E+00  9.000E+00
#rwgt            1           1   3.1087052976701494E-002           9      277153           0
</event>
<event>
      5   9999  3.19816E-02  3.48028E+01 -1.00000E+00  1.48691E-01
      21    -1     0     0   502   501  0.000000000E+00  0.000000000E+00  5.337637163E+02  5.337637163E+02  0.000000000E+00  0.00000E+00  9.000E+00
      21    -1     0     0   501   512  0.000000000E+00  0.000000000E+00 -2.831423305E+02  2.831423305E+02  0.000000000E+00  0.00000E+00  9.000E+00
      25     1     1     2     0     0  1.428873405E+02 -1.988454680E+02 -9.255439219E+01  2.900821051E+02  1.250000000E+02  0.00000E+00  9.000E+00
      25     1     1     2     0     0 -1.767197281E+02  1.906843533E+02  3.793851160E+02  4.766009349E+02  1.250000000E+02  0.00000E+00  9.000E+00
      21     1     1     2   502   512  3.383238759E+01  8.161114630E+00 -3.620933802E+01  5.022300670E+01  4.768371582E-07  0.00000E+00  9.000E+00
#rwgt            1           1   2.8160027695623507E-002           9      277328           0
</event>
<event>
      5   9999  3.19816E-02  2.81075E+01 -1.00000E+00  1.55032E-01
      21    -1     0     0   511   501  0.000000000E+00  0.000000000E+00  4.146722411E+03  4.146722411E+03  0.000000000E+00  0.00000E+00  9.000E+00
      21    -1     0     0   501   502  0.000000000E+00  0.000000000E+00 -5.433388105E+02  5.433388105E+02  0.000000000E+00  0.00000E+00  9.000E+00
      25     1     1     2     0     0  2.263020303E+02 -6.589258927E+02  3.734662196E+03  3.801147545E+03  1.250000000E+02  0.00000E+00  9.000E+00
      25     1     1     2     0     0 -2.384371476E+02  6.842788122E+02 -2.424284260E+02  7.742650114E+02  1.250000000E+02  0.00000E+00  9.000E+00
      21     1     1     2   511   502  1.213511728E+01 -2.535291946E+01  1.111498310E+02  1.146486656E+02  1.907348633E-06  0.00000E+00  9.000E+00
#rwgt            1           1   6.8852606982505310E-002           9      277386           0
</event>
<event>
      5   9999  3.19816E-02  1.67789E+02 -1.00000E+00  1.14497E-01
      21    -1     0     0   502   501  0.000000000E+00  0.000000000E+00  9.224285777E+02  9.224285777E+02  0.000000000E+00  0.00000E+00  9.000E+00
      21    -1     0     0   512   502  0.000000000E+00  0.000000000E+00 -3.918204062E+02  3.918204062E+02  0.000000000E+00  0.00000E+00  9.000E+00
      25     1     1     2     0     0 -1.029356364E+02  2.099009942E+01  6.156978998E+01  1.745054972E+02  1.250000000E+02  0.00000E+00  9.000E+00
      25     1     1     2     0     0  2.559437524E+02 -8.985071393E+01  7.529125615E+02  8.099893088E+02  1.250000000E+02  0.00000E+00  9.000E+00
      21     1     1     2   512   501 -1.530081160E+02  6.886061451E+01 -2.838741799E+02  3.297541779E+02  3.814697266E-06  0.00000E+00  9.000E+00
#rwgt            1           1   2.6999149656586015E-002           9      277608           0
</event>
<event>
      5   9999  3.19816E-02  1.72771E+02 -1.00000E+00  1.14012E-01
       2    -1     0     0   502     0  0.000000000E+00  0.000000000E+00  7.696389277E+02  7.696389277E+02  0.000000000E+00  0.00000E+00  9.000E+00
      21    -1     0     0   501   502  0.000000000E+00  0.000000000E+00 -1.299116781E+03  1.299116781E+03  0.000000000E+00  0.00000E+00  9.000E+00
      25     1     1     2     0     0  2.195048905E+02 -1.634332767E+02  1.021295868E+02  3.177235991E+02  1.250000000E+02  0.00000E+00  9.000E+00
      25     1     1     2     0     0 -3.900813260E+02  1.908802585E+02 -1.133484036E+03  1.220249881E+03  1.250000000E+02  0.00000E+00  9.000E+00
       2     1     1     2   501     0  1.705764354E+02 -2.744698188E+01  5.018765953E+02  5.307822285E+02  5.394796609E-06  0.00000E+00  9.000E+00
#rwgt            1           1   2.9942266733511885E-002           9      277640           0
</event>
<event>
      5   9999  3.19816E-02  7.55340E+01 -1.00000E+00  1.29569E-01
      21    -1     0     0   502   501  0.000000000E+00  0.000000000E+00  1.747511361E+03  1.747511361E+03  0.000000000E+00  0.00000E+00  9.000E+00
      21    -1     0     0   511   502  0.000000000E+00  0.000000000E+00 -2.053393404E+02  2.053393404E+02  0.000000000E+00  0.00000E+00  9.000E+00
      25     1     1     2     0     0 -2.986357001E+02 -1.707818740E+02  1.445796577E+03  1.491409559E+03  1.250000000E+02  0.00000E+00  9.000E+00
      25     1     1     2     0     0  2.394214921E+02  2.176759756E+02  1.401618996E+02  3.741334512E+02  1.250000000E+02  0.00000E+00  9.000E+00
      21     1     1     2   511   501  5.921420802E+01 -4.689410170E+01 -4.378645623E+01  8.730769127E+01  1.966049969E-06  0.00000E+00  9.000E+00
#rwgt            1           1   2.6929114599631248E-002           9      277679           0
</event>
<event>
      5   9999  3.19816E-02  4.19199E+01 -1.00000E+00  1.43589E-01
      21    -1     0     0   502   512  0.000000000E+00  0.000000000E+00  8.059328458E+01  8.059328458E+01  0.000000000E+00  0.00000E+00  9.000E+00
      21    -1     0     0   501   502  0.000000000E+00  0.000000000E+00 -1.067977227E+03  1.067977227E+03  0.000000000E+00  0.00000E+00  9.000E+00
      25     1     1     2     0     0  6.793005705E+01  1.394066822E+02 -1.386883792E+02  2.427100785E+02  1.250000000E+02  0.00000E+00  9.000E+00
      25     1     1     2     0     0 -4.051040438E+01 -1.076980233E+02 -8.470369827E+02  8.639077539E+02  1.250000000E+02  0.00000E+00  9.000E+00
      21     1     1     2   501   512 -2.741965267E+01 -3.170865884E+01 -1.658580436E+00  4.195267914E+01  7.740002223E-07  0.00000E+00  9.000E+00
#rwgt            1           1   2.8164239953936774E-002           9      277740           0
</event>
<event>
      5   9999  3.19816E-02  7.25838E+01 -1.00000E+00  1.30428E-01
      21    -1     0     0   502   501  0.000000000E+00  0.000000000E+00  1.738819484E+03  1.738819484E+03  0.000000000E+00  0.00000E+00  9.000E+00
      21    -1     0     0   501   511  0.000000000E+00  0.000000000E+00 -1.798170053E+02  1.798170053E+02  0.000000000E+00  0.00000E+00  9.000E+00
      25     1     1     2     0     0  4.163326621E+02 -1.419817927E+02  6.712698727E+02  8.122314676E+02  1.250000000E+02  0.00000E+00  9.000E+00
      25     1     1     2     0     0 -3.887010772E+02  2.091003413E+02  9.191876588E+02  1.027298609E+03  1.250000000E+02  0.00000E+00  9.000E+00
      21     1     1     2   502   511 -2.763158485E+01 -6.711854865E+01 -3.145505324E+01  7.910641206E+01  1.815741803E-06  0.00000E+00  9.000E+00
#rwgt            2          11   3.2924876506876979E-003           9      277866           0
</event>
<event>
      5   9999  3.19816E-02  4.06576E+02 -1.00000E+00  1.01473E-01
      21    -1     0     0   502   501  0.000000000E+00  0.000000000E+00  7.614046961E+01  7.614046961E+01  0.000000000E+00  0.00000E+00  9.000E+00
       2    -1     0     0   501     0  0.000000000E+00  0.000000000E+00 -5.458257964E+03  5.458257964E+03  0.000000000E+00  0.00000E+00  9.000E+00
      25     1     1     2     0     0  1.908797868E+02  3.279610328E+02 -1.206872947E+03  1.271283148E+03  1.250000000E+02  0.00000E+00  9.000E+00
      25     1     1     2     0     0 -4.161432409E+02  1.050650180E+01 -2.609233914E+03  2.645186610E+03  1.250000000E+02  0.00000E+00  9.000E+00
       2     1     1     2   502     0  2.252634541E+02 -3.384675346E+02 -1.566010633E+03  1.617928675E+03  4.825252777E-05  0.00000E+00  9.000E+00
#rwgt            1           1   2.0448271535640501E-002           9      277886           0
</event>
<event>
      5   9999  3.19816E-02  1.31143E+01 -1.00000E+00  1.83063E-01
      21    -1     0     0   502   501  0.000000000E+00  0.000000000E+00  3.560254765E+02  3.560254765E+02  0.000000000E+00  0.00000E+00  9.000E+00
      21    -1     0     0   501   511  0.000000000E+00  0.000000000E+00 -1.036702681E+02  1.036702681E+02  0.000000000E+00  0.00000E+00  9.000E+00
      25     1     1     2     0     0 -6.447983047E+01 -4.364195444E+01 -1.594947587E+01  1.481271565E+02  1.250000000E+02  0.00000E+00  9.000E+00
      25     1     1     2     0     0  5.734043481E+01  3.264137372E+01  2.603120832E+02  2.962106774E+02  1.250000000E+02  0.00000E+00  9.000E+00
      21     1     1     2   502   511  7.139395658E+00  1.100058073E+01  7.992601050E+00  1.535791061E+01  2.064765462E-07  0.00000E+00  9.000E+00
#rwgt            1           1   2.5961993196190317E-002           9      277930           0
</event>
<event>
      5   9999  3.20384E-02  1.61392E+01 -1.00000E+00  1.74440E-01
      21    -1     0     0   502   501  0.000000000E+00  0.000000000E+00  9.102610629E+02  9.102610629E+02  0.000000000E+00  0.00000E+00  9.000E+00
      21    -1     0     0   512   502  0.000000000E+00  0.000000000E+00 -3.810747250E+02  3.810747250E+02  0.000000000E+00  0.00000E+00  9.000E+00
      25     1     1     2     0     0  3.955683148E+02  1.654943468E+02 -1.454622499E+02  4.697307065E+02  1.250000000E+02  0.00000E+00  9.000E+00
      25     1     1     2     0     0 -3.834559212E+02 -1.761603661E+02  6.745955932E+02  8.054657860E+02  1.250000000E+02  0.00000E+00  9.000E+00
      21     1     1     2   512   501 -1.211239358E+01  1.066601930E+01  5.299466074E-02  1.613929535E+01  2.394821347E-07  0.00000E+00  9.000E+00
#rwgt            1           1   3.1316501606071925E-002           9      278081           0
</event>
<event>
      5   9999  3.19816E-02  6.68139E+00 -1.00000E+00  2.18453E-01
      -2    -1     0     0     0   501  0.000000000E+00  0.000000000E+00  6.013118711E+02  6.013118711E+02  0.000000000E+00  0.00000E+00  9.000E+00
      21    -1     0     0   501   502  0.000000000E+00  0.000000000E+00 -1.688824498E+03  1.688824498E+03  0.000000000E+00  0.00000E+00  9.000E+00
      25     1     1     2     0     0  9.161940903E+00  7.206655364E+01 -1.749863981E+02  2.269862746E+02  1.250000000E+02  0.00000E+00  9.000E+00
      25     1     1     2     0     0 -3.439954776E+00 -7.551617440E+01 -1.484232934E+03  1.491404348E+03  1.250000000E+02  0.00000E+00  9.000E+00
      -2     1     1     2     0   502 -5.721986127E+00  3.449620759E+00  5.717067058E+02  5.717457463E+02  7.629394531E-06  0.00000E+00  9.000E+00
#rwgt            1           1   2.4331541450025796E-002           9      278380           0
</event>
<event>
      5   9999  3.19816E-02  7.76446E+01 -1.00000E+00  1.28981E-01
      21    -1     0     0   502   511  0.000000000E+00  0.000000000E+00  3.203546743E+02  3.203546743E+02  0.000000000E+00  0.00000E+00  9.000E+00
      21    -1     0     0   501   502  0.000000000E+00  0.000000000E+00 -1.473412294E+03  1.473412294E+03  0.000000000E+00  0.00000E+00  9.000E+00
      25     1     1     2     0     0 -4.663247818E+02  2.596141387E+02 -9.986907010E+01  5.571868037E+02  1.250000000E+02  0.00000E+00  9.000E+00
      25     1     1     2     0     0  3.913059064E+02 -2.395928860E+02 -1.056782351E+03  1.158852450E+03  1.250000000E+02  0.00000E+00  9.000E+00
      21     1     1     2   501   511  7.501887537E+01 -2.002125265E+01  3.593801430E+00  7.772771467E+01  8.096145217E-07  0.00000E+00  9.000E+00
#rwgt            1           1   3.1781968883750608E-002           9      278633           0
</event>
<event>
      5   9999  3.19816E-02  2.64376E+01 -1.00000E+00  1.56953E-01
      21    -1     0     0   502   501  0.000000000E+00  0.000000000E+00  2.052050579E+03  2.052050579E+03  0.000000000E+00  0.00000E+00  9.000E+00
      21    -1     0     0   512   502  0.000000000E+00  0.000000000E+00 -6.047777891E+01  6.047777891E+01  0.000000000E+00  0.00000E+00  9.000E+00
      25     1     1     2     0     0  7.660128883E+01 -3.782529793E+01  8.143263489E+01  1.719150507E+02  1.250000000E+02  0.00000E+00  9.000E+00
      25     1     1     2     0     0 -7.167860998E+01  6.380059090E+01  1.907551041E+03  1.914049193E+03  1.250000000E+02  0.00000E+00  9.000E+00
      21     1     1     2   512   501 -4.922678853E+00 -2.597529297E+01  2.589124197E+00  2.656411444E+01  1.017215739E-06  0.00000E+00  9.000E+00
#rwgt            1           1   2.6308426170070977E-002           9      278744           0
</event>
<event>
      5   9999  3.19816E-02  7.18243E+01 -1.00000E+00  1.30657E-01
      21    -1     0     0   502   501  0.000000000E+00  0.000000000E+00  3.089461160E+02  3.089461160E+02  0.000000000E+00  0.00000E+00  9.000E+00
      21    -1     0     0   511   502  0.000000000E+00  0.000000000E+00 -7.049871394E+02  7.049871394E+02  0.000000000E+00  0.00000E+00  9.000E+00
      25     1     1     2     0     0 -2.685868242E+02 -2.121225716E+02  1.234675278E+01  3.645714056E+02  1.250000000E+02  0.00000E+00  9.000E+00
      25     1     1     2     0     0  1.999084951E+02  2.331466293E+02 -1.207350390E+02  3.528777505E+02  1.250000000E+02  0.00000E+00  9.000E+00
      21     1     1     2   511   501  6.867832913E+01 -2.102405773E+01 -2.876527373E+02  2.964840993E+02  3.814697266E-06  0.00000E+00  9.000E+00
#rwgt            1           1   2.6270363070801321E-002           9      278918           0
</event>
<event>
      5   9999  3.67515E-02  2.22071E+01 -1.00000E+00  1.62703E-01
      21    -1     0     0   502   501  0.000000000E+00  0.000000000E+00  2.213539093E+01  2.213539093E+01  0.000000000E+00  0.00000E+00  9.000E+00
      21    -1     0     0   512   502  0.000000000E+00  0.000000000E+00 -2.416599382E+03  2.416599382E+03  0.000000000E+00  0.00000E+00  9.000E+00
      25     1     1     2     0     0  4.801389970E+00  1.147989240E+02 -4.643320761E+02  4.943997605E+02  1.250000000E+02  0.00000E+00  9.000E+00
      25     1     1     2     0     0 -2.120110751E+01 -1.297723379E+02 -1.179218318E+03  1.193093118E+03  1.250000000E+02  0.00000E+00  9.000E+00
      21     1     1     2   512   501  1.639971754E+01  1.497341395E+01 -7.509135971E+02  7.512418945E+02  1.078959322E-05  0.00000E+00  9.000E+00
#rwgt            1           1  0.11264827297773480                9      278984           0
</event>
<event>
      5   9999  3.19816E-02  1.20110E+02 -1.00000E+00  1.20351E-01
      21    -1     0     0   502   511  0.000000000E+00  0.000000000E+00  2.734907635E+02  2.734907635E+02  0.000000000E+00  0.00000E+00  9.000E+00
      21    -1     0     0   501   502  0.000000000E+00  0.000000000E+00 -6.182631519E+02  6.182631519E+02  0.000000000E+00  0.00000E+00  9.000E+00
      25     1     1     2     0     0 -1.179427293E+02 -1.587687314E+02 -1.043782133E+01  2.342049222E+02  1.250000000E+02  0.00000E+00  9.000E+00
      25     1     1     2     0     0  6.394887345E+01  2.660588044E+02 -4.152167036E+02  5.127442411E+02  1.250000000E+02  0.00000E+00  9.000E+00
      21     1     1     2   501   511  5.399385582E+01 -1.072900730E+02  8.088213654E+01  1.448047521E+02  2.336015456E-06  0.00000E+00  9.000E+00
#rwgt            1           1   2.7576452703277177E-002           9      279089           0
</event>
<event>
      5   9999  3.19816E-02  2.47204E+01 -1.00000E+00  1.59118E-01
      21    -1     0     0   502   512  0.000000000E+00  0.000000000E+00  2.547604284E+02  2.547604284E+02  0.000000000E+00  0.00000E+00  9.000E+00
      21    -1     0     0   501   502  0.000000000E+00  0.000000000E+00 -1.438448625E+03  1.438448625E+03  0.000000000E+00  0.00000E+00  9.000E+00
      25     1     1     2     0     0  2.739815453E+02  3.537342698E+02 -1.203686976E+02  4.799035780E+02  1.250000000E+02  0.00000E+00  9.000E+00
      25     1     1     2     0     0 -2.986797640E+02 -3.547816701E+02 -1.081004991E+03  1.182910151E+03  1.250000000E+02  0.00000E+00  9.000E+00
      21     1     1     2   501   512  2.469821873E+01  1.047400316E+00  1.768549258E+01  3.039532371E+01  3.371747881E-07  0.00000E+00  9.000E+00
#rwgt            1           1   2.8488898527107242E-002           9      279131           0
</event>
<event>
      5   9999  3.19816E-02  1.75509E+01 -1.00000E+00  1.71190E-01
      21    -1     0     0   511   501  0.000000000E+00  0.000000000E+00  2.195117926E+02  2.195117926E+02  0.000000000E+00  0.00000E+00  9.000E+00
      21    -1     0     0   501   502  0.000000000E+00  0.000000000E+00 -7.459004686E+02  7.459004686E+02  0.000000000E+00  0.00000E+00  9.000E+00
      25     1     1     2     0     0  2.367461535E+02  9.917318899E+01 -2.548809799E+02  3.827184037E+02  1.250000000E+02  0.00000E+00  9.000E+00
      25     1     1     2     0     0 -2.522102889E+02 -1.074735087E+02 -3.731140515E+02  4.795828190E+02  1.250000000E+02  0.00000E+00  9.000E+00
      21     1     1     2   511   502  1.546413540E+01  8.300319709E+00  1.016063554E+02  1.031110385E+02  1.348699152E-06  0.00000E+00  9.000E+00
#rwgt            1           1   3.4316468275562069E-002           9      279300           0
</event>
<event>
      5   9999  3.19816E-02  7.02754E+01 -1.00000E+00  1.31134E-01
      21    -1     0     0   512   501  0.000000000E+00  0.000000000E+00  3.369579043E+02  3.369579043E+02  0.000000000E+00  0.00000E+00  9.000E+00
      21    -1     0     0   501   502  0.000000000E+00  0.000000000E+00 -1.714884457E+03  1.714884457E+03  0.000000000E+00  0.00000E+00  9.000E+00
      25     1     1     2     0     0 -4.704939691E+02 -2.863974492E+01 -1.393521505E+03  1.476384772E+03  1.250000000E+02  0.00000E+00  9.000E+00
      25     1     1     2     0     0  4.054179615E+02  2.111629916E+00 -1.039331545E+02  4.368011940E+02  1.250000000E+02  0.00000E+00  9.000E+00
      21     1     1     2   512   502  6.507600761E+01  2.652811500E+01  1.195281068E+02  1.386563954E+02  2.697398305E-06  0.00000E+00  9.000E+00
#rwgt            1           1   2.8723511689032553E-002           9      279466           0
</event>
<event>
      5   9999  3.19816E-02  4.74684E+01 -1.00000E+00  1.40375E-01
       1    -1     0     0   502     0  0.000000000E+00  0.000000000E+00  1.773473101E+03  1.773473101E+03  0.000000000E+00  0.00000E+00  9.000E+00
      21    -1     0     0   501   502  0.000000000E+00  0.000000000E+00 -1.452447517E+02  1.452447517E+02  0.000000000E+00  0.00000E+00  9.000E+00
      25     1     1     2     0     0  2.157491166E+02 -3.895645354E+02  1.071189547E+03  1.166782008E+03  1.250000000E+02  0.00000E+00  9.000E+00
      25     1     1     2     0     0 -2.211159535E+02  3.424005318E+02  5.606478619E+02  7.043304722E+02  1.250000000E+02  0.00000E+00  9.000E+00
       1     1     1     2   501     0  5.366836960E+00  4.716400360E+01 -3.609059572E+00  4.760537244E+01  1.493688117E-06  0.00000E+00  9.000E+00
#rwgt            1           1   2.8681807852332090E-002           9      279597           0
</event>
<event>
      5   9999  3.19816E-02  2.09062E+01 -1.00000E+00  1.64797E-01
      21    -1     0     0   502   511  0.000000000E+00  0.000000000E+00  3.585822489E+02  3.585822489E+02  0.000000000E+00  0.00000E+00  9.000E+00
      21    -1     0     0   501   502  0.000000000E+00  0.000000000E+00 -1.610178900E+03  1.610178900E+03  0.000000000E+00  0.00000E+00  9.000E+00
      25     1     1     2     0     0 -5.918674949E+02  3.290480506E+02 -3.234398305E+02  7.608009431E+02  1.250000000E+02  0.00000E+00  9.000E+00
      25     1     1     2     0     0  6.100992161E+02 -3.392791418E+02 -9.447167015E+02  1.181289988E+03  1.250000000E+02  0.00000E+00  9.000E+00
      21     1     1     2   501   511 -1.823172119E+01  1.023109125E+01  1.655988070E+01  2.667021812E+01  5.331201500E-07  0.00000E+00  9.000E+00
#rwgt            1           1   2.9935029801846081E-002           9      279740           0
</event>
<event>
      5   9999  3.19816E-02  1.74156E+02 -1.00000E+00  1.13880E-01
      21    -1     0     0   502   501  0.000000000E+00  0.000000000E+00  2.501909528E+02  2.501909528E+02  0.000000000E+00  0.00000E+00  9.000E+00
      -1    -1     0     0     0   502  0.000000000E+00  0.000000000E+00 -1.449961334E+03  1.449961334E+03  0.000000000E+00  0.00000E+00  9.000E+00
      25     1     1     2     0     0 -1.978292696E+02 -8.958506859E+01 -1.275588070E+03  1.299966088E+03  1.250000000E+02  0.00000E+00  9.000E+00
      25     1     1     2     0     0  2.794728865E+01  1.279327609E+02  1.240711486E+02  2.194686588E+02  1.250000000E+02  0.00000E+00  9.000E+00
      -1     1     1     2     0   501  1.698819809E+02 -3.834769229E+01 -4.825345937E+01  1.807175401E+02  1.348699152E-06  0.00000E+00  9.000E+00
#rwgt            1           1   2.7296758003584293E-002           9      279989           0
</event>
<event>
      5   9999  3.19816E-02  1.68030E+01 -1.00000E+00  1.72862E-01
      21    -1     0     0   511   501  0.000000000E+00  0.000000000E+00  2.887076313E+02  2.887076313E+02  0.000000000E+00  0.00000E+00  9.000E+00
      21    -1     0     0   501   502  0.000000000E+00  0.000000000E+00 -3.193954361E+02  3.193954361E+02  0.000000000E+00  0.00000E+00  9.000E+00
      25     1     1     2     0     0  1.311687262E+02 -1.655282427E+02 -1.751541830E+02  3.015108982E+02  1.250000000E+02  0.00000E+00  9.000E+00
      25     1     1     2     0     0 -1.225895131E+02  1.799760136E+02  1.446803911E+02  2.897878013E+02  1.250000000E+02  0.00000E+00  9.000E+00
      21     1     1     2   511   502 -8.579213132E+00 -1.444777088E+01 -2.140128754E-01  1.680436797E+01  4.907636981E-07  0.00000E+00  9.000E+00
#rwgt            1           1   3.0597141624616086E-002           9      280027           0
</event>
<event>
      5   9999  3.19816E-02  7.56226E+01 -1.00000E+00  1.29544E-01
      21    -1     0     0   502   501  0.000000000E+00  0.000000000E+00  2.272316367E+03  2.272316367E+03  0.000000000E+00  0.00000E+00  9.000E+00
      21    -1     0     0   512   502  0.000000000E+00  0.000000000E+00 -2.197303304E+01  2.197303304E+01  0.000000000E+00  0.00000E+00  9.000E+00
      25     1     1     2     0     0  6.191742732E+01  1.070309660E+01  1.481180336E+03  1.487773004E+03  1.250000000E+02  0.00000E+00  9.000E+00
      25     1     1     2     0     0 -7.117404874E+01  6.435087468E+01  4.048355595E+02  4.344233080E+02  1.250000000E+02  0.00000E+00  9.000E+00
      21     1     1     2   512   501  9.256621422E+00 -7.505397129E+01  3.643274378E+02  3.720930873E+02  0.000000000E+00  0.00000E+00  9.000E+00
#rwgt            1           1   7.7709507444452861E-002           9      280254           0
</event>
<event>
      5   9999  3.19816E-02  2.62090E+01 -1.00000E+00  1.57230E-01
      21    -1     0     0   502   511  0.000000000E+00  0.000000000E+00  4.416814364E+02  4.416814364E+02  0.000000000E+00  0.00000E+00  9.000E+00
      21    -1     0     0   501   502  0.000000000E+00  0.000000000E+00 -5.681823452E+02  5.681823452E+02  0.000000000E+00  0.00000E+00  9.000E+00
      25     1     1     2     0     0  2.006629953E+02 -3.567119518E+02 -2.830391964E+02  5.130743035E+02  1.250000000E+02  0.00000E+00  9.000E+00
      25     1     1     2     0     0 -2.257481792E+02  3.491193603E+02  1.174715574E+02  4.497456336E+02  1.250000000E+02  0.00000E+00  9.000E+00
      21     1     1     2   501   511  2.508518391E+01  7.592591485E+00  3.906673015E+01  4.704384446E+01  6.743495762E-07  0.00000E+00  9.000E+00
#rwgt            1           1   3.0026518087038465E-002           9      280333           0
</event>
<event>
      5   9999  3.19816E-02  1.67376E+02 -1.00000E+00  1.14538E-01
      21    -1     0     0   512   501  0.000000000E+00  0.000000000E+00  8.812335347E+02  8.812335347E+02  0.000000000E+00  0.00000E+00  9.000E+00
      21    -1     0     0   501   502  0.000000000E+00  0.000000000E+00 -4.082427326E+02  4.082427326E+02  0.000000000E+00  0.00000E+00  9.000E+00
      25     1     1     2     0     0  8.302802897E+01  2.333397808E+02 -2.432350818E+02  3.689571952E+02  1.250000000E+02  0.00000E+00  9.000E+00
      25     1     1     2     0     0 -2.433976072E+02 -2.812590414E+02  5.993480997E+02  7.163743353E+02  1.250000000E+02  0.00000E+00  9.000E+00
      21     1     1     2   512   502  1.603695782E+02  4.791926065E+01  1.168777842E+02  2.041447369E+02  4.473129043E-06  0.00000E+00  9.000E+00
#rwgt            1           1   2.7518484335417467E-002           9      280507           0
</event>
<event>
      5   9999  3.19816E-02  1.90312E+01 -1.00000E+00  1.68168E-01
      21    -1     0     0   511   501  0.000000000E+00  0.000000000E+00  1.638707238E+03  1.638707238E+03  0.000000000E+00  0.00000E+00  9.000E+00
      21    -1     0     0   501   502  0.000000000E+00  0.000000000E+00 -4.554595873E+01  4.554595873E+01  0.000000000E+00  0.00000E+00  9.000E+00
      25     1     1     2     0     0  3.121847325E+01 -2.208348962E+02  6.338780863E+02  6.834976758E+02  1.250000000E+02  0.00000E+00  9.000E+00
      25     1     1     2     0     0 -2.586984834E+01  2.025707151E+02  6.818006400E+02  7.226211016E+02  1.250000000E+02  0.00000E+00  9.000E+00
      21     1     1     2   511   502 -5.348624915E+00  1.826418111E+01  2.774825524E+02  2.781344190E+02  0.000000000E+00  0.00000E+00  9.000E+00
#rwgt            1           1   3.1065941778663272E-002           9      280576           0
</event>
<event>
      5   9999  3.19816E-02  7.00842E+01 -1.00000E+00  1.31194E-01
      21    -1     0     0   502   501  0.000000000E+00  0.000000000E+00  1.012739726E+03  1.012739726E+03  0.000000000E+00  0.00000E+00  9.000E+00
       2    -1     0     0   501     0  0.000000000E+00  0.000000000E+00 -1.370608860E+03  1.370608860E+03  0.000000000E+00  0.00000E+00  9.000E+00
      25     1     1     2     0     0 -9.887045147E+01  1.193903196E+02 -1.304228770E+02  2.380431504E+02  1.250000000E+02  0.00000E+00  9.000E+00
      25     1     1     2     0     0  5.808080078E+01 -1.763815394E+02  9.448049976E+02  9.709610241E+02  1.250000000E+02  0.00000E+00  9.000E+00
       2     1     1     2   502     0  4.078965069E+01  5.699121977E+01 -1.172251254E+03  1.174344412E+03  0.000000000E+00  0.00000E+00  9.000E+00
#rwgt            1           1   2.8847085024126036E-002           9      280738           0
</event>
<event>
      5   9999  3.19816E-02  3.14572E+01 -1.00000E+00  1.51623E-01
      21    -1     0     0   502   501  0.000000000E+00  0.000000000E+00  4.429724043E+01  4.429724043E+01  0.000000000E+00  0.00000E+00  9.000E+00
      21    -1     0     0   511   502  0.000000000E+00  0.000000000E+00 -1.565901094E+03  1.565901094E+03  0.000000000E+00  0.00000E+00  9.000E+00
      25     1     1     2     0     0  1.058289454E+01 -3.914429654E+01 -6.955035971E+01  1.486826357E+02  1.250000000E+02  0.00000E+00  9.000E+00
      25     1     1     2     0     0 -3.338589939E+01  1.747459150E+01 -1.277164495E+03  1.283820130E+03  1.250000000E+02  0.00000E+00  9.000E+00
      21     1     1     2   511   501  2.280300485E+01  2.166970504E+01 -1.748889994E+02  1.776955690E+02  2.697398305E-06  0.00000E+00  9.000E+00
#rwgt            1           1   3.1081137095439183E-002           9      280818           0
</event>
<event>
      5   9999  3.19816E-02  1.12572E+02 -1.00000E+00  1.21558E-01
      21    -1     0     0   502   501  0.000000000E+00  0.000000000E+00  5.559389711E+02  5.559389711E+02  0.000000000E+00  0.00000E+00  9.000E+00
      21    -1     0     0   501   512  0.000000000E+00  0.000000000E+00 -1.700370865E+02  1.700370865E+02  0.000000000E+00  0.00000E+00  9.000E+00
      25     1     1     2     0     0  1.451306554E+02 -4.776067218E+01  3.359166013E+02  3.896266828E+02  1.250000000E+02  0.00000E+00  9.000E+00
      25     1     1     2     0     0 -1.435226795E+02 -6.480002283E+01  8.525237010E+01  2.183821629E+02  1.250000000E+02  0.00000E+00  9.000E+00
      21     1     1     2   502   512 -1.607975883E+00  1.125606950E+02 -3.526708686E+01  1.179672118E+02  1.348699152E-06  0.00000E+00  9.000E+00
#rwgt            2          11   3.0015654739738613E-003           9      281016           0
</event>
<event>
      5   9999  3.19816E-02  9.79977E+01 -1.00000E+00  1.24224E-01
      21    -1     0     0   502   501  0.000000000E+00  0.000000000E+00  6.278752607E+02  6.278752607E+02  0.000000000E+00  0.00000E+00  9.000E+00
      21    -1     0     0   511   502  0.000000000E+00  0.000000000E+00 -4.606516856E+02  4.606516856E+02  0.000000000E+00  0.00000E+00  9.000E+00
      25     1     1     2     0     0 -2.504933324E+02  3.928217984E+01  3.704030123E+02  4.659542797E+02  1.250000000E+02  0.00000E+00  9.000E+00
      25     1     1     2     0     0  3.358095004E+02  8.932887807E+00  3.974359718E+01  3.606277452E+02  1.250000000E+02  0.00000E+00  9.000E+00
      21     1     1     2   511   501 -8.531616799E+01 -4.821506764E+01 -2.429230344E+02  2.619449215E+02  2.697398305E-06  0.00000E+00  9.000E+00
#rwgt            1           1   2.8405075996863403E-002           9      281081           0
</event>
<event>
      5   9999  3.19816E-02  2.10435E+01 -1.00000E+00  1.64567E-01
      21    -1     0     0   502   501  0.000000000E+00  0.000000000E+00  1.720984330E+02  1.720984330E+02  0.000000000E+00  0.00000E+00  9.000E+00
      21    -1     0     0   512   502  0.000000000E+00  0.000000000E+00 -2.086598512E+03  2.086598512E+03  0.000000000E+00  0.00000E+00  9.000E+00
      25     1     1     2     0     0 -2.793148783E+02  1.769207710E+02 -6.124285471E+01  3.587386900E+02  1.250000000E+02  0.00000E+00  9.000E+00
      25     1     1     2     0     0  2.671933196E+02 -1.597191239E+02 -1.190255799E+03  1.236622956E+03  1.250000000E+02  0.00000E+00  9.000E+00
      21     1     1     2   512   501  1.212155864E+01 -1.720164713E+01 -6.630014255E+02  6.633352991E+02  0.000000000E+00  0.00000E+00  9.000E+00
#rwgt            1           1   1.8351259087727851E-002           9      281136           0
</event>
<event>
      5   9999  3.19816E-02  3.67195E+02 -1.00000E+00  1.02816E-01
      21    -1     0     0   502   501  0.000000000E+00  0.000000000E+00  1.597089645E+03  1.597089645E+03  0.000000000E+00  0.00000E+00  9.000E+00
      21    -1     0     0   511   502  0.000000000E+00  0.000000000E+00 -2.198577560E+02  2.198577560E+02  0.000000000E+00  0.00000E+00  9.000E+00
      25     1     1     2     0     0  9.731023884E+01  1.047104935E+02  9.956487365E+02  1.013595075E+03  1.250000000E+02  0.00000E+00  9.000E+00
      25     1     1     2     0     0  2.679949978E+02 -6.750820058E+01  3.011972024E+02  4.274616132E+02  1.250000000E+02  0.00000E+00  9.000E+00
      21     1     1     2   511   501 -3.653052366E+02 -3.720229295E+01  8.038594953E+01  3.758907120E+02  5.800974398E-06  0.00000E+00  9.000E+00
#rwgt            2          11   5.8643361844535058E-003           9      281391           0
</event>
<event>
      5   9999  3.19816E-02  1.37835E+02 -1.00000E+00  1.17868E-01
      21    -1     0     0   502   512  0.000000000E+00  0.000000000E+00  1.084791872E+03  1.084791872E+03  0.000000000E+00  0.00000E+00  9.000E+00
      21    -1     0     0   501   502  0.000000000E+00  0.000000000E+00 -7.954389596E+02  7.954389596E+02  0.000000000E+00  0.00000E+00  9.000E+00
      25     1     1     2     0     0  7.022620966E+01 -3.320173699E+01  3.112928501E+02  3.443287882E+02  1.250000000E+02  0.00000E+00  9.000E+00
      25     1     1     2     0     0 -2.001714124E+02 -1.276203477E+01 -7.544163997E+02  7.905697743E+02  1.250000000E+02  0.00000E+00  9.000E+00
      21     1     1     2   501   512  1.299452027E+02  4.596377175E+01  7.324764618E+02  7.453322690E+02  1.078959322E-05  0.00000E+00  9.000E+00
#rwgt            1           1   3.0077747358934769E-002           9      281426           0
</event>
<event>
      5   9999  3.19816E-02  1.07545E+02 -1.00000E+00  1.22424E-01
      -3    -1     0     0     0   501  0.000000000E+00  0.000000000E+00  8.601586215E+02  8.601586215E+02  0.000000000E+00  0.00000E+00  9.000E+00
      21    -1     0     0   501   502  0.000000000E+00  0.000000000E+00 -1.894311008E+02  1.894311008E+02  0.000000000E+00  0.00000E+00  9.000E+00
      25     1     1     2     0     0  1.684718594E+02  3.432545944E+01 -3.204107827E+01  2.149712429E+02  1.250000000E+02  0.00000E+00  9.000E+00
      25     1     1     2     0     0 -1.591069307E+02 -1.414615678E+02  6.817014454E+02  7.250298278E+02  1.250000000E+02  0.00000E+00  9.000E+00
      -3     1     1     2     0   502 -9.364928723E+00  1.071361083E+02  2.106715356E+01  1.095886516E+02  2.023048729E-06  0.00000E+00  9.000E+00
#rwgt            1           1   2.7023997623742604E-002           9      281458           0
</event>
<event>
      5   9999  3.19816E-02  3.28589E+02 -1.00000E+00  1.04323E-01
      21    -1     0     0   502   501  0.000000000E+00  0.000000000E+00  8.257582365E+02  8.257582365E+02  0.000000000E+00  0.00000E+00  9.000E+00
      21    -1     0     0   511   502  0.000000000E+00  0.000000000E+00 -2.773178540E+02  2.773178540E+02  0.000000000E+00  0.00000E+00  9.000E+00
      25     1     1     2     0     0 -3.599408220E+02  1.669900179E+02  4.605432607E+02  6.206191718E+02  1.250000000E+02  0.00000E+00  9.000E+00
      25     1     1     2     0     0  6.191773321E+01 -2.859527452E+01  3.150206354E-01  1.423959081E+02  1.250000000E+02  0.00000E+00  9.000E+00
      21     1     1     2   511   501  2.980230888E+02 -1.383947434E+02  8.758210113E+01  3.400610106E+02  6.397441800E-06  0.00000E+00  9.000E+00
#rwgt            1           1   2.5474402131960380E-002           9      281505           0
</event>
<event>
      5   9999  3.19816E-02  2.90510E+01 -1.00000E+00  1.54016E-01
      21    -1     0     0   502   512  0.000000000E+00  0.000000000E+00  5.878900050E+02  5.878900050E+02  0.000000000E+00  0.00000E+00  9.000E+00
      21    -1     0     0   501   502  0.000000000E+00  0.000000000E+00 -3.717042694E+02  3.717042694E+02  0.000000000E+00  0.00000E+00  9.000E+00
      25     1     1     2     0     0 -1.359783929E+02 -1.368876666E+02  3.537061589E+02  4.218547184E+02  1.250000000E+02  0.00000E+00  9.000E+00
      25     1     1     2     0     0  1.123175898E+02  1.200316314E+02 -3.046807403E+02  3.680736163E+02  1.250000000E+02  0.00000E+00  9.000E+00
      21     1     1     2   501   512  2.366080308E+01  1.685603514E+01  1.671603169E+02  1.696659397E+02  2.697398305E-06  0.00000E+00  9.000E+00
#rwgt            1           1   2.5900744073630858E-002           9      281549           0
</event>
<event>
      5   9999  3.19816E-02  7.85993E+01 -1.00000E+00  1.28722E-01
      21    -1     0     0   511   501  0.000000000E+00  0.000000000E+00  2.086489344E+02  2.086489344E+02  0.000000000E+00  0.00000E+00  9.000E+00
      21    -1     0     0   501   502  0.000000000E+00  0.000000000E+00 -1.313267364E+03  1.313267364E+03  0.000000000E+00  0.00000E+00  9.000E+00
      25     1     1     2     0     0 -3.852577978E+02 -5.434361952E+01 -5.935826972E+02  7.206540211E+02  1.250000000E+02  0.00000E+00  9.000E+00
      25     1     1     2     0     0  3.533262377E+02 -1.747712005E+01 -5.839210294E+02  6.940703485E+02  1.250000000E+02  0.00000E+00  9.000E+00
      21     1     1     2   511   502  3.193156009E+01  7.182073958E+01  7.288529678E+01  1.071919290E+02  3.015782986E-06  0.00000E+00  9.000E+00
#rwgt            1           1   2.6542394763000514E-002           9      281695           0
</event>
<event>
      5   9999  3.19816E-02  1.96639E+01 -1.00000E+00  1.66979E-01
      21    -1     0     0   502   501  0.000000000E+00  0.000000000E+00  5.490718861E+02  5.490718861E+02  0.000000000E+00  0.00000E+00  9.000E+00
      21    -1     0     0   512   502  0.000000000E+00  0.000000000E+00 -2.502747405E+02  2.502747405E+02  0.000000000E+00  0.00000E+00  9.000E+00
      25     1     1     2     0     0 -6.276759865E+01 -7.195589957E+01 -3.173644714E+01  1.604668969E+02  1.250000000E+02  0.00000E+00  9.000E+00
      25     1     1     2     0     0  7.597232908E+01  8.652649899E+01  4.690936407E+02  4.989313315E+02  1.250000000E+02  0.00000E+00  9.000E+00
      21     1     1     2   512   501 -1.320473042E+01 -1.457059941E+01 -1.385600479E+02  1.399483982E+02  2.697398305E-06  0.00000E+00  9.000E+00
#rwgt            1           1   2.8491717351409769E-002           9      281791           0
</event>
<event>
      5   9999  3.19816E-02  8.42719E+00 -1.00000E+00  2.04760E-01
      21    -1     0     0   502   501  0.000000000E+00  0.000000000E+00  1.454130994E+03  1.454130994E+03  0.000000000E+00  0.00000E+00  9.000E+00
      21    -1     0     0   501   511  0.000000000E+00  0.000000000E+00 -2.511923716E+02  2.511923716E+02  0.000000000E+00  0.00000E+00  9.000E+00
      25     1     1     2     0     0  4.045830064E+02  4.180657066E+02  6.287764619E+02  8.657084862E+02  1.250000000E+02  0.00000E+00  9.000E+00
      25     1     1     2     0     0 -4.041337820E+02 -4.264809162E+02  5.744805408E+02  8.311816754E+02  1.250000000E+02  0.00000E+00  9.000E+00
      21     1     1     2   502   511 -4.492243172E-01  8.415209631E+00 -3.183808258E-01  8.433203541E+00  1.645043654E-07  0.00000E+00  9.000E+00
#rwgt            1           1   3.1667205069584585E-002           9      281960           0
</event>
<event>
      5   9999  3.19816E-02  2.53124E+01 -1.00000E+00  1.58348E-01
      21    -1     0     0   502   501  0.000000000E+00  0.000000000E+00  3.433727274E+02  3.433727274E+02  0.000000000E+00  0.00000E+00  9.000E+00
      21    -1     0     0   512   502  0.000000000E+00  0.000000000E+00 -4.031075799E+02  4.031075799E+02  0.000000000E+00  0.00000E+00  9.000E+00
      25     1     1     2     0     0 -2.778984344E+02 -7.509271744E+01 -1.136114229E+02  3.337649045E+02  1.250000000E+02  0.00000E+00  9.000E+00
      25     1     1     2     0     0  3.029124996E+02  7.121792533E+01  1.085461776E+02  3.524702087E+02  1.250000000E+02  0.00000E+00  9.000E+00
      21     1     1     2   512   501 -2.501406521E+01  3.874792112E+00 -5.466960712E+01  6.024519412E+01  6.743495762E-07  0.00000E+00  9.000E+00
#rwgt            1           1   3.0120040705542181E-002           9      282464           0
</event>
<event>
      5   9999  3.19816E-02  1.60951E+02 -1.00000E+00  1.15194E-01
      21    -1     0     0   511   501  0.000000000E+00  0.000000000E+00  1.267496898E+03  1.267496898E+03  0.000000000E+00  0.00000E+00  9.000E+00
      21    -1     0     0   501   502  0.000000000E+00  0.000000000E+00 -9.535655881E+02  9.535655881E+02  0.000000000E+00  0.00000E+00  9.000E+00
      25     1     1     2     0     0  4.293112713E+02  8.571214886E+01 -5.015060052E+02  6.773389206E+02  1.250000000E+02  0.00000E+00  9.000E+00
      25     1     1     2     0     0 -5.830426790E+02 -3.804696922E+01 -1.072930496E+02  6.070610644E+02  1.250000000E+02  0.00000E+00  9.000E+00
      21     1     1     2   511   502  1.537314077E+02 -4.766517964E+01  9.227303648E+02  9.366625012E+02  1.078959322E-05  0.00000E+00  9.000E+00
#rwgt            1           1   2.8168417427656075E-002           9      282590           0
</event>
<event>
      5   9999  3.19816E-02  2.23766E+02 -1.00000E+00  1.09901E-01
      -2    -1     0     0     0   501  0.000000000E+00  0.000000000E+00  1.047026031E+03  1.047026031E+03  0.000000000E+00  0.00000E+00  9.000E+00
      21    -1     0     0   501   502  0.000000000E+00  0.000000000E+00 -9.268851135E+02  9.268851135E+02  0.000000000E+00  0.00000E+00  9.000E+00
      25     1     1     2     0     0  7.644978487E+01 -2.060746512E+02 -7.316301230E+02  7.740923513E+02  1.250000000E+02  0.00000E+00  9.000E+00
      25     1     1     2     0     0  1.388880713E+02  1.452405346E+02 -7.354750701E+01  2.478284589E+02  1.250000000E+02  0.00000E+00  9.000E+00
      -2     1     1     2     0   502 -2.153378562E+02  6.083411659E+01  9.253185472E+02  9.519903339E+02  0.000000000E+00  0.00000E+00  9.000E+00
#rwgt            1           1   2.3849633265112340E-002           9      282691           0
</event>
<event>
      5   9999  3.19816E-02  4.17425E+01 -1.00000E+00  1.43701E-01
      21    -1     0     0   511   501  0.000000000E+00  0.000000000E+00  1.994239172E+02  1.994239172E+02  0.000000000E+00  0.00000E+00  9.000E+00
      21    -1     0     0   501   502  0.000000000E+00  0.000000000E+00 -3.004886421E+02  3.004886421E+02  0.000000000E+00  0.00000E+00  9.000E+00
      25     1     1     2     0     0 -1.957673686E+02  3.734966328E+01 -1.621798276E+01  2.358132374E+02  1.250000000E+02  0.00000E+00  9.000E+00
      25     1     1     2     0     0  1.562529987E+02 -5.080526080E+01 -8.239822181E+01  2.222850447E+02  1.250000000E+02  0.00000E+00  9.000E+00
      21     1     1     2   511   502  3.951436989E+01  1.345559753E+01 -2.448520380E+00  4.181427728E+01  3.195943026E-07  0.00000E+00  9.000E+00
#rwgt            1           1   2.5992735378472138E-002           9      282749           0
</event>
<event>
      5   9999  3.19816E-02  3.61119E+02 -1.00000E+00  1.03040E-01
      21    -1     0     0   502   501  0.000000000E+00  0.000000000E+00  3.786068350E+02  3.786068350E+02  0.000000000E+00  0.00000E+00  9.000E+00
       2    -1     0     0   501     0  0.000000000E+00  0.000000000E+00 -3.438196951E+03  3.438196951E+03  0.000000000E+00  0.00000E+00  9.000E+00
      25     1     1     2     0     0  7.801735586E+02 -6.613794283E+02 -2.336926271E+03  2.554005271E+03  1.250000000E+02  0.00000E+00  9.000E+00
      25     1     1     2     0     0 -5.110776883E+02  4.205589610E+02 -4.453417368E+02  8.074803438E+02  1.250000000E+02  0.00000E+00  9.000E+00
       2     1     1     2   502     0 -2.690958703E+02  2.408204674E+02 -2.773221080E+02  4.553181707E+02  5.394796609E-06  0.00000E+00  9.000E+00
#rwgt            1           1   1.9907384316192583E-002           9      282837           0
</event>
<event>
      5   9999  3.19816E-02  8.24997E+01 -1.00000E+00  1.27706E-01
      21    -1     0     0   502   501  0.000000000E+00  0.000000000E+00  2.455289783E+03  2.455289783E+03  0.000000000E+00  0.00000E+00  9.000E+00
      21    -1     0     0   511   502  0.000000000E+00  0.000000000E+00 -1.159291846E+02  1.159291846E+02  0.000000000E+00  0.00000E+00  9.000E+00
      25     1     1     2     0     0 -2.149604569E+02 -3.573327133E+02  8.149979971E+02  9.239812776E+02  1.250000000E+02  0.00000E+00  9.000E+00
      25     1     1     2     0     0  2.736244390E+02  4.153390586E+02  1.442772809E+03  1.531207120E+03  1.250000000E+02  0.00000E+00  9.000E+00
      21     1     1     2   511   501 -5.866398206E+01 -5.800634533E+01  8.158979250E+01  1.160305698E+02  1.651812370E-06  0.00000E+00  9.000E+00
#rwgt            1           1   2.2093219909692451E-002           9      282882           0
</event>
<event>
      5   9999  3.19816E-02  1.41672E+01 -1.00000E+00  1.79753E-01
      21    -1     0     0   512   501  0.000000000E+00  0.000000000E+00  3.913740902E+02  3.913740902E+02  0.000000000E+00  0.00000E+00  9.000E+00
      21    -1     0     0   501   502  0.000000000E+00  0.000000000E+00 -1.136626124E+03  1.136626124E+03  0.000000000E+00  0.00000E+00  9.000E+00
      25     1     1     2     0     0  3.711752617E+02  1.888185151E+02 -9.347740506E+02  1.030946668E+03  1.250000000E+02  0.00000E+00  9.000E+00
      25     1     1     2     0     0 -3.761921159E+02 -2.020676696E+02  1.870882474E+02  4.826788409E+02  1.250000000E+02  0.00000E+00  9.000E+00
      21     1     1     2   512   502  5.016854120E+00  1.324915449E+01  2.433769411E+00  1.437470533E+01  1.632340424E-07  0.00000E+00  9.000E+00
#rwgt            1           1   3.0240981411119132E-002           9      282969           0
</event>
<event>
      5   9999  3.19816E-02  7.13673E+01 -1.00000E+00  1.30797E-01
      21    -1     0     0   511   501  0.000000000E+00  0.000000000E+00  1.224159260E+03  1.224159260E+03  0.000000000E+00  0.00000E+00  9.000E+00
      21    -1     0     0   501   502  0.000000000E+00  0.000000000E+00 -3.728234271E+02  3.728234271E+02  0.000000000E+00  0.00000E+00  9.000E+00
      25     1     1     2     0     0  3.780513623E+02  3.482922515E+02 -4.402400360E+01  5.308421968E+02  1.250000000E+02  0.00000E+00  9.000E+00
      25     1     1     2     0     0 -3.081423014E+02 -3.626456394E+02  8.482692123E+02  9.806371368E+02  1.250000000E+02  0.00000E+00  9.000E+00
      21     1     1     2   511   502 -6.990906095E+01  1.435338791E+01  4.709062404E+01  8.550335327E+01  1.348699152E-06  0.00000E+00  9.000E+00
#rwgt            1           1   1.2071506017399944E-002           9      283263           0
</event>
<event>
      5   9999  3.19816E-02  1.36594E+02 -1.00000E+00  1.18028E-01
      21    -1     0     0   512   501  0.000000000E+00  0.000000000E+00  2.043108612E+03  2.043108612E+03  0.000000000E+00  0.00000E+00  9.000E+00
      21    -1     0     0   501   502  0.000000000E+00  0.000000000E+00 -1.059064185E+03  1.059064185E+03  0.000000000E+00  0.00000E+00  9.000E+00
      25     1     1     2     0     0  9.695204054E+00  1.458365202E+03  4.139484266E+02  1.521151327E+03  1.250000000E+02  0.00000E+00  9.000E+00
      25     1     1     2     0     0 -5.259450489E+00 -1.321843563E+03  4.586633143E+02  1.404740226E+03  1.250000000E+02  0.00000E+00  9.000E+00
      21     1     1     2   512   502 -4.435753565E+00 -1.365216388E+02  1.114326864E+02  1.762812451E+02  0.000000000E+00  0.00000E+00  9.000E+00
#rwgt            1           1   4.8496338413941985E-002           9      283397           0
</event>
<event>
      5   9999  3.19816E-02  8.86658E+01 -1.00000E+00  1.26224E-01
      21    -1     0     0   511   501  0.000000000E+00  0.000000000E+00  4.502614668E+02  4.502614668E+02  0.000000000E+00  0.00000E+00  9.000E+00
      21    -1     0     0   501   502  0.000000000E+00  0.000000000E+00 -4.307078653E+02  4.307078653E+02  0.000000000E+00  0.00000E+00  9.000E+00
      25     1     1     2     0     0  2.396882857E+01 -3.924898486E+02 -9.431771737E+01  4.232536093E+02  1.250000000E+02  0.00000E+00  9.000E+00
      25     1     1     2     0     0 -6.757610775E+01  3.152885889E+02  5.228602442E+01  3.497602793E+02  1.250000000E+02  0.00000E+00  9.000E+00
      21     1     1     2   511   502  4.360727918E+01  7.720125970E+01  6.158529444E+01  1.079554435E+02  1.784161275E-06  0.00000E+00  9.000E+00
#rwgt            1           1   2.8165294228457063E-002           9      283483           0
</event>
<event>
      5   9999  3.19816E-02  2.22226E+01 -1.00000E+00  1.62680E-01
      21    -1     0     0   502   501  0.000000000E+00  0.000000000E+00  1.327903223E+02  1.327903223E+02  0.000000000E+00  0.00000E+00  9.000E+00
       2    -1     0     0   501     0  0.000000000E+00  0.000000000E+00 -1.613473569E+03  1.613473569E+03  0.000000000E+00  0.00000E+00  9.000E+00
      25     1     1     2     0     0  3.588540810E+01  1.038360241E+02 -1.579196920E+02  2.294195100E+02  1.250000000E+02  0.00000E+00  9.000E+00
      25     1     1     2     0     0 -1.413180994E+01 -9.929476581E+01  3.071823340E+01  1.631801717E+02  1.250000000E+02  0.00000E+00  9.000E+00
       2     1     1     2   502     0 -2.175359816E+01 -4.541258316E+00 -1.353481788E+03  1.353664209E+03  0.000000000E+00  0.00000E+00  9.000E+00
#rwgt            1           1   2.6402717273687901E-002           9      283587           0
</event>
<event>
      5   9999  3.19816E-02  1.18080E+01 -1.00000E+00  1.87768E-01
      21    -1     0     0   511   501  0.000000000E+00  0.000000000E+00  2.982082307E+02  2.982082307E+02  0.000000000E+00  0.00000E+00  9.000E+00
      21    -1     0     0   501   502  0.000000000E+00  0.000000000E+00 -1.542317459E+03  1.542317459E+03  0.000000000E+00  0.00000E+00  9.000E+00
      25     1     1     2     0     0 -1.033318840E+02 -1.360076328E+02 -1.059243073E+02  2.366865296E+02  1.250000000E+02  0.00000E+00  9.000E+00
      25     1     1     2     0     0  9.213214131E+01  1.322668021E+02 -1.363269362E+03  1.378445208E+03  1.250000000E+02  0.00000E+00  9.000E+00
      21     1     1     2   511   502  1.119974270E+01  3.740830645E+00  2.250844410E+02  2.253939520E+02  5.394796609E-06  0.00000E+00  9.000E+00
#rwgt            1           1   2.7541908317412853E-002           9      283678           0
</event>
<event>
      5   9999  3.19816E-02  1.36310E+02 -1.00000E+00  1.18065E-01
      21    -1     0     0   512   501  0.000000000E+00  0.000000000E+00  7.160202744E+02  7.160202744E+02  0.000000000E+00  0.00000E+00  9.000E+00
      21    -1     0     0   501   502  0.000000000E+00  0.000000000E+00 -2.921693208E+02  2.921693208E+02  0.000000000E+00  0.00000E+00  9.000E+00
      25     1     1     2     0     0 -1.790999803E+02 -3.379050136E+02 -1.099947402E+01  4.024954529E+02  1.250000000E+02  0.00000E+00  9.000E+00
      25     1     1     2     0     0  1.203495138E+02  2.149056170E+02  2.289593949E+02  3.587698903E+02  1.250000000E+02  0.00000E+00  9.000E+00
      21     1     1     2   512   502  5.875046644E+01  1.229993966E+02  2.058910328E+02  2.469242520E+02  2.697398305E-06  0.00000E+00  9.000E+00
#rwgt            1           1   2.6186853001347574E-002           9      283835           0
</event>
<event>
      5   9999  3.19816E-02  2.87842E+01 -1.00000E+00  1.54298E-01
      21    -1     0     0   502   501  0.000000000E+00  0.000000000E+00  3.097983733E+02  3.097983733E+02  0.000000000E+00  0.00000E+00  9.000E+00
      -5    -1     0     0     0   502  0.000000000E+00  0.000000000E+00 -2.360933846E+02  2.360933846E+02  0.000000000E+00  0.00000E+00  9.000E+00
      25     1     1     2     0     0 -1.155365501E+02 -2.187406846E+01  2.122771618E+02  2.729720915E+02  1.250000000E+02  0.00000E+00  9.000E+00
      25     1     1     2     0     0  1.297380959E+02 -3.162811514E+00 -6.108448709E+01  1.902584860E+02  1.250000000E+02  0.00000E+00  9.000E+00
      -5     1     1     2     0   501 -1.420154582E+01  2.503687998E+01 -7.748768611E+01  8.266118049E+01  9.536743164E-07  0.00000E+00  9.000E+00
#rwgt            1           1   2.2449199643414307E-002           9      283901           0
</event>
<event>
      5   9999  3.19816E-02  9.63893E+01 -1.00000E+00  1.24551E-01
      21    -1     0     0   502   501  0.000000000E+00  0.000000000E+00  1.110945652E+02  1.110945652E+02  0.000000000E+00  0.00000E+00  9.000E+00
       2    -1     0     0   501     0  0.000000000E+00  0.000000000E+00 -2.275976084E+03  2.275976084E+03  0.000000000E+00  0.00000E+00  9.000E+00
      25     1     1     2     0     0  6.342690752E+01  2.625001215E+02 -1.604152206E+02  3.380640906E+02  1.250000000E+02  0.00000E+00  9.000E+00
      25     1     1     2     0     0 -1.517934893E+02 -2.240000772E+02 -1.779055372E+03  1.803851522E+03  1.250000000E+02  0.00000E+00  9.000E+00
       2     1     1     2   502     0  8.836658175E+01 -3.850004428E+01 -2.254109266E+02  2.451550367E+02  3.814697266E-06  0.00000E+00  9.000E+00
#rwgt            1           1   3.5419983455778584E-002           9      284052           0
</event>
<event>
      5   9999  3.19816E-02  8.08482E+01 -1.00000E+00  1.28128E-01
      21    -1     0     0   502   511  0.000000000E+00  0.000000000E+00  1.726719265E+02  1.726719265E+02  0.000000000E+00  0.00000E+00  9.000E+00
      21    -1     0     0   501   502  0.000000000E+00  0.000000000E+00 -6.918904692E+02  6.918904692E+02  0.000000000E+00  0.00000E+00  9.000E+00
      25     1     1     2     0     0 -2.231682770E+02 -8.641725497E+01 -1.637888355E+02  3.157907605E+02  1.250000000E+02  0.00000E+00  9.000E+00
      25     1     1     2     0     0  2.721956785E+02  1.507037125E+02 -3.064432753E+02  4.542406601E+02  1.250000000E+02  0.00000E+00  9.000E+00
      21     1     1     2   501   511 -4.902740152E+01 -6.428645753E+01 -4.898643196E+01  9.453097502E+01  1.168007728E-06  0.00000E+00  9.000E+00
#rwgt            1           1   3.0618387345738105E-002           9      284122           0
</event>
<event>
      5   9999  3.19816E-02  2.14947E+02 -1.00000E+00  1.10520E-01
      21    -1     0     0   502   512  0.000000000E+00  0.000000000E+00  5.453008509E+02  5.453008509E+02  0.000000000E+00  0.00000E+00  9.000E+00
      21    -1     0     0   501   502  0.000000000E+00  0.000000000E+00 -6.157500142E+02  6.157500142E+02  0.000000000E+00  0.00000E+00  9.000E+00
      25     1     1     2     0     0 -2.024552201E+02  2.891115875E+01 -4.106479384E+02  4.754794428E+02  1.250000000E+02  0.00000E+00  9.000E+00
      25     1     1     2     0     0 -6.027418182E+00  2.340903553E+01 -1.216890801E+02  1.761179858E+02  1.250000000E+02  0.00000E+00  9.000E+00
      21     1     1     2   501   512  2.084826383E+02 -5.232019428E+01  4.618878552E+02  5.094534365E+02  7.629394531E-06  0.00000E+00  9.000E+00
#rwgt            1           1   6.4342718843909033E-002           9      284172           0
</event>
<event>
      5   9999  3.19816E-02  1.93863E+01 -1.00000E+00  1.67494E-01
      21    -1     0     0   511   501  0.000000000E+00  0.000000000E+00  1.664137550E+03  1.664137550E+03  0.000000000E+00  0.00000E+00  9.000E+00
      21    -1     0     0   501   502  0.000000000E+00  0.000000000E+00 -4.358788450E+02  4.358788450E+02  0.000000000E+00  0.00000E+00  9.000E+00
      25     1     1     2     0     0 -2.745781700E+02 -6.098702900E+00 -3.635021942E+02  4.724290537E+02  1.250000000E+02  0.00000E+00  9.000E+00
      25     1     1     2     0     0  2.934288215E+02  1.572970113E+00  1.462001912E+03  1.496388164E+03  1.250000000E+02  0.00000E+00  9.000E+00
      21     1     1     2   511   502 -1.885065146E+01  4.525732788E+00  1.297589874E+02  1.311991773E+02  1.907348633E-06  0.00000E+00  9.000E+00
#rwgt            1           1   2.7801141457094232E-002           9      284212           0
</event>
<event>
      5   9999  3.19816E-02  9.99367E+01 -1.00000E+00  1.23840E-01
      21    -1     0     0   502   501  0.000000000E+00  0.000000000E+00  9.295862930E+02  9.295862930E+02  0.000000000E+00  0.00000E+00  9.000E+00
      21    -1     0     0   501   512  0.000000000E+00  0.000000000E+00 -1.017584938E+02  1.017584938E+02  0.000000000E+00  0.00000E+00  9.000E+00
      25     1     1     2     0     0  9.255167648E+01  1.637640221E+02  2.369215170E+02  3.273244155E+02  1.250000000E+02  0.00000E+00  9.000E+00
      25     1     1     2     0     0 -1.622989180E+02 -9.219119168E+01  5.534342495E+02  5.972893965E+02  1.250000000E+02  0.00000E+00  9.000E+00
      21     1     1     2   502   512  6.974724153E+01 -7.157283043E+01  3.747203274E+01  1.067309749E+02  1.261592536E-06  0.00000E+00  9.000E+00
#rwgt            1           1   2.8440002364171268E-002           9      284392           0
</event>
<event>
      5   9999  3.19816E-02  1.61922E+02 -1.00000E+00  1.15092E-01
      21    -1     0     0   502   501  0.000000000E+00  0.000000000E+00  2.377531385E+03  2.377531385E+03  0.000000000E+00  0.00000E+00  9.000E+00
      21    -1     0     0   511   502  0.000000000E+00  0.000000000E+00 -2.817404008E+03  2.817404008E+03  0.000000000E+00  0.00000E+00  9.000E+00
      25     1     1     2     0     0 -1.428495337E+03 -4.546903515E+02 -1.026123805E+03  1.820960545E+03  1.250000000E+02  0.00000E+00  9.000E+00
      25     1     1     2     0     0  1.499580481E+03  3.092063632E+02  1.675263865E+03  2.272990147E+03  1.250000000E+02  0.00000E+00  9.000E+00
      21     1     1     2   511   501 -7.108514424E+01  1.454839882E+02 -1.089012682E+03  1.100984701E+03  0.000000000E+00  0.00000E+00  9.000E+00
#rwgt            1           1   6.4461413611127593E-003           9      284450           0
</event>
<event>
      5   9999  3.19816E-02  8.74350E+01 -1.00000E+00  1.26509E-01
       2    -1     0     0   502     0  0.000000000E+00  0.000000000E+00  9.438033806E+02  9.438033806E+02  0.000000000E+00  0.00000E+00  9.000E+00
      21    -1     0     0   501   502  0.000000000E+00  0.000000000E+00 -1.480650818E+02  1.480650818E+02  0.000000000E+00  0.00000E+00  9.000E+00
      25     1     1     2     0     0  4.121419753E+01  3.215250937E+02  2.934495272E+02  4.547687555E+02  1.250000000E+02  0.00000E+00  9.000E+00
      25     1     1     2     0     0 -9.549281324E+01 -2.529779504E+02  4.328137674E+02  5.254231418E+02  1.250000000E+02  0.00000E+00  9.000E+00
       2     1     1     2   501     0  5.427861571E+01 -6.854714338E+01  6.947500425E+01  1.116765652E+02  0.000000000E+00  0.00000E+00  9.000E+00
#rwgt            1           1   2.6522868636891558E-002           9      284545           0
</event>
<event>
      5   9999  3.19816E-02  1.53667E+02 -1.00000E+00  1.15979E-01
      21    -1     0     0   502   501  0.000000000E+00  0.000000000E+00  2.727004441E+02  2.727004441E+02  0.000000000E+00  0.00000E+00  9.000E+00
      21    -1     0     0   501   511  0.000000000E+00  0.000000000E+00 -4.879370904E+02  4.879370904E+02  0.000000000E+00  0.00000E+00  9.000E+00
      25     1     1     2     0     0 -5.018924673E+01 -1.306998139E+02 -3.058835815E+02  3.588748630E+02  1.250000000E+02  0.00000E+00  9.000E+00
      25     1     1     2     0     0 -7.602986225E+01  4.305070104E+01  1.703593582E+02  2.286508555E+02  1.250000000E+02  0.00000E+00  9.000E+00
      21     1     1     2   502   511  1.262191090E+02  8.764911287E+01 -7.971242293E+01  1.731118160E+02  1.651812370E-06  0.00000E+00  9.000E+00
#rwgt            1           1   2.5624644164652138E-002           9      284647           0
</event>
<event>
      5   9999  3.19816E-02  8.90935E+02 -1.00000E+00  9.22115E-02
      21    -1     0     0   502   501  0.000000000E+00  0.000000000E+00  7.473395784E+02  7.473395784E+02  0.000000000E+00  0.00000E+00  9.000E+00
       2    -1     0     0   501     0  0.000000000E+00  0.000000000E+00 -1.357014345E+03  1.357014345E+03  0.000000000E+00  0.00000E+00  9.000E+00
      25     1     1     2     0     0  1.406040709E+02 -8.064387186E+02 -6.351121598E+02  1.043602111E+03  1.250000000E+02  0.00000E+00  9.000E+00
      25     1     1     2     0     0 -6.688281472E+01 -8.144056192E+01  4.509352963E+01  1.696004199E+02  1.250000000E+02  0.00000E+00  9.000E+00
       2     1     1     2   502     0 -7.372125620E+01  8.878792805E+02 -1.965613671E+01  8.911513923E+02  1.875492138E-05  0.00000E+00  9.000E+00
#rwgt            2          13   5.9279426436631020E-004           9      284706           0
</event>
<event>
      5   9999  3.19816E-02  1.30173E+01 -1.00000E+00  1.83387E-01
      21    -1     0     0   511   501  0.000000000E+00  0.000000000E+00  7.895991692E+02  7.895991692E+02  0.000000000E+00  0.00000E+00  9.000E+00
      21    -1     0     0   501   502  0.000000000E+00  0.000000000E+00 -6.206966555E+01  6.206966555E+01  0.000000000E+00  0.00000E+00  9.000E+00
      25     1     1     2     0     0  1.377356925E+02  9.204455937E+01  4.329452963E+02  4.801145191E+02  1.250000000E+02  0.00000E+00  9.000E+00
      25     1     1     2     0     0 -1.393918128E+02 -7.913303285E+01  2.356708325E+02  3.112199474E+02  1.250000000E+02  0.00000E+00  9.000E+00
      21     1     1     2   511   502  1.656120206E+00 -1.291152653E+01  5.891337486E+01  6.033436822E+01  6.743495762E-07  0.00000E+00  9.000E+00
#rwgt            1           1   3.2448369224959805E-002           9      284740           0
</event>
<event>
      5   9999  3.19816E-02  3.63986E+01 -1.00000E+00  1.47428E-01
      21    -1     0     0   502   501  0.000000000E+00  0.000000000E+00  2.141566728E+02  2.141566728E+02  0.000000000E+00  0.00000E+00  9.000E+00
      21    -1     0     0   501   512  0.000000000E+00  0.000000000E+00 -1.764685008E+03  1.764685008E+03  0.000000000E+00  0.00000E+00  9.000E+00
      25     1     1     2     0     0 -2.418626468E+01  5.119843909E+02 -3.546340908E+02  6.356912224E+02  1.250000000E+02  0.00000E+00  9.000E+00
      25     1     1     2     0     0  5.824187613E+01 -5.248324261E+02 -9.457439000E+02  1.090365863E+03  1.250000000E+02  0.00000E+00  9.000E+00
      21     1     1     2   502   512 -3.405561145E+01  1.284803517E+01 -2.501503446E+02  2.527845953E+02  3.814697266E-06  0.00000E+00  9.000E+00
#rwgt            1           1   2.7932560074896976E-002           9      284862           0
</event>
<event>
      5   9999  3.19816E-02  8.40547E+01 -1.00000E+00  1.27319E-01
      21    -1     0     0   502   501  0.000000000E+00  0.000000000E+00  9.615545803E+02  9.615545803E+02  0.000000000E+00  0.00000E+00  9.000E+00
      21    -1     0     0   501   511  0.000000000E+00  0.000000000E+00 -7.934304346E+02  7.934304346E+02  0.000000000E+00  0.00000E+00  9.000E+00
      25     1     1     2     0     0  2.139592859E+02  4.006352365E+02  7.543234585E+02  8.893346102E+02  1.250000000E+02  0.00000E+00  9.000E+00
      25     1     1     2     0     0 -2.173464179E+02 -4.846216146E+02 -4.581471424E+02  7.124755286E+02  1.250000000E+02  0.00000E+00  9.000E+00
      21     1     1     2   502   511  3.387132005E+00  8.398637810E+01 -1.280521704E+02  1.531748763E+02  2.697398305E-06  0.00000E+00  9.000E+00
#rwgt            1           1   3.0563293750396507E-002           9      285081           0
</event>
<event>
      5   9999  3.19816E-02  6.52987E+01 -1.00000E+00  1.32768E-01
      21    -1     0     0   502   512  0.000000000E+00  0.000000000E+00  7.339908272E+01  7.339908272E+01  0.000000000E+00  0.00000E+00  9.000E+00
      21    -1     0     0   501   502  0.000000000E+00  0.000000000E+00 -3.296281978E+03  3.296281978E+03  0.000000000E+00  0.00000E+00  9.000E+00
      25     1     1     2     0     0 -2.164016005E+02  1.233378260E+02 -2.697677442E+03  2.712034375E+03  1.250000000E+02  0.00000E+00  9.000E+00
      25     1     1     2     0     0  2.141586635E+02 -1.885979873E+02 -3.394264735E+02  4.607260193E+02  1.250000000E+02  0.00000E+00  9.000E+00
      21     1     1     2   501   512  2.242937024E+00  6.526016122E+01 -1.857789802E+02  1.969206665E+02  2.697398305E-06  0.00000E+00  9.000E+00
#rwgt            1           1   4.8050904120428811E-002           9      285156           0
</event>
<event>
      5   9999  3.19816E-02  1.78916E+02 -1.00000E+00  1.13438E-01
      21    -1     0     0   502   501  0.000000000E+00  0.000000000E+00  1.749485360E+02  1.749485360E+02  0.000000000E+00  0.00000E+00  9.000E+00
       2    -1     0     0   501     0  0.000000000E+00  0.000000000E+00 -1.682172162E+03  1.682172162E+03  0.000000000E+00  0.00000E+00  9.000E+00
      25     1     1     2     0     0 -6.826960356E+01  3.212147770E+02 -6.013826270E+02  6.965096810E+02  1.250000000E+02  0.00000E+00  9.000E+00
      25     1     1     2     0     0 -1.100669250E+02 -3.068206816E+02 -1.433265168E+02  3.773872667E+02  1.250000000E+02  0.00000E+00  9.000E+00
       2     1     1     2   502     0  1.783365286E+02 -1.439409532E+01 -7.625144825E+02  7.832237505E+02  0.000000000E+00  0.00000E+00  9.000E+00
#rwgt            2          13   1.1494598890512352E-003           9      285253           0
</event>
<event>
      5   9999  3.19816E-02  1.15857E+01 -1.00000E+00  1.88647E-01
      21    -1     0     0   502   501  0.000000000E+00  0.000000000E+00  1.294541751E+02  1.294541751E+02  0.000000000E+00  0.00000E+00  9.000E+00
      21    -1     0     0   511   502  0.000000000E+00  0.000000000E+00 -3.582664425E+02  3.582664425E+02  0.000000000E+00  0.00000E+00  9.000E+00
      25     1     1     2     0     0  1.556361530E+02 -6.630630904E-01 -5.296526577E+01  2.065269260E+02  1.250000000E+02  0.00000E+00  9.000E+00
      25     1     1     2     0     0 -1.446935026E+02  4.469247916E+00 -1.237068202E+02  2.277818281E+02  1.250000000E+02  0.00000E+00  9.000E+00
      21     1     1     2   511   501 -1.094265043E+01 -3.806184826E+00 -5.214018146E+01  5.341186351E+01  6.743495762E-07  0.00000E+00  9.000E+00
#rwgt            1           1   2.5855961056361187E-002           9      285302           0
</event>
<event>
      5   9999  3.19816E-02  1.49634E+02 -1.00000E+00  1.16436E-01
      21    -1     0     0   502   501  0.000000000E+00  0.000000000E+00  1.534113430E+02  1.534113430E+02  0.000000000E+00  0.00000E+00  9.000E+00
       1    -1     0     0   501     0  0.000000000E+00  0.000000000E+00 -1.198075612E+03  1.198075612E+03  0.000000000E+00  0.00000E+00  9.000E+00
      25     1     1     2     0     0 -1.223952645E+02 -1.672492016E+02 -1.966057458E+02  3.118200049E+02  1.250000000E+02  0.00000E+00  9.000E+00
      25     1     1     2     0     0  2.720064864E+02  1.646460528E+02 -2.504520985E+02  4.236119746E+02  1.250000000E+02  0.00000E+00  9.000E+00
       1     1     1     2   502     0 -1.496112219E+02  2.603148836E+00 -5.976064243E+02  6.160549752E+02  7.629394531E-06  0.00000E+00  9.000E+00
#rwgt            1           1   2.6893205165084443E-002           9      285434           0
</event>
<event>
      5   9999  3.19816E-02  4.05964E+01 -1.00000E+00  1.44443E-01
      21    -1     0     0   502   501  0.000000000E+00  0.000000000E+00  8.378981922E+02  8.378981922E+02  0.000000000E+00  0.00000E+00  9.000E+00
      21    -1     0     0   511   502  0.000000000E+00  0.000000000E+00 -3.484142166E+02  3.484142166E+02  0.000000000E+00  0.00000E+00  9.000E+00
      25     1     1     2     0     0 -1.842649977E+02  2.814978962E+02  6.727079079E+02  7.624667759E+02  1.250000000E+02  0.00000E+00  9.000E+00
      25     1     1     2     0     0  1.982864706E+02 -2.433998152E+02 -1.437419650E+02  3.672162128E+02  1.250000000E+02  0.00000E+00  9.000E+00
      21     1     1     2   511   501 -1.402147285E+01 -3.809808102E+01 -3.948196728E+01  5.662942008E+01  8.259061849E-07  0.00000E+00  9.000E+00
#rwgt            1           1   3.2281487856535770E-002           9      285487           0
</event>
<event>
      5   9999  3.19816E-02  9.59513E+01 -1.00000E+00  1.24641E-01
       2    -1     0     0   502     0  0.000000000E+00  0.000000000E+00  3.033409031E+02  3.033409031E+02  0.000000000E+00  0.00000E+00  9.000E+00
      21    -1     0     0   501   502  0.000000000E+00  0.000000000E+00 -2.425877614E+03  2.425877614E+03  0.000000000E+00  0.00000E+00  9.000E+00
      25     1     1     2     0     0  7.802108897E+01 -3.207470528E+01 -2.343901705E+03  2.348747811E+03  1.250000000E+02  0.00000E+00  9.000E+00
      25     1     1     2     0     0  1.792608043E+01  3.118941443E+01 -9.540282900E+00  1.304229310E+02  1.250000000E+02  0.00000E+00  9.000E+00
       2     1     1     2   501     0 -9.594716940E+01  8.852908539E-01  2.309052768E+02  2.500477753E+02  1.144409180E-05  0.00000E+00  9.000E+00
#rwgt            1           1   8.0826437723189370E-002           9      285615           0
</event>
<event>
      5   9999  3.19816E-02  2.54334E+02 -1.00000E+00  1.07976E-01
      21    -1     0     0   511   501  0.000000000E+00  0.000000000E+00  4.128913263E+02  4.128913263E+02  0.000000000E+00  0.00000E+00  9.000E+00
      21    -1     0     0   501   502  0.000000000E+00  0.000000000E+00 -1.276164531E+03  1.276164531E+03  0.000000000E+00  0.00000E+00  9.000E+00
      25     1     1     2     0     0 -2.398202280E+02  7.519735121E+00 -1.125200236E+03  1.157268707E+03  1.250000000E+02  0.00000E+00  9.000E+00
      25     1     1     2     0     0 -7.206303676E+00 -6.804839390E+01  2.365920460E+02  2.761943355E+02  1.250000000E+02  0.00000E+00  9.000E+00
      21     1     1     2   511   502  2.470265317E+02  6.052865878E+01  2.533498482E+01  2.555928155E+02  2.360223517E-06  0.00000E+00  9.000E+00
#rwgt            1           1   2.4795751486530664E-002           9      285761           0
</event>
<event>
      5   9999  3.19816E-02  1.15409E+02 -1.00000E+00  1.21092E-01
      21    -1     0     0   502   501  0.000000000E+00  0.000000000E+00  3.906353091E+02  3.906353091E+02  0.000000000E+00  0.00000E+00  9.000E+00
      21    -1     0     0   512   502  0.000000000E+00  0.000000000E+00 -1.564314358E+03  1.564314358E+03  0.000000000E+00  0.00000E+00  9.000E+00
      25     1     1     2     0     0  1.909611145E+02  4.105892812E+02  1.608717955E+02  4.965424852E+02  1.250000000E+02  0.00000E+00  9.000E+00
      25     1     1     2     0     0 -7.890038561E+01 -4.381874736E+02 -1.163788182E+03  1.252302466E+03  1.250000000E+02  0.00000E+00  9.000E+00
      21     1     1     2   512   501 -1.120607289E+02  2.759819237E+01 -1.707626619E+02  2.061047158E+02  0.000000000E+00  0.00000E+00  9.000E+00
#rwgt            1           1   2.8695466363247688E-002           9      285882           0
</event>
<event>
      5   9999  3.19816E-02  8.22089E+01 -1.00000E+00  1.27780E-01
      21    -1     0     0   511   501  0.000000000E+00  0.000000000E+00  7.450675930E+02  7.450675930E+02  0.000000000E+00  0.00000E+00  9.000E+00
      21    -1     0     0   501   502  0.000000000E+00  0.000000000E+00 -1.018610413E+03  1.018610413E+03  0.000000000E+00  0.00000E+00  9.000E+00
      25     1     1     2     0     0 -2.267028382E+02  7.456578818E+02 -4.595469197E+02  9.133500013E+02  1.250000000E+02  0.00000E+00  9.000E+00
      25     1     1     2     0     0  2.160941777E+02 -6.641363177E+02  7.681637095E+01  7.136522241E+02  1.250000000E+02  0.00000E+00  9.000E+00
      21     1     1     2   511   502  1.060866052E+01 -8.152156410E+01  1.091877283E+02  1.366757809E+02  2.697398305E-06  0.00000E+00  9.000E+00
#rwgt            1           1   3.2997549914310344E-002           9      285996           0
</event>
<event>
      5   9999  3.55164E-02  9.93415E+01 -1.00000E+00  1.23957E-01
      21    -1     0     0   502   501  0.000000000E+00  0.000000000E+00  2.052143598E+03  2.052143598E+03  0.000000000E+00  0.00000E+00  9.000E+00
      21    -1     0     0   512   502  0.000000000E+00  0.000000000E+00 -5.166905255E+02  5.166905255E+02  0.000000000E+00  0.00000E+00  9.000E+00
      25     1     1     2     0     0  3.294806342E+01  7.217295087E+01  1.751090709E+03  1.757338380E+03  1.250000000E+02  0.00000E+00  9.000E+00
      25     1     1     2     0     0 -1.083065344E+02 -1.369019392E+02  2.533571072E+02  3.320952726E+02  1.250000000E+02  0.00000E+00  9.000E+00
      21     1     1     2   512   501  7.535847099E+01  6.472898828E+01 -4.689947442E+02  4.794004706E+02  1.078959322E-05  0.00000E+00  9.000E+00
#rwgt            1           1   9.6923018466675545E-002           9      286177           0
</event>
<event>
      5   9999  3.19816E-02  3.93665E+01 -1.00000E+00  1.45271E-01
      21    -1     0     0   502   511  0.000000000E+00  0.000000000E+00  1.654754575E+02  1.654754575E+02  0.000000000E+00  0.00000E+00  9.000E+00
      21    -1     0     0   501   502  0.000000000E+00  0.000000000E+00 -4.622084642E+02  4.622084642E+02  0.000000000E+00  0.00000E+00  9.000E+00
      25     1     1     2     0     0  1.604082086E+02 -6.000569664E+01 -2.154765198E+01  2.131215107E+02  1.250000000E+02  0.00000E+00  9.000E+00
      25     1     1     2     0     0 -1.739415435E+02  9.697284662E+01 -2.892490633E+02  3.727591906E+02  1.250000000E+02  0.00000E+00  9.000E+00
      21     1     1     2   501   511  1.353333490E+01 -3.696714998E+01  1.406370866E+01  4.180322036E+01  6.307962682E-07  0.00000E+00  9.000E+00
#rwgt            1           1   3.1312355329466447E-002           9      286249           0
</event>
<event>
      5   9999  3.19816E-02  1.45658E+01 -1.00000E+00  1.78594E-01
      21    -1     0     0   502   501  0.000000000E+00  0.000000000E+00  2.650807272E+01  2.650807272E+01  0.000000000E+00  0.00000E+00  9.000E+00
      21    -1     0     0   501   512  0.000000000E+00  0.000000000E+00 -1.629041808E+03  1.629041808E+03  0.000000000E+00  0.00000E+00  9.000E+00
      25     1     1     2     0     0 -2.506140228E+01  1.527875343E+02 -6.419216667E+02  6.720569400E+02  1.250000000E+02  0.00000E+00  9.000E+00
      25     1     1     2     0     0  1.337091128E+01 -1.440987393E+02 -8.140606811E+02  8.362194811E+02  1.250000000E+02  0.00000E+00  9.000E+00
      21     1     1     2   502   512  1.169049100E+01 -8.688795015E+00 -1.465513873E+02  1.472734594E+02  0.000000000E+00  0.00000E+00  9.000E+00
#rwgt            1           1   2.6959683930277530E-002           9      286359           0
</event>
<event>
      5   9999  3.19816E-02  2.93577E+02 -1.00000E+00  1.05898E-01
      21    -1     0     0   502   501  0.000000000E+00  0.000000000E+00  1.256849794E+03  1.256849794E+03  0.000000000E+00  0.00000E+00  9.000E+00
      -1    -1     0     0     0   502  0.000000000E+00  0.000000000E+00 -2.465869168E+02  2.465869168E+02  0.000000000E+00  0.00000E+00  9.000E+00
      25     1     1     2     0     0 -8.659549139E+01  4.818652260E+01  8.274844859E+02  8.427195823E+02  1.250000000E+02  0.00000E+00  9.000E+00
      25     1     1     2     0     0 -8.818569207E+01  1.876925778E+02 -9.159900984E+01  2.588833688E+02  1.250000000E+02  0.00000E+00  9.000E+00
      -1     1     1     2     0   501  1.747811835E+02 -2.358791004E+02  2.743774013E+02  4.018337597E+02  3.814697266E-06  0.00000E+00  9.000E+00
#rwgt            1           1   2.8591752398707964E-002           9      286542           0
</event>
<event>
      5   9999  3.19816E-02  6.22788E+01 -1.00000E+00  1.33844E-01
      21    -1     0     0   502   511  0.000000000E+00  0.000000000E+00  1.220821379E+03  1.220821379E+03  0.000000000E+00  0.00000E+00  9.000E+00
      21    -1     0     0   501   502  0.000000000E+00  0.000000000E+00 -1.231864512E+02  1.231864512E+02  0.000000000E+00  0.00000E+00  9.000E+00
      25     1     1     2     0     0  2.678925917E+02 -1.170146585E+02  6.758403863E+02  7.468896162E+02  1.250000000E+02  0.00000E+00  9.000E+00
      25     1     1     2     0     0 -2.760226010E+02  1.787604860E+02  3.088553670E+02  4.681457309E+02  1.250000000E+02  0.00000E+00  9.000E+00
      21     1     1     2   501   511  8.130009232E+00 -6.174582746E+01  1.129391746E+02  1.289724831E+02  0.000000000E+00  0.00000E+00  9.000E+00
#rwgt            1           1   2.7472867234740867E-002           9      286614           0
</event>
<event>
      5   9999  3.19816E-02  9.69195E+01 -1.00000E+00  1.24442E-01
      21    -1     0     0   502   501  0.000000000E+00  0.000000000E+00  2.037634603E+02  2.037634603E+02  0.000000000E+00  0.00000E+00  9.000E+00
      21    -1     0     0   512   502  0.000000000E+00  0.000000000E+00 -6.039559052E+02  6.039559052E+02  0.000000000E+00  0.00000E+00  9.000E+00
      25     1     1     2     0     0  1.303021597E+02  9.297170253E+01  7.828073277E+01  2.176585937E+02  1.250000000E+02  0.00000E+00  9.000E+00
      25     1     1     2     0     0 -3.401772949E+01 -1.040485522E+02 -8.856441516E+01  1.882869161E+02  1.250000000E+02  0.00000E+00  9.000E+00
      21     1     1     2   512   501 -9.628443020E+01  1.107684971E+01 -3.899087625E+02  4.017738557E+02  5.394796609E-06  0.00000E+00  9.000E+00
#rwgt            2          11   2.0299736874610946E-003           9      286875           0
</event>
<event>
      5   9999  3.19816E-02  9.36956E+01 -1.00000E+00  1.25113E-01
      21    -1     0     0   502   511  0.000000000E+00  0.000000000E+00  8.092697848E+02  8.092697848E+02  0.000000000E+00  0.00000E+00  9.000E+00
      21    -1     0     0   501   502  0.000000000E+00  0.000000000E+00 -5.112765584E+02  5.112765584E+02  0.000000000E+00  0.00000E+00  9.000E+00
      25     1     1     2     0     0  4.323907867E+02  1.795959767E+02 -1.719995373E+02  5.142230528E+02  1.250000000E+02  0.00000E+00  9.000E+00
      25     1     1     2     0     0 -4.817783228E+02 -2.592184762E+02  4.111562506E+02  6.956860162E+02  1.250000000E+02  0.00000E+00  9.000E+00
      21     1     1     2   501   511  4.938753614E+01  7.962249956E+01  5.883651304E+01  1.106372741E+02  2.336015456E-06  0.00000E+00  9.000E+00
#rwgt            1           1   2.9044027650826493E-002           9      286895           0
</event>
<event>
      5   9999  3.19816E-02  1.87491E+02 -1.00000E+00  1.12679E-01
      21    -1     0     0   502   501  0.000000000E+00  0.000000000E+00  8.672316151E+02  8.672316151E+02  0.000000000E+00  0.00000E+00  9.000E+00
      21    -1     0     0   501   512  0.000000000E+00  0.000000000E+00 -6.316032734E+02  6.316032734E+02  0.000000000E+00  0.00000E+00  9.000E+00
      25     1     1     2     0     0 -9.515679434E+01  4.786457472E+02  2.073948926E+02  5.447882233E+02  1.250000000E+02  0.00000E+00  9.000E+00
      25     1     1     2     0     0 -9.127759735E+01 -4.587671993E+02  3.390335446E+02  5.910733350E+02  1.250000000E+02  0.00000E+00  9.000E+00
      21     1     1     2   502   512  1.864343917E+02 -1.987854790E+01 -3.108000955E+02  3.629733302E+02  5.394796609E-06  0.00000E+00  9.000E+00
#rwgt            2          11   3.4831992394384974E-003           9      287061           0
</event>
<event>
      5   9999  3.19816E-02  3.68545E+02 -1.00000E+00  1.02767E-01
      21    -1     0     0   502   511  0.000000000E+00  0.000000000E+00  2.731188528E+03  2.731188528E+03  0.000000000E+00  0.00000E+00  9.000E+00
      21    -1     0     0   501   502  0.000000000E+00  0.000000000E+00 -2.192403660E+02  2.192403660E+02  0.000000000E+00  0.00000E+00  9.000E+00
      25     1     1     2     0     0  3.739273347E+02  1.861960699E+01  3.847710073E+02  5.512187129E+02  1.250000000E+02  0.00000E+00  9.000E+00
      25     1     1     2     0     0 -7.025082365E+02 -1.855333735E+02  1.509799782E+03  1.680196666E+03  1.250000000E+02  0.00000E+00  9.000E+00
      21     1     1     2   501   511  3.285809018E+02  1.669137665E+02  6.173773725E+02  7.190135149E+02  0.000000000E+00  0.00000E+00  9.000E+00
#rwgt            2          11   2.4539968122037040E-003           9      287096           0
</event>
<event>
      5   9999  3.19816E-02  1.25741E+02 -1.00000E+00  1.19513E-01
      21    -1     0     0   502   512  0.000000000E+00  0.000000000E+00  1.385727254E+03  1.385727254E+03  0.000000000E+00  0.00000E+00  9.000E+00
      21    -1     0     0   501   502  0.000000000E+00  0.000000000E+00 -2.671972749E+03  2.671972749E+03  0.000000000E+00  0.00000E+00  9.000E+00
      25     1     1     2     0     0 -9.370354412E+02 -1.458624115E+03 -8.856061651E+02  1.950780102E+03  1.250000000E+02  0.00000E+00  9.000E+00
      25     1     1     2     0     0  1.032196862E+03  1.540812976E+03 -5.235037180E+02  1.931117845E+03  1.250000000E+02  0.00000E+00  9.000E+00
      21     1     1     2   501   512 -9.516142064E+01 -8.218886124E+01  1.228643887E+02  1.758020560E+02  2.336015456E-06  0.00000E+00  9.000E+00
#rwgt            2          11   1.7719359723095872E-002           9      287281           0
</event>
<event>
      5   9999  3.19816E-02  1.39244E+01 -1.00000E+00  1.80483E-01
      21    -1     0     0   502   511  0.000000000E+00  0.000000000E+00  7.269878236E+01  7.269878236E+01  0.000000000E+00  0.00000E+00  9.000E+00
      21    -1     0     0   501   502  0.000000000E+00  0.000000000E+00 -3.137779048E+02  3.137779048E+02  0.000000000E+00  0.00000E+00  9.000E+00
      25     1     1     2     0     0 -4.009528153E+00 -3.216370533E+01 -7.442596775E+01  1.490463181E+02  1.250000000E+02  0.00000E+00  9.000E+00
      25     1     1     2     0     0 -5.350973802E+00  2.185492794E+01 -1.785505361E+02  2.191154142E+02  1.250000000E+02  0.00000E+00  9.000E+00
      21     1     1     2   501   511  9.360501954E+00  1.030877739E+01  1.189738141E+01  1.831495489E+01  1.685873940E-07  0.00000E+00  9.000E+00
#rwgt            1           1   5.5473714468513707E-003           9      287316           0
</event>
<event>
      5   9999  3.19816E-02  1.53615E+02 -1.00000E+00  1.15985E-01
      21    -1     0     0   502   501  0.000000000E+00  0.000000000E+00  6.814594423E+02  6.814594423E+02  0.000000000E+00  0.00000E+00  9.000E+00
      21    -1     0     0   512   502  0.000000000E+00  0.000000000E+00 -5.296406107E+02  5.296406107E+02  0.000000000E+00  0.00000E+00  9.000E+00
      25     1     1     2     0     0 -2.103641793E+02 -1.334119627E+01  9.673507226E+01  2.634648927E+02  1.250000000E+02  0.00000E+00  9.000E+00
      25     1     1     2     0     0  2.395865418E+02  1.641506824E+02  4.350387978E+02  5.378019274E+02  1.250000000E+02  0.00000E+00  9.000E+00
      21     1     1     2   512   501 -2.922236245E+01 -1.508094861E+02 -3.799550385E+02  4.098332329E+02  5.394796609E-06  0.00000E+00  9.000E+00
#rwgt            2          11   4.7019496076999281E-003           9      287478           0
</event>
<event>
      5   9999  3.19816E-02  7.80725E+01 -1.00000E+00  1.28864E-01
      21    -1     0     0   502   511  0.000000000E+00  0.000000000E+00  2.828823619E+02  2.828823619E+02  0.000000000E+00  0.00000E+00  9.000E+00
      21    -1     0     0   501   502  0.000000000E+00  0.000000000E+00 -7.393038442E+02  7.393038442E+02  0.000000000E+00  0.00000E+00  9.000E+00
      25     1     1     2     0     0 -1.073787975E+02 -1.731500089E+01  3.738650099E+01  1.698610192E+02  1.250000000E+02  0.00000E+00  9.000E+00
      25     1     1     2     0     0  3.015862906E+01  5.810151415E+00 -6.580238664E+02  6.704951226E+02  1.250000000E+02  0.00000E+00  9.000E+00
      21     1     1     2   501   511  7.722016840E+01  1.150484948E+01  1.642158832E+02  1.818300642E+02  2.697398305E-06  0.00000E+00  9.000E+00
#rwgt            1           1   2.7556766836468377E-002           9      287498           0
</event>
<event>
      5   9999  3.19816E-02  4.31657E+01 -1.00000E+00  1.42818E-01
      21    -1     0     0   502   501  0.000000000E+00  0.000000000E+00  1.067479125E+03  1.067479125E+03  0.000000000E+00  0.00000E+00  9.000E+00
      21    -1     0     0   501   512  0.000000000E+00  0.000000000E+00 -5.401392050E+01  5.401392050E+01  0.000000000E+00  0.00000E+00  9.000E+00
      25     1     1     2     0     0 -7.065727027E+01 -1.255226075E+02  2.645825418E+02  3.261553254E+02  1.250000000E+02  0.00000E+00  9.000E+00
      25     1     1     2     0     0  6.417631060E+01  1.681990446E+02  6.758948080E+02  7.105408567E+02  1.250000000E+02  0.00000E+00  9.000E+00
      21     1     1     2   502   512  6.480959668E+00 -4.267643711E+01  7.298785445E+01  8.479686327E+01  9.536743164E-07  0.00000E+00  9.000E+00
#rwgt            1           1   2.2681793307968042E-002           9      287616           0
</event>
<event>
      5   9999  3.19816E-02  2.07748E+01 -1.00000E+00  1.65019E-01
      21    -1     0     0   502   501  0.000000000E+00  0.000000000E+00  1.081452751E+03  1.081452751E+03  0.000000000E+00  0.00000E+00  9.000E+00
      21    -1     0     0   501   511  0.000000000E+00  0.000000000E+00 -7.629353430E+01  7.629353430E+01  0.000000000E+00  0.00000E+00  9.000E+00
      25     1     1     2     0     0  2.314968482E+02 -9.876809785E+01  5.021446089E+02  5.754303920E+02  1.250000000E+02  0.00000E+00  9.000E+00
      25     1     1     2     0     0 -2.241323346E+02  7.934242797E+01  4.866764084E+02  5.558861851E+02  1.250000000E+02  0.00000E+00  9.000E+00
      21     1     1     2   502   511 -7.364513611E+00  1.942566988E+01  1.633819932E+01  2.642970806E+01  5.840038640E-07  0.00000E+00  9.000E+00
#rwgt            1           1   3.2882140485948425E-002           9      287720           0
</event>
<event>
      5   9999  3.19816E-02  2.32463E+01 -1.00000E+00  1.61154E-01
      21    -1     0     0   502   512  0.000000000E+00  0.000000000E+00  2.613692910E+03  2.613692910E+03  0.000000000E+00  0.00000E+00  9.000E+00
      21    -1     0     0   501   502  0.000000000E+00  0.000000000E+00 -7.292118824E+01  7.292118824E+01  0.000000000E+00  0.00000E+00  9.000E+00
      25     1     1     2     0     0  1.434868559E+02  1.827592282E+02  2.156652582E+02  3.407725295E+02  1.250000000E+02  0.00000E+00  9.000E+00
      25     1     1     2     0     0 -1.512125435E+02 -2.046842349E+02  2.229207477E+03  2.247165291E+03  1.250000000E+02  0.00000E+00  9.000E+00
      21     1     1     2   501   512  7.725687684E+00  2.192500669E+01  9.589898656E+01  9.867627775E+01  1.907348633E-06  0.00000E+00  9.000E+00
#rwgt            1           1   8.1342516586296904E-002           9      287845           0
</event>
<event>
      5   9999  3.19816E-02  1.12007E+02 -1.00000E+00  1.21653E-01
      21    -1     0     0   511   501  0.000000000E+00  0.000000000E+00  2.083014135E+03  2.083014135E+03  0.000000000E+00  0.00000E+00  9.000E+00
      21    -1     0     0   501   502  0.000000000E+00  0.000000000E+00 -5.064175335E+01  5.064175335E+01  0.000000000E+00  0.00000E+00  9.000E+00
      25     1     1     2     0     0 -1.227554165E+02 -1.325838275E+02  2.632880296E+02  3.429182849E+02  1.250000000E+02  0.00000E+00  9.000E+00
      25     1     1     2     0     0  2.753050878E+01  7.361062880E+01  1.305071354E+03  1.313397386E+03  1.250000000E+02  0.00000E+00  9.000E+00
      21     1     1     2   511   502  9.522490768E+01  5.897319868E+01  4.640129983E+02  4.773402181E+02  5.394796609E-06  0.00000E+00  9.000E+00
#rwgt            1           1   3.5386393726971846E-002           9      288038           0
</event>
<event>
      5   9999  3.19816E-02  8.08085E+01 -1.00000E+00  1.28138E-01
      21    -1     0     0   502   501  0.000000000E+00  0.000000000E+00  2.917568420E+02  2.917568420E+02  0.000000000E+00  0.00000E+00  9.000E+00
      21    -1     0     0   512   502  0.000000000E+00  0.000000000E+00 -4.736582079E+02  4.736582079E+02  0.000000000E+00  0.00000E+00  9.000E+00
      25     1     1     2     0     0  1.113514448E+02  1.973246437E+02  1.598427045E+02  3.041559624E+02  1.250000000E+02  0.00000E+00  9.000E+00
      25     1     1     2     0     0 -1.439614268E+02 -1.233881830E+02 -2.286912984E+02  3.222952778E+02  1.250000000E+02  0.00000E+00  9.000E+00
      21     1     1     2   512   501  3.260998199E+01 -7.393646072E+01 -1.130527720E+02  1.389638097E+02  2.336015456E-06  0.00000E+00  9.000E+00
#rwgt            2          11   2.3885599261516534E-003           9      288111           0
</event>
<event>
      5   9999  3.19816E-02  1.44291E+02 -1.00000E+00  1.17065E-01
      21    -1     0     0   502   511  0.000000000E+00  0.000000000E+00  3.912866513E+02  3.912866513E+02  0.000000000E+00  0.00000E+00  9.000E+00
      21    -1     0     0   501   502  0.000000000E+00  0.000000000E+00 -9.401839352E+02  9.401839352E+02  0.000000000E+00  0.00000E+00  9.000E+00
      25     1     1     2     0     0  1.236490107E+02 -1.930701654E+01  2.408114844E+02  2.987925865E+02  1.250000000E+02  0.00000E+00  9.000E+00
      25     1     1     2     0     0 -1.651422128E+02  1.575030977E+02 -8.403865343E+02  8.797463858E+02  1.250000000E+02  0.00000E+00  9.000E+00
      21     1     1     2   501   511  4.149320213E+01 -1.381960812E+02  5.067776603E+01  1.529316143E+02  1.348699152E-06  0.00000E+00  9.000E+00
#rwgt            1           1   3.1916705403513643E-002           9      288146           0
</event>
<event>
      5   9999  3.19816E-02  2.80070E+02 -1.00000E+00  1.06571E-01
      21    -1     0     0   502   512  0.000000000E+00  0.000000000E+00  3.755031968E+02  3.755031968E+02  0.000000000E+00  0.00000E+00  9.000E+00
      21    -1     0     0   501   502  0.000000000E+00  0.000000000E+00 -2.443193515E+03  2.443193515E+03  0.000000000E+00  0.00000E+00  9.000E+00
      25     1     1     2     0     0  2.555135189E+01 -8.650709548E+01 -4.834636700E+02  5.074430701E+02  1.250000000E+02  0.00000E+00  9.000E+00
      25     1     1     2     0     0 -2.521868826E+02  2.510530048E+02 -1.872043979E+03  1.909659524E+03  1.250000000E+02  0.00000E+00  9.000E+00
      21     1     1     2   501   512  2.266355308E+02 -1.645459093E+02  2.878173309E+02  4.015941185E+02  9.344061824E-06  0.00000E+00  9.000E+00
#rwgt            1           1   7.6683542582258513E-002           9      288192           0
</event>
<event>
      5   9999  3.19816E-02  1.98091E+02 -1.00000E+00  1.11800E-01
      21    -1     0     0   502   501  0.000000000E+00  0.000000000E+00  7.328018366E+02  7.328018366E+02  0.000000000E+00  0.00000E+00  9.000E+00
       1    -1     0     0   501     0  0.000000000E+00  0.000000000E+00 -1.099209999E+03  1.099209999E+03  0.000000000E+00  0.00000E+00  9.000E+00
      25     1     1     2     0     0 -1.390589159E+02 -4.444183686E+02  3.485208490E+02  5.949259203E+02  1.250000000E+02  0.00000E+00  9.000E+00
      25     1     1     2     0     0 -1.429177330E+01  5.698115240E+02 -1.012846665E+02  5.922609318E+02  1.250000000E+02  0.00000E+00  9.000E+00
       1     1     1     2   502     0  1.533506892E+02 -1.253931554E+02 -6.136443454E+02  6.448249839E+02  7.629394531E-06  0.00000E+00  9.000E+00
#rwgt            2          12   6.0066532945569028E-004           9      288618           0
</event>
<event>
      5   9999  3.19816E-02  7.87865E+01 -1.00000E+00  1.28672E-01
       2    -1     0     0   502     0  0.000000000E+00  0.000000000E+00  1.439698961E+03  1.439698961E+03  0.000000000E+00  0.00000E+00  9.000E+00
      21    -1     0     0   501   502  0.000000000E+00  0.000000000E+00 -1.451577867E+02  1.451577867E+02  0.000000000E+00  0.00000E+00  9.000E+00
      25     1     1     2     0     0  4.079766013E+01  2.806367829E+02  4.670120676E+02  5.604879341E+02  1.250000000E+02  0.00000E+00  9.000E+00
      25     1     1     2     0     0 -5.872963441E+01 -3.573555021E+02  2.884501493E+02  4.795629401E+02  1.250000000E+02  0.00000E+00  9.000E+00
       2     1     1     2   501     0  1.793197428E+01  7.671871919E+01  5.390789576E+02  5.448058737E+02  7.629394531E-06  0.00000E+00  9.000E+00
#rwgt            1           1   3.2401023126948682E-002           9      288637           0
</event>
<event>
      5   9999  3.19816E-02  9.45629E+01 -1.00000E+00  1.24930E-01
      21    -1     0     0   502   511  0.000000000E+00  0.000000000E+00  1.911400704E+03  1.911400704E+03  0.000000000E+00  0.00000E+00  9.000E+00
      21    -1     0     0   501   502  0.000000000E+00  0.000000000E+00 -3.014707517E+02  3.014707517E+02  0.000000000E+00  0.00000E+00  9.000E+00
      25     1     1     2     0     0 -3.931259900E+02  2.922962721E+02  1.088469332E+03  1.200156507E+03  1.250000000E+02  0.00000E+00  9.000E+00
      25     1     1     2     0     0  4.346840508E+02 -3.772378135E+02  1.210365232E+02  6.012765020E+02  1.250000000E+02  0.00000E+00  9.000E+00
      21     1     1     2   501   511 -4.155806083E+01  8.494154131E+01  4.004240968E+02  4.114384464E+02  5.394796609E-06  0.00000E+00  9.000E+00
#rwgt            1           1   2.8371897675590670E-002           9      288731           0
</event>
<event>
      5   9999  3.19816E-02  1.06109E+02 -1.00000E+00  1.22681E-01
      21    -1     0     0   502   501  0.000000000E+00  0.000000000E+00  7.886645331E+02  7.886645331E+02  0.000000000E+00  0.00000E+00  9.000E+00
      21    -1     0     0   512   502  0.000000000E+00  0.000000000E+00 -3.101421143E+02  3.101421143E+02  0.000000000E+00  0.00000E+00  9.000E+00
      25     1     1     2     0     0 -2.539422364E+02  7.450199298E+01  5.197612571E+02  5.965014424E+02  1.250000000E+02  0.00000E+00  9.000E+00
      25     1     1     2     0     0  3.568761206E+02 -4.873772090E+01 -7.958424334E+01  3.894798874E+02  1.250000000E+02  0.00000E+00  9.000E+00
      21     1     1     2   512   501 -1.029338842E+02 -2.576427207E+01  3.834540504E+01  1.128253177E+02  1.066240300E-06  0.00000E+00  9.000E+00
#rwgt            1           1   2.8325365233737767E-002           9      288817           0
</event>
<event>
      5   9999  3.19816E-02  6.16042E+01 -1.00000E+00  1.34094E-01
      21    -1     0     0   502   501  0.000000000E+00  0.000000000E+00  6.305517919E+02  6.305517919E+02  0.000000000E+00  0.00000E+00  9.000E+00
      21    -1     0     0   501   511  0.000000000E+00  0.000000000E+00 -3.333525192E+02  3.333525192E+02  0.000000000E+00  0.00000E+00  9.000E+00
      25     1     1     2     0     0  4.033355431E+02 -1.572452449E+02  2.179924428E+02  5.005510289E+02  1.250000000E+02  0.00000E+00  9.000E+00
      25     1     1     2     0     0 -3.419157503E+02  1.524827597E+02  7.357983586E+01  4.014926706E+02  1.250000000E+02  0.00000E+00  9.000E+00
      21     1     1     2   502   511 -6.141979285E+01  4.762485224E+00  5.626994042E+00  6.186061172E+01  1.172561382E-06  0.00000E+00  9.000E+00
#rwgt            1           1   2.8313096273941456E-002           9      288901           0
</event>
<event>
      5   9999  3.19816E-02  1.20358E+02 -1.00000E+00  1.20313E-01
      21    -1     0     0   502   501  0.000000000E+00  0.000000000E+00  8.334323940E+02  8.334323940E+02  0.000000000E+00  0.00000E+00  9.000E+00
      21    -1     0     0   501   512  0.000000000E+00  0.000000000E+00 -1.775215816E+02  1.775215816E+02  0.000000000E+00  0.00000E+00  9.000E+00
      25     1     1     2     0     0  1.527085427E+01 -2.009080406E+01  5.380470922E+02  5.529525412E+02  1.250000000E+02  0.00000E+00  9.000E+00
      25     1     1     2     0     0 -8.898673176E+00  1.402799559E+02  2.275009320E+02  2.951937100E+02  1.250000000E+02  0.00000E+00  9.000E+00
      21     1     1     2   502   512 -6.372181097E+00 -1.201891518E+02 -1.096372118E+02  1.628077244E+02  4.862803949E-06  0.00000E+00  9.000E+00
#rwgt            1           1   2.6611635034564575E-002           9      289024           0
</event>
<event>
      5   9999  3.19816E-02  6.28760E+01 -1.00000E+00  1.33626E-01
      21    -1     0     0   502   511  0.000000000E+00  0.000000000E+00  2.673050569E+03  2.673050569E+03  0.000000000E+00  0.00000E+00  9.000E+00
      21    -1     0     0   501   502  0.000000000E+00  0.000000000E+00 -8.956441059E+01  8.956441059E+01  0.000000000E+00  0.00000E+00  9.000E+00
      25     1     1     2     0     0  1.672471459E+01 -2.453157250E+02  1.771219774E+02  3.278059119E+02  1.250000000E+02  0.00000E+00  9.000E+00
      25     1     1     2     0     0 -7.467340068E+01  2.209160549E+02  1.299574889E+03  1.326235241E+03  1.250000000E+02  0.00000E+00  9.000E+00
      21     1     1     2   501   511  5.794868609E+01  2.439967008E+01  1.106789292E+03  1.108573827E+03  1.525878906E-05  0.00000E+00  9.000E+00
#rwgt            1           1   3.1325539315813292E-002           9      289091           0
</event>
<event>
      5   9999  3.19816E-02  7.50002E+01 -1.00000E+00  1.29721E-01
      21    -1     0     0   512   501  0.000000000E+00  0.000000000E+00  1.539504500E+03  1.539504500E+03  0.000000000E+00  0.00000E+00  9.000E+00
      21    -1     0     0   501   502  0.000000000E+00  0.000000000E+00 -9.114099850E+02  9.114099850E+02  0.000000000E+00  0.00000E+00  9.000E+00
      25     1     1     2     0     0  7.258984690E+01  5.355359103E+02 -4.602346362E+02  7.207696702E+02  1.250000000E+02  0.00000E+00  9.000E+00
      25     1     1     2     0     0 -1.164309362E+02 -4.746837794E+02 -1.207551479E+02  5.187365990E+02  1.250000000E+02  0.00000E+00  9.000E+00
      21     1     1     2   512   502  4.384108931E+01 -6.085213091E+01  1.209084299E+03  1.211408215E+03  2.157918644E-05  0.00000E+00  9.000E+00
#rwgt            1           1   3.0027793745071651E-002           9      289195           0
</event>
<event>
      5   9999  3.19816E-02  8.13427E+01 -1.00000E+00  1.28001E-01
       1    -1     0     0   502     0  0.000000000E+00  0.000000000E+00  1.023645519E+03  1.023645519E+03  0.000000000E+00  0.00000E+00  9.000E+00
      21    -1     0     0   501   502  0.000000000E+00  0.000000000E+00 -2.741316399E+02  2.741316399E+02  0.000000000E+00  0.00000E+00  9.000E+00
      25     1     1     2     0     0  2.292984708E+01  2.328157531E+02  4.321733416E+02  5.070776567E+02  1.250000000E+02  0.00000E+00  9.000E+00
      25     1     1     2     0     0  5.837856976E+01 -2.351767553E+02 -1.534925522E+02  3.128915582E+02  1.250000000E+02  0.00000E+00  9.000E+00
       1     1     1     2   501     0 -8.130841684E+01  2.361002239E+00  4.708330902E+02  4.778079445E+02  5.394796609E-06  0.00000E+00  9.000E+00
#rwgt            1           1   2.8710942418895324E-002           9      289273           0
</event>
<event>
      5   9999  3.19816E-02  1.93082E+02 -1.00000E+00  1.12207E-01
      21    -1     0     0   502   511  0.000000000E+00  0.000000000E+00  1.932089493E+03  1.932089493E+03  0.000000000E+00  0.00000E+00  9.000E+00
      21    -1     0     0   501   502  0.000000000E+00  0.000000000E+00 -6.533669033E+01  6.533669033E+01  0.000000000E+00  0.00000E+00  9.000E+00
      25     1     1     2     0     0  3.505219063E+01  2.073719897E+02  4.162226117E+02  4.828022998E+02  1.250000000E+02  0.00000E+00  9.000E+00
      25     1     1     2     0     0  1.480623020E+02 -1.461357340E+02  7.872320713E+02  8.237945327E+02  1.250000000E+02  0.00000E+00  9.000E+00
      21     1     1     2   501   511 -1.831144927E+02 -6.123625566E+01  6.632981195E+02  6.908293507E+02  1.078959322E-05  0.00000E+00  9.000E+00
#rwgt            1           1   2.8659395002096164E-002           9      289360           0
</event>
<event>
      5   9999  3.19816E-02  1.82438E+01 -1.00000E+00  1.69731E-01
      21    -1     0     0   502   501  0.000000000E+00  0.000000000E+00  1.499175814E+03  1.499175814E+03  0.000000000E+00  0.00000E+00  9.000E+00
      -2    -1     0     0     0   502  0.000000000E+00  0.000000000E+00 -1.505782974E+03  1.505782974E+03  0.000000000E+00  0.00000E+00  9.000E+00
      25     1     1     2     0     0  1.759012084E+01  7.476714087E+01  1.105967224E+02  1.837285299E+02  1.250000000E+02  0.00000E+00  9.000E+00
      25     1     1     2     0     0 -3.576447662E+01 -7.317720057E+01  1.347840321E+03  1.356072466E+03  1.250000000E+02  0.00000E+00  9.000E+00
      -2     1     1     2     0   501  1.817435578E+01 -1.589940294E+00 -1.465044204E+03  1.465157792E+03  0.000000000E+00  0.00000E+00  9.000E+00
#rwgt            1           1   4.4821205162242167E-002           9      289438           0
</event>
<event>
      5   9999  3.19816E-02  7.66933E+01 -1.00000E+00  1.29243E-01
      21    -1     0     0   502   501  0.000000000E+00  0.000000000E+00  4.412875845E+02  4.412875845E+02  0.000000000E+00  0.00000E+00  9.000E+00
      21    -1     0     0   511   502  0.000000000E+00  0.000000000E+00 -2.679215086E+02  2.679215086E+02  0.000000000E+00  0.00000E+00  9.000E+00
      25     1     1     2     0     0 -1.767407930E+02 -7.291835996E+01 -1.205875136E+02  2.583035879E+02  1.250000000E+02  0.00000E+00  9.000E+00
      25     1     1     2     0     0  1.570532259E+02 -1.204914336E+00  3.130440358E+02  3.718719349E+02  1.250000000E+02  0.00000E+00  9.000E+00
      21     1     1     2   511   501  1.968756710E+01  7.412327430E+01 -1.909044629E+01  7.903357028E+01  1.118282261E-06  0.00000E+00  9.000E+00
#rwgt            1           1   3.0342914785002572E-002           9      289567           0
</event>
<event>
      5   9999  3.19816E-02  5.31437E+01 -1.00000E+00  1.37581E-01
      21    -1     0     0   502   501  0.000000000E+00  0.000000000E+00  1.441747482E+02  1.441747482E+02  0.000000000E+00  0.00000E+00  9.000E+00
       1    -1     0     0   501     0  0.000000000E+00  0.000000000E+00 -2.606535851E+03  2.606535851E+03  0.000000000E+00  0.00000E+00  9.000E+00
      25     1     1     2     0     0  2.160568809E+02 -1.212670844E+00 -9.994652501E+01  2.688798137E+02  1.250000000E+02  0.00000E+00  9.000E+00
      25     1     1     2     0     0 -1.859702623E+02  4.501966618E+01 -1.605102911E+02  2.792852706E+02  1.250000000E+02  0.00000E+00  9.000E+00
       1     1     1     2   502     0 -3.008661858E+01 -4.380699533E+01 -2.201904287E+03  2.202545515E+03  0.000000000E+00  0.00000E+00  9.000E+00
#rwgt            1           1   3.2432555048291109E-002           9      289648           0
</event>
<event>
      5   9999  3.19816E-02  1.74738E+01 -1.00000E+00  1.71357E-01
      21    -1     0     0   502   501  0.000000000E+00  0.000000000E+00  1.704413059E+03  1.704413059E+03  0.000000000E+00  0.00000E+00  9.000E+00
      21    -1     0     0   511   502  0.000000000E+00  0.000000000E+00 -8.283904895E+02  8.283904895E+02  0.000000000E+00  0.00000E+00  9.000E+00
      25     1     1     2     0     0  3.039589614E+02 -4.899350556E+01  9.810798109E+02  1.035825279E+03  1.250000000E+02  0.00000E+00  9.000E+00
      25     1     1     2     0     0 -3.090831132E+02  6.569914397E+01  6.543740292E+02  7.373459964E+02  1.250000000E+02  0.00000E+00  9.000E+00
      21     1     1     2   511   501  5.124151756E+00 -1.670563840E+01 -7.594312705E+02  7.596322728E+02  0.000000000E+00  0.00000E+00  9.000E+00
#rwgt            1           1   3.6161527554245683E-002           9      289761           0
</event>
<event>
      5   9999  3.19816E-02  3.98806E+01 -1.00000E+00  1.44921E-01
      21    -1     0     0   502   501  0.000000000E+00  0.000000000E+00  1.501665894E+02  1.501665894E+02  0.000000000E+00  0.00000E+00  9.000E+00
      21    -1     0     0   501   512  0.000000000E+00  0.000000000E+00 -3.804195436E+02  3.804195436E+02  0.000000000E+00  0.00000E+00  9.000E+00
      25     1     1     2     0     0 -8.984959536E+01 -2.741310432E+01 -8.175941593E+01  1.764483782E+02  1.250000000E+02  0.00000E+00  9.000E+00
      25     1     1     2     0     0  1.297194691E+02  2.833917806E+01  1.770843384E+01  1.832180076E+02  1.250000000E+02  0.00000E+00  9.000E+00
      21     1     1     2   502   512 -3.986987374E+01 -9.260737421E-01 -1.662019721E+02  1.709197472E+02  2.697398305E-06  0.00000E+00  9.000E+00
#rwgt            1           1   2.8797631619444965E-002           9      289934           0
</event>
<event>
      5   9999  3.19816E-02  4.17892E+01 -1.00000E+00  1.43671E-01
      21    -1     0     0   502   501  0.000000000E+00  0.000000000E+00  8.375941741E+02  8.375941741E+02  0.000000000E+00  0.00000E+00  9.000E+00
      21    -1     0     0   501   511  0.000000000E+00  0.000000000E+00 -2.330913458E+02  2.330913458E+02  0.000000000E+00  0.00000E+00  9.000E+00
      25     1     1     2     0     0  4.054961595E+01 -1.829923931E+02  7.410916467E+02  7.745787991E+02  1.250000000E+02  0.00000E+00  9.000E+00
      25     1     1     2     0     0 -4.471705075E+01  1.414114926E+02 -1.570541945E+02  2.495753290E+02  1.250000000E+02  0.00000E+00  9.000E+00
      21     1     1     2   502   511  4.167434793E+00  4.158090054E+01  2.046537601E+01  4.653139175E+01  6.743495762E-07  0.00000E+00  9.000E+00
#rwgt            1           1   2.5604826785226676E-002           9      290054           0
</event>
<event>
      5   9999  3.19816E-02  5.90610E+01 -1.00000E+00  1.35070E-01
      21    -1     0     0   502   501  0.000000000E+00  0.000000000E+00  3.760459238E+02  3.760459238E+02  0.000000000E+00  0.00000E+00  9.000E+00
       2    -1     0     0   501     0  0.000000000E+00  0.000000000E+00 -2.530761765E+03  2.530761765E+03  0.000000000E+00  0.00000E+00  9.000E+00
      25     1     1     2     0     0 -1.221262010E+02  5.494403445E+02 -9.384433456E+01  5.841500323E+02  1.250000000E+02  0.00000E+00  9.000E+00
      25     1     1     2     0     0  8.749442485E+01 -5.972822266E+02 -5.988580553E+02  8.594517456E+02  1.250000000E+02  0.00000E+00  9.000E+00
       2     1     1     2   502     0  3.463177611E+01  4.784188204E+01 -1.462013451E+03  1.463205911E+03  0.000000000E+00  0.00000E+00  9.000E+00
#rwgt            1           1   3.1673375697796859E-002           9      290142           0
</event>
<event>
      5   9999  3.19816E-02  3.13028E+02 -1.00000E+00  1.04996E-01
      21    -1     0     0   502   501  0.000000000E+00  0.000000000E+00  8.058650684E+02  8.058650684E+02  0.000000000E+00  0.00000E+00  9.000E+00
       1    -1     0     0   501     0  0.000000000E+00  0.000000000E+00 -5.502705974E+02  5.502705974E+02  0.000000000E+00  0.00000E+00  9.000E+00
      25     1     1     2     0     0  3.631654987E+01 -1.003089538E+02  5.201195719E+01  1.723688536E+02  1.250000000E+02  0.00000E+00  9.000E+00
      25     1     1     2     0     0 -2.658713699E+02  3.131255205E+02  5.624190079E+02  7.075841415E+02  1.250000000E+02  0.00000E+00  9.000E+00
       1     1     1     2   502     0  2.295548200E+02 -2.128165667E+02 -3.588364940E+02  4.761826707E+02  3.814697266E-06  0.00000E+00  9.000E+00
#rwgt            1           1   2.7721855907096402E-002           9      290283           0
</event>
<event>
      5   9999  3.19816E-02  4.03371E+01 -1.00000E+00  1.44614E-01
      21    -1     0     0   502   511  0.000000000E+00  0.000000000E+00  1.225601448E+03  1.225601448E+03  0.000000000E+00  0.00000E+00  9.000E+00
      21    -1     0     0   501   502  0.000000000E+00  0.000000000E+00 -4.466793690E+02  4.466793690E+02  0.000000000E+00  0.00000E+00  9.000E+00
      25     1     1     2     0     0 -5.435833011E+02  7.783047877E+01  5.649405032E+02  7.976986654E+02  1.250000000E+02  0.00000E+00  9.000E+00
      25     1     1     2     0     0  5.603258111E+02 -4.113206707E+01 -7.710632511E+01  5.807127059E+02  1.250000000E+02  0.00000E+00  9.000E+00
      21     1     1     2   501   511 -1.674250997E+01 -3.669841171E+01  2.910879009E+02  2.938694457E+02  3.814697266E-06  0.00000E+00  9.000E+00
#rwgt            1           1   3.1482061885236466E-002           9      290337           0
</event>
<event>
      5   9999  3.19816E-02  1.97193E+02 -1.00000E+00  1.11872E-01
      21    -1     0     0   512   501  0.000000000E+00  0.000000000E+00  2.167915452E+03  2.167915452E+03  0.000000000E+00  0.00000E+00  9.000E+00
      21    -1     0     0   501   502  0.000000000E+00  0.000000000E+00 -2.754622211E+02  2.754622211E+02  0.000000000E+00  0.00000E+00  9.000E+00
      25     1     1     2     0     0 -1.196812954E+02  1.627540400E+02 -1.652957049E+02  2.894134759E+02  1.250000000E+02  0.00000E+00  9.000E+00
      25     1     1     2     0     0  2.795860148E+02 -2.781468912E+02  1.649423135E+03  1.700516307E+03  1.250000000E+02  0.00000E+00  9.000E+00
      21     1     1     2   512   502 -1.599047194E+02  1.153928512E+02  4.083258009E+02  4.534478901E+02  5.394796609E-06  0.00000E+00  9.000E+00
#rwgt            2          11   4.2215395623204782E-003           9      290541           0
</event>
<event>
      5   9999  3.19816E-02  4.93659E+01 -1.00000E+00  1.39393E-01
      21    -1     0     0   502   511  0.000000000E+00  0.000000000E+00  4.854992365E+02  4.854992365E+02  0.000000000E+00  0.00000E+00  9.000E+00
      21    -1     0     0   501   502  0.000000000E+00  0.000000000E+00 -9.024974196E+02  9.024974196E+02  0.000000000E+00  0.00000E+00  9.000E+00
      25     1     1     2     0     0 -3.496197068E+02  8.556139764E+01 -7.577541707E+02  8.481574591E+02  1.250000000E+02  0.00000E+00  9.000E+00
      25     1     1     2     0     0  3.454861154E+02 -3.636888907E+01  2.960270709E+02  4.732233920E+02  1.250000000E+02  0.00000E+00  9.000E+00
      21     1     1     2   501   511  4.133591426E+00 -4.919250856E+01  4.472891674E+01  6.661580495E+01  6.743495762E-07  0.00000E+00  9.000E+00
#rwgt            2          11   5.6046492120949950E-003           9      290726           0
</event>
<event>
      5   9999  3.19816E-02  7.82964E+01 -1.00000E+00  1.28804E-01
      21    -1     0     0   502   512  0.000000000E+00  0.000000000E+00  4.637110413E+02  4.637110413E+02  0.000000000E+00  0.00000E+00  9.000E+00
      21    -1     0     0   501   502  0.000000000E+00  0.000000000E+00 -5.509208218E+02  5.509208218E+02  0.000000000E+00  0.00000E+00  9.000E+00
      25     1     1     2     0     0 -3.766479939E+01 -1.410539669E+02 -4.685095098E+02  5.064000587E+02  1.250000000E+02  0.00000E+00  9.000E+00
      25     1     1     2     0     0  4.123398990E+01  2.192689790E+02  2.673293271E+02  3.699582358E+02  1.250000000E+02  0.00000E+00  9.000E+00
      21     1     1     2   501   512 -3.569190513E+00 -7.821501203E+01  1.139704021E+02  1.382735686E+02  2.336015456E-06  0.00000E+00  9.000E+00
#rwgt            1           1   2.5364913275045524E-002           9      290746           0
</event>
<event>
      5   9999  3.19816E-02  5.63864E+01 -1.00000E+00  1.36161E-01
      21    -1     0     0   502   501  0.000000000E+00  0.000000000E+00  1.328753019E+02  1.328753019E+02  0.000000000E+00  0.00000E+00  9.000E+00
      21    -1     0     0   511   502  0.000000000E+00  0.000000000E+00 -9.553941422E+02  9.553941422E+02  0.000000000E+00  0.00000E+00  9.000E+00
      25     1     1     2     0     0  7.092700789E+01  7.532773213E+01  5.369287578E+01  1.709176193E+02  1.250000000E+02  0.00000E+00  9.000E+00
      25     1     1     2     0     0 -1.477029510E+01 -8.041235264E+01 -2.703042274E+02  3.088262998E+02  1.250000000E+02  0.00000E+00  9.000E+00
      21     1     1     2   511   501 -5.615671280E+01  5.084620513E+00 -6.059074887E+02  6.085255250E+02  0.000000000E+00  0.00000E+00  9.000E+00
#rwgt            1           1   2.6249631770510408E-002           9      290830           0
</event>
<event>
      5   9999  3.19816E-02  9.75400E+00 -1.00000E+00  1.97016E-01
      21    -1     0     0   512   501  0.000000000E+00  0.000000000E+00  1.526490485E+03  1.526490485E+03  0.000000000E+00  0.00000E+00  9.000E+00
      21    -1     0     0   501   502  0.000000000E+00  0.000000000E+00 -2.030474221E+02  2.030474221E+02  0.000000000E+00  0.00000E+00  9.000E+00
      25     1     1     2     0     0 -2.659082835E+02 -1.968906738E+02  1.286705728E+03  1.334432382E+03  1.250000000E+02  0.00000E+00  9.000E+00
      25     1     1     2     0     0  2.722562044E+02  1.894849686E+02 -2.693790564E+00  3.544858963E+02  1.250000000E+02  0.00000E+00  9.000E+00
      21     1     1     2   512   502 -6.347920808E+00  7.405705174E+00  3.943112605E+01  4.061962911E+01  0.000000000E+00  0.00000E+00  9.000E+00
#rwgt            1           1   3.0931619910442160E-002           9      290910           0
</event>
<event>
      5   9999  3.19816E-02  6.08473E+01 -1.00000E+00  1.34379E-01
      21    -1     0     0   502   511  0.000000000E+00  0.000000000E+00  1.297694117E+02  1.297694117E+02  0.000000000E+00  0.00000E+00  9.000E+00
      21    -1     0     0   501   502  0.000000000E+00  0.000000000E+00 -8.140137868E+02  8.140137868E+02  0.000000000E+00  0.00000E+00  9.000E+00
      25     1     1     2     0     0 -1.489168717E+02 -1.324947426E+00 -4.710671148E+02  5.096147729E+02  1.250000000E+02  0.00000E+00  9.000E+00
      25     1     1     2     0     0  1.654665608E+02 -5.722845047E+01 -2.738485422E+02  3.482417297E+02  1.250000000E+02  0.00000E+00  9.000E+00
      21     1     1     2   501   511 -1.654968906E+01  5.855339789E+01  6.067128184E+01  8.592669581E+01  1.348699152E-06  0.00000E+00  9.000E+00
#rwgt            1           1   2.9754260847911693E-002           9      291254           0
</event>
<event>
      5   9999  3.19816E-02  5.24920E+01 -1.00000E+00  1.37881E-01
      21    -1     0     0   512   501  0.000000000E+00  0.000000000E+00  3.124410965E+02  3.124410965E+02  0.000000000E+00  0.00000E+00  9.000E+00
      21    -1     0     0   501   502  0.000000000E+00  0.000000000E+00 -6.349274366E+02  6.349274366E+02  0.000000000E+00  0.00000E+00  9.000E+00
      25     1     1     2     0     0 -1.347926940E+02 -5.300178995E+01 -4.252461797E+02  4.663020195E+02  1.250000000E+02  0.00000E+00  9.000E+00
      25     1     1     2     0     0  1.201766557E+02  1.034178938E+02 -1.315339580E+02  2.409644610E+02  1.250000000E+02  0.00000E+00  9.000E+00
      21     1     1     2   512   502  1.461603827E+01 -5.041610381E+01  2.342937975E+02  2.401020526E+02  4.672030912E-06  0.00000E+00  9.000E+00
#rwgt            1           1   2.6028205028855892E-002           9      291330           0
</event>
<event>
      5   9999  3.19816E-02  4.65993E+01 -1.00000E+00  1.40844E-01
      21    -1     0     0   502   501  0.000000000E+00  0.000000000E+00  1.315927393E+02  1.315927393E+02  0.000000000E+00  0.00000E+00  9.000E+00
      21    -1     0     0   511   502  0.000000000E+00  0.000000000E+00 -7.058507857E+02  7.058507857E+02  0.000000000E+00  0.00000E+00  9.000E+00
      25     1     1     2     0     0 -1.339464931E+02  1.523364249E+02 -4.545705512E+02  5.132323405E+02  1.250000000E+02  0.00000E+00  9.000E+00
      25     1     1     2     0     0  1.014858933E+02 -1.857699345E+02 -6.894945582E+01  2.553211362E+02  1.250000000E+02  0.00000E+00  9.000E+00
      21     1     1     2   511   501  3.246059982E+01  3.343350967E+01 -5.073803946E+01  6.889004832E+01  6.743495762E-07  0.00000E+00  9.000E+00
#rwgt            1           1   1.8019007399212431E-002           9      291429           0
</event>
<event>
      5   9999  3.19816E-02  7.70303E+01 -1.00000E+00  1.29150E-01
      21    -1     0     0   502   501  0.000000000E+00  0.000000000E+00  3.905237970E+02  3.905237970E+02  0.000000000E+00  0.00000E+00  9.000E+00
       2    -1     0     0   501     0  0.000000000E+00  0.000000000E+00 -1.520885453E+03  1.520885453E+03  0.000000000E+00  0.00000E+00  9.000E+00
      25     1     1     2     0     0  5.453563300E+01  2.965873624E+02  1.056249185E+02  3.431032238E+02  1.250000000E+02  0.00000E+00  9.000E+00
      25     1     1     2     0     0 -1.165451172E+02 -3.422873777E+02 -5.699811600E+01  3.868038244E+02  1.250000000E+02  0.00000E+00  9.000E+00
       2     1     1     2   502     0  6.200948423E+01  4.570001538E+01 -1.178988458E+03  1.181502201E+03  1.525878906E-05  0.00000E+00  9.000E+00
#rwgt            1           1   2.6032625269444280E-002           9      291522           0
</event>
<event>
      5   9999  3.19816E-02  1.31873E+02 -1.00000E+00  1.18654E-01
      -4    -1     0     0     0   501  0.000000000E+00  0.000000000E+00  1.973659845E+03  1.973659845E+03  0.000000000E+00  0.00000E+00  9.000E+00
      21    -1     0     0   501   502  0.000000000E+00  0.000000000E+00 -2.849512966E+02  2.849512966E+02  0.000000000E+00  0.00000E+00  9.000E+00
      25     1     1     2     0     0 -3.287516894E+02 -2.463687797E+02 -5.364209840E+01  4.327559631E+02  1.250000000E+02  0.00000E+00  9.000E+00
      25     1     1     2     0     0  1.985282120E+02  2.255732249E+02  6.640033473E+02  7.394742565E+02  1.250000000E+02  0.00000E+00  9.000E+00
      -4     1     1     2     0   502  1.302234774E+02  2.079555480E+01  1.078347300E+03  1.086380922E+03  1.525878906E-05  0.00000E+00  9.000E+00
#rwgt            1           1   3.2688497185915356E-002           9      291580           0
</event>
<event>
      5   9999  3.19816E-02  1.26525E+02 -1.00000E+00  1.19400E-01
      21    -1     0     0   511   501  0.000000000E+00  0.000000000E+00  1.080688806E+03  1.080688806E+03  0.000000000E+00  0.00000E+00  9.000E+00
      21    -1     0     0   501   502  0.000000000E+00  0.000000000E+00 -4.819001748E+02  4.819001748E+02  0.000000000E+00  0.00000E+00  9.000E+00
      25     1     1     2     0     0  4.721648382E+01 -3.605634853E+02 -8.456708996E+01  3.937156537E+02  1.250000000E+02  0.00000E+00  9.000E+00
      25     1     1     2     0     0 -1.399747208E+01  2.384774014E+02 -1.617073616E+02  3.143909525E+02  1.250000000E+02  0.00000E+00  9.000E+00
      21     1     1     2   511   502 -3.321901174E+01  1.220860839E+02  8.450630831E+02  8.544823749E+02  1.078959322E-05  0.00000E+00  9.000E+00
#rwgt            1           1   3.0860145072373169E-002           9      291744           0
</event>
<event>
      5   9999  3.19816E-02  6.04131E+01 -1.00000E+00  1.34544E-01
      21    -1     0     0   512   501  0.000000000E+00  0.000000000E+00  4.376924729E+02  4.376924729E+02  0.000000000E+00  0.00000E+00  9.000E+00
      21    -1     0     0   501   502  0.000000000E+00  0.000000000E+00 -1.473897259E+02  1.473897259E+02  0.000000000E+00  0.00000E+00  9.000E+00
      25     1     1     2     0     0 -1.712731798E+01  1.888947865E+02  1.120231858E+02  2.532760935E+02  1.250000000E+02  0.00000E+00  9.000E+00
      25     1     1     2     0     0 -3.782399469E+01 -1.637929830E+02  9.783995489E+01  2.312065151E+02  1.250000000E+02  0.00000E+00  9.000E+00
      21     1     1     2   512   502  5.495131267E+01 -2.510180346E+01  8.043960624E+01  1.005995902E+02  0.000000000E+00  0.00000E+00  9.000E+00
#rwgt            1           1   2.7118723120220786E-002           9      291814           0
</event>
<event>
      5   9999  3.19816E-02  2.82619E+02 -1.00000E+00  1.06441E-01
      21    -1     0     0   502   501  0.000000000E+00  0.000000000E+00  1.454373831E+02  1.454373831E+02  0.000000000E+00  0.00000E+00  9.000E+00
      -2    -1     0     0     0   502  0.000000000E+00  0.000000000E+00 -1.512093190E+03  1.512093190E+03  0.000000000E+00  0.00000E+00  9.000E+00
      25     1     1     2     0     0 -3.865564566E+02 -1.864899211E+01 -5.005717451E+02  6.449579452E+02  1.250000000E+02  0.00000E+00  9.000E+00
      25     1     1     2     0     0  1.381455326E+02  1.534292718E+02 -3.743359047E+02  4.453954413E+02  1.250000000E+02  0.00000E+00  9.000E+00
      -2     1     1     2     0   501  2.484109240E+02 -1.347802797E+02 -4.917481572E+02  5.671771867E+02  5.394796609E-06  0.00000E+00  9.000E+00
#rwgt            2           9   4.8384317855549081E-005           9      292023           0
</event>
<event>
      5   9999  3.19816E-02  3.92077E+01 -1.00000E+00  1.45381E-01
      -1    -1     0     0     0   501  0.000000000E+00  0.000000000E+00  5.275188142E+02  5.275188142E+02  0.000000000E+00  0.00000E+00  9.000E+00
      21    -1     0     0   501   502  0.000000000E+00  0.000000000E+00 -1.343905397E+03  1.343905397E+03  0.000000000E+00  0.00000E+00  9.000E+00
      25     1     1     2     0     0 -1.505211191E+02 -1.108510557E+02 -7.201834213E+02  7.544757943E+02  1.250000000E+02  0.00000E+00  9.000E+00
      25     1     1     2     0     0  1.844847548E+02  9.126249835E+01 -5.818546496E+02  6.297168424E+02  1.250000000E+02  0.00000E+00  9.000E+00
      -1     1     1     2     0   502 -3.396363572E+01  1.958855740E+01  4.856514877E+02  4.872315750E+02  9.344061824E-06  0.00000E+00  9.000E+00
#rwgt            1           1   2.9861181401501229E-002           9      292042           0
</event>
<event>
      5   9999  3.19816E-02  2.30916E+01 -1.00000E+00  1.61378E-01
      21    -1     0     0   502   501  0.000000000E+00  0.000000000E+00  5.484674554E+02  5.484674554E+02  0.000000000E+00  0.00000E+00  9.000E+00
      21    -1     0     0   501   511  0.000000000E+00  0.000000000E+00 -2.538432477E+02  2.538432477E+02  0.000000000E+00  0.00000E+00  9.000E+00
      25     1     1     2     0     0 -9.531291319E+01  2.904802224E+02  1.944758303E+01  3.308572495E+02  1.250000000E+02  0.00000E+00  9.000E+00
      25     1     1     2     0     0  9.635964865E+01 -3.135480631E+02  2.785441321E+02  4.481176221E+02  1.250000000E+02  0.00000E+00  9.000E+00
      21     1     1     2   502   511 -1.046735461E+00  2.306784063E+01 -3.367507458E+00  2.333583152E+01  3.009887021E-07  0.00000E+00  9.000E+00
#rwgt            1           1   2.5877575371729428E-002           9      292133           0
</event>
<event>
      5   9999  3.19816E-02  3.29307E+02 -1.00000E+00  1.04293E-01
      21    -1     0     0   512   501  0.000000000E+00  0.000000000E+00  3.601292288E+02  3.601292288E+02  0.000000000E+00  0.00000E+00  9.000E+00
      21    -1     0     0   501   502  0.000000000E+00  0.000000000E+00 -6.114860614E+02  6.114860614E+02  0.000000000E+00  0.00000E+00  9.000E+00
      25     1     1     2     0     0  7.230285414E+01  1.053768323E+01 -2.675234194E+02  3.041915933E+02  1.250000000E+02  0.00000E+00  9.000E+00
      25     1     1     2     0     0  7.666569726E+01 -3.042237640E+02 -2.935551629E-03  3.377198953E+02  1.250000000E+02  0.00000E+00  9.000E+00
      21     1     1     2   512   502 -1.489685514E+02  2.936860807E+02  1.616952236E+01  3.297038016E+02  6.450533513E-06  0.00000E+00  9.000E+00
#rwgt            2          11   3.2004615936725867E-003           9      292538           0
</event>
<event>
      5   9999  3.19816E-02  3.87114E+01 -1.00000E+00  1.45728E-01
      21    -1     0     0   511   501  0.000000000E+00  0.000000000E+00  7.430229684E+02  7.430229684E+02  0.000000000E+00  0.00000E+00  9.000E+00
      21    -1     0     0   501   502  0.000000000E+00  0.000000000E+00 -4.035455438E+01  4.035455438E+01  0.000000000E+00  0.00000E+00  9.000E+00
      25     1     1     2     0     0 -1.168872305E+01 -6.597702046E+01  3.334937962E+02  3.623985452E+02  1.250000000E+02  0.00000E+00  9.000E+00
      25     1     1     2     0     0  4.817287048E+00  1.040736977E+02  2.817143081E+02  3.253344313E+02  1.250000000E+02  0.00000E+00  9.000E+00
      21     1     1     2   511   502  6.871435998E+00 -3.809667725E+01  8.746030976E+01  9.564454628E+01  1.348699152E-06  0.00000E+00  9.000E+00
#rwgt            1           1   6.1373780537381420E-002           9      292558           0
</event>
<event>
      5   9999  3.19816E-02  6.14128E+02 -1.00000E+00  9.63799E-02
       1    -1     0     0   502     0  0.000000000E+00  0.000000000E+00  1.717340004E+03  1.717340004E+03  0.000000000E+00  0.00000E+00  9.000E+00
      21    -1     0     0   501   502  0.000000000E+00  0.000000000E+00 -1.520111714E+03  1.520111714E+03  0.000000000E+00  0.00000E+00  9.000E+00
      25     1     1     2     0     0 -2.750334052E+01 -5.076831983E+02 -6.232179080E+02  8.139559106E+02  1.250000000E+02  0.00000E+00  9.000E+00
      25     1     1     2     0     0 -3.177881576E+02 -1.823734721E-01 -7.026563423E+02  7.812427803E+02  1.250000000E+02  0.00000E+00  9.000E+00
       1     1     1     2   501     0  3.452914981E+02  5.078655717E+02  1.523102540E+03  1.642253027E+03  2.157918644E-05  0.00000E+00  9.000E+00
#rwgt            1           1   2.8273852356919985E-002           9      292649           0
</event>
<event>
      5   9999  3.19816E-02  7.32251E+01 -1.00000E+00  1.30238E-01
      21    -1     0     0   502   501  0.000000000E+00  0.000000000E+00  3.636219513E+02  3.636219513E+02  0.000000000E+00  0.00000E+00  9.000E+00
       2    -1     0     0   501     0  0.000000000E+00  0.000000000E+00 -1.061604118E+03  1.061604118E+03  0.000000000E+00  0.00000E+00  9.000E+00
      25     1     1     2     0     0  1.481991102E+02  1.370439142E+02  2.513193594E+02  3.457317328E+02  1.250000000E+02  0.00000E+00  9.000E+00
      25     1     1     2     0     0 -1.891068816E+02 -1.977767363E+02 -2.957895551E+02  4.218927719E+02  1.250000000E+02  0.00000E+00  9.000E+00
       2     1     1     2   502     0  4.090777138E+01  6.073282211E+01 -6.535119705E+02  6.576015640E+02  7.629394531E-06  0.00000E+00  9.000E+00
#rwgt            1           1   2.8794721876093679E-002           9      292691           0
</event>
<event>
      5   9999  3.19816E-02  2.60920E+01 -1.00000E+00  1.57373E-01
      21    -1     0     0   511   501  0.000000000E+00  0.000000000E+00  2.864719069E+02  2.864719069E+02  0.000000000E+00  0.00000E+00  9.000E+00
      21    -1     0     0   501   502  0.000000000E+00  0.000000000E+00 -2.008807432E+03  2.008807432E+03  0.000000000E+00  0.00000E+00  9.000E+00
      25     1     1     2     0     0  7.456575416E+01 -5.693340249E+02 -2.418591225E+02  6.354699983E+02  1.250000000E+02  0.00000E+00  9.000E+00
      25     1     1     2     0     0 -7.144479136E+01  5.952387461E+02 -1.504486244E+03  1.624351372E+03  1.250000000E+02  0.00000E+00  9.000E+00
      21     1     1     2   511   502 -3.120962796E+00 -2.590472112E+01  2.400984165E+01  3.545796781E+01  1.066240300E-06  0.00000E+00  9.000E+00
#rwgt            1           1   3.1493939436954908E-002           9      292791           0
</event>
<event>
      5   9999  3.19816E-02  1.03518E+02 -1.00000E+00  1.23156E-01
      21    -1     0     0   502   501  0.000000000E+00  0.000000000E+00  3.165829061E+03  3.165829061E+03  0.000000000E+00  0.00000E+00  9.000E+00
      21    -1     0     0   512   502  0.000000000E+00  0.000000000E+00 -5.171319163E+02  5.171319163E+02  0.000000000E+00  0.00000E+00  9.000E+00
      25     1     1     2     0     0  2.886992751E+01 -3.363834507E+02  3.016202231E+03  3.037612252E+03  1.250000000E+02  0.00000E+00  9.000E+00
      25     1     1     2     0     0  5.671265406E+01  2.781453243E+02 -5.353997956E+01  3.147581230E+02  1.250000000E+02  0.00000E+00  9.000E+00
      21     1     1     2   512   501 -8.558258157E+01  5.823812638E+01 -3.139651068E+02  3.305906017E+02  5.394796609E-06  0.00000E+00  9.000E+00
#rwgt            1           1   5.6328803060878424E-002           9      293088           0
</event>
<event>
      5   9999  3.19816E-02  1.02483E+02 -1.00000E+00  1.23351E-01
      21    -1     0     0   502   501  0.000000000E+00  0.000000000E+00  9.440270409E+01  9.440270409E+01  0.000000000E+00  0.00000E+00  9.000E+00
       2    -1     0     0   501     0  0.000000000E+00  0.000000000E+00 -2.027690546E+03  2.027690546E+03  0.000000000E+00  0.00000E+00  9.000E+00
      25     1     1     2     0     0  3.743634136E+01  9.777004032E+01  9.289328575E+00  1.633148862E+02  1.250000000E+02  0.00000E+00  9.000E+00
      25     1     1     2     0     0 -5.157007266E+00 -5.035985370E-01 -6.359963716E+02  6.481845671E+02  1.250000000E+02  0.00000E+00  9.000E+00
       2     1     1     2   502     0 -3.227933409E+01 -9.726644178E+01 -1.306580799E+03  1.310593797E+03  3.051757812E-05  0.00000E+00  9.000E+00
#rwgt            1           1   2.8209119123561218E-002           9      293190           0
</event>
<event>
      5   9999  3.19816E-02  4.38624E+01 -1.00000E+00  1.42400E-01
      21    -1     0     0   502   501  0.000000000E+00  0.000000000E+00  6.083971330E+02  6.083971330E+02  0.000000000E+00  0.00000E+00  9.000E+00
      21    -1     0     0   501   511  0.000000000E+00  0.000000000E+00 -8.202495604E+01  8.202495604E+01  0.000000000E+00  0.00000E+00  9.000E+00
      25     1     1     2     0     0  4.280011708E+01 -1.312036031E+02  1.114816447E+02  2.170239448E+02  1.250000000E+02  0.00000E+00  9.000E+00
      25     1     1     2     0     0 -5.837708481E+00  1.075880462E+02  3.887723132E+02  4.223484083E+02  1.250000000E+02  0.00000E+00  9.000E+00
      21     1     1     2   502   511 -3.696240860E+01  2.361555685E+01  2.611821906E+01  5.104973596E+01  3.371747881E-07  0.00000E+00  9.000E+00
#rwgt            1           1   3.0423221240439995E-002           9      293247           0
</event>
<event>
      5   9999  3.19816E-02  3.31992E+01 -1.00000E+00  1.50045E-01
      21    -1     0     0   502   501  0.000000000E+00  0.000000000E+00  6.653871691E+01  6.653871691E+01  0.000000000E+00  0.00000E+00  9.000E+00
      21    -1     0     0   501   512  0.000000000E+00  0.000000000E+00 -6.832634468E+02  6.832634468E+02  0.000000000E+00  0.00000E+00  9.000E+00
      25     1     1     2     0     0 -9.988977934E+01  9.230161449E+01 -2.332212121E+02  2.975141843E+02  1.250000000E+02  0.00000E+00  9.000E+00
      25     1     1     2     0     0  8.747674713E+01 -1.230928894E+02 -2.675841035E+02  3.317081445E+02  1.250000000E+02  0.00000E+00  9.000E+00
      21     1     1     2   502   512  1.241303221E+01  3.079127494E+01 -1.159194142E+02  1.205798349E+02  0.000000000E+00  0.00000E+00  9.000E+00
#rwgt            1           1   2.6795631046160413E-002           9      293364           0
</event>
<event>
      5   9999  3.19816E-02  1.58718E+02 -1.00000E+00  1.15429E-01
      21    -1     0     0   502   511  0.000000000E+00  0.000000000E+00  4.936093360E+02  4.936093360E+02  0.000000000E+00  0.00000E+00  9.000E+00
      21    -1     0     0   501   502  0.000000000E+00  0.000000000E+00 -3.761979005E+02  3.761979005E+02  0.000000000E+00  0.00000E+00  9.000E+00
      25     1     1     2     0     0 -1.650651888E+02  2.461576785E+02  2.647958734E+00  3.216708425E+02  1.250000000E+02  0.00000E+00  9.000E+00
      25     1     1     2     0     0  2.417725314E+02 -1.072061202E+02 -7.377328539E+01  3.016862721E+02  1.250000000E+02  0.00000E+00  9.000E+00
      21     1     1     2   501   511 -7.670734256E+01 -1.389515583E+02  1.885367621E+02  2.464501219E+02  2.697398305E-06  0.00000E+00  9.000E+00
#rwgt            1           1   2.8359777442760442E-002           9      293502           0
</event>
<event>
      5   9999  3.19816E-02  3.99833E+01 -1.00000E+00  1.44851E-01
       2    -1     0     0   502     0  0.000000000E+00  0.000000000E+00  6.371801468E+02  6.371801468E+02  0.000000000E+00  0.00000E+00  9.000E+00
      21    -1     0     0   501   502  0.000000000E+00  0.000000000E+00 -1.034773947E+03  1.034773947E+03  0.000000000E+00  0.00000E+00  9.000E+00
      25     1     1     2     0     0  3.907552436E+02 -3.712081658E+02 -4.862380341E+02  7.365715095E+02  1.250000000E+02  0.00000E+00  9.000E+00
      25     1     1     2     0     0 -4.132762228E+02  4.042455441E+02 -2.148371094E+02  6.292786980E+02  1.250000000E+02  0.00000E+00  9.000E+00
       2     1     1     2   501     0  2.252097915E+01 -3.303737828E+01  3.034813438E+02  3.061038858E+02  0.000000000E+00  0.00000E+00  9.000E+00
#rwgt            1           1   3.0144907263035207E-002           9      293570           0
</event>
<event>
      5   9999  3.19816E-02  4.94006E+01 -1.00000E+00  1.39375E-01
      21    -1     0     0   502   501  0.000000000E+00  0.000000000E+00  7.147566263E+02  7.147566263E+02  0.000000000E+00  0.00000E+00  9.000E+00
      21    -1     0     0   511   502  0.000000000E+00  0.000000000E+00 -9.929538075E+01  9.929538075E+01  0.000000000E+00  0.00000E+00  9.000E+00
      25     1     1     2     0     0 -2.154449626E+00 -1.386525598E+02  2.353640344E+02  3.004170479E+02  1.250000000E+02  0.00000E+00  9.000E+00
      25     1     1     2     0     0  1.654298683E+01  9.139382844E+01  4.213927527E+02  4.492475424E+02  1.250000000E+02  0.00000E+00  9.000E+00
      21     1     1     2   511   501 -1.438853721E+01  4.725873131E+01 -4.129554154E+01  6.438741678E+01  1.348699152E-06  0.00000E+00  9.000E+00
#rwgt            1           1   2.6110898837977226E-002           9      293698           0
</event>
<event>
      5   9999  3.19816E-02  5.59072E+02  7.55638E-03  9.74935E-02
      -1    -1     0     0     0   501  0.000000000E+00  0.000000000E+00  4.289258620E+02  4.289258620E+02  0.000000000E+00  0.00000E+00  9.000E+00
       1    -1     0     0   502     0  0.000000000E+00  0.000000000E+00 -1.532700492E+03  1.532700492E+03  0.000000000E+00  0.00000E+00  9.000E+00
      25     1     1     2     0     0 -6.333633808E+02 -2.424677318E+02 -4.619099558E+02  8.300154098E+02  1.250000000E+02  0.00000E+00  9.000E+00
      25     1     1     2     0     0  1.587380305E+02 -5.298487011E+01 -5.186370640E+02  5.591194532E+02  1.250000000E+02  0.00000E+00  9.000E+00
      21     1     1     2   502   501  4.746253503E+02  2.954526019E+02 -1.232276099E+02  5.724914908E+02  2.336015456E-06  0.00000E+00  9.000E+00
#rwgt            3           5   1.6307704000873719E-005           9      293798           0
</event>
<event>
      5   9999  3.19816E-02  7.63623E+00 -1.00000E+00  2.10349E-01
      21    -1     0     0   502   501  0.000000000E+00  0.000000000E+00  9.648667418E+02  9.648667418E+02  0.000000000E+00  0.00000E+00  9.000E+00
      21    -1     0     0   511   502  0.000000000E+00  0.000000000E+00 -5.318030425E+01  5.318030425E+01  0.000000000E+00  0.00000E+00  9.000E+00
      25     1     1     2     0     0  4.111261516E+01 -1.337861957E+02  5.635789252E+02  5.939993251E+02  1.250000000E+02  0.00000E+00  9.000E+00
      25     1     1     2     0     0 -4.697310483E+01  1.288906180E+02  3.627857992E+02  4.075019020E+02  1.250000000E+02  0.00000E+00  9.000E+00
      21     1     1     2   511   501  5.860489668E+00  4.895577688E+00 -1.467828689E+01  1.654581899E+01  1.685873940E-07  0.00000E+00  9.000E+00
#rwgt            1           1   2.7616630891348311E-002           9      293817           0
</event>
<event>
      5   9999  3.19816E-02  4.44403E+02 -1.00000E+00  1.00328E-01
      21    -1     0     0   502   512  0.000000000E+00  0.000000000E+00  1.077247468E+03  1.077247468E+03  0.000000000E+00  0.00000E+00  9.000E+00
      21    -1     0     0   501   502  0.000000000E+00  0.000000000E+00 -1.351754091E+03  1.351754091E+03  0.000000000E+00  0.00000E+00  9.000E+00
      25     1     1     2     0     0 -9.948455175E+01  3.867130822E+02 -5.118404927E+02  6.610974769E+02  1.250000000E+02  0.00000E+00  9.000E+00
      25     1     1     2     0     0 -3.443322463E+02 -3.638971943E+02 -6.172108367E+02  8.047111785E+02  1.250000000E+02  0.00000E+00  9.000E+00
      21     1     1     2   501   512  4.438167981E+02 -2.281588791E+01  8.545447060E+02  9.631929036E+02  1.078959322E-05  0.00000E+00  9.000E+00
#rwgt            2          11   4.9350350041371550E-003           9      294060           0
</event>
<event>
      5   9999  3.19816E-02  2.36844E+01 -1.00000E+00  1.60530E-01
      21    -1     0     0   502   501  0.000000000E+00  0.000000000E+00  1.426399372E+03  1.426399372E+03  0.000000000E+00  0.00000E+00  9.000E+00
      21    -1     0     0   511   502  0.000000000E+00  0.000000000E+00 -2.570432413E+01  2.570432413E+01  0.000000000E+00  0.00000E+00  9.000E+00
      25     1     1     2     0     0  8.530036497E+01 -3.999896932E+01  8.836264236E+02  8.973832661E+02  1.250000000E+02  0.00000E+00  9.000E+00
      25     1     1     2     0     0 -8.579904561E+01  6.367812425E+01  4.975792734E+02  5.240481973E+02  1.250000000E+02  0.00000E+00  9.000E+00
      21     1     1     2   511   501  4.986806472E-01 -2.367915493E+01  1.948935070E+01  3.067223257E+01  9.233911863E-07  0.00000E+00  9.000E+00
#rwgt            1           1   4.1424802669068221E-002           9      294110           0
</event>
<event>
      5   9999  3.19816E-02  5.94660E+02 -1.00000E+00  9.67589E-02
      21    -1     0     0   502   501  0.000000000E+00  0.000000000E+00  2.897812003E+02  2.897812003E+02  0.000000000E+00  0.00000E+00  9.000E+00
      -1    -1     0     0     0   502  0.000000000E+00  0.000000000E+00 -1.875489961E+03  1.875489961E+03  0.000000000E+00  0.00000E+00  9.000E+00
      25     1     1     2     0     0 -1.334820008E+02 -2.239312374E+02 -9.603645456E+01  3.046483944E+02  1.250000000E+02  0.00000E+00  9.000E+00
      25     1     1     2     0     0 -4.606440292E+02  1.987453798E+02 -6.237380726E+02  8.101646937E+02  1.250000000E+02  0.00000E+00  9.000E+00
      -1     1     1     2     0   501  5.941260301E+02  2.518585762E+01 -8.659342339E+02  1.050458074E+03  0.000000000E+00  0.00000E+00  9.000E+00
#rwgt            2          10   4.7233593106991085E-005           9      294259           0
</event>
<event>
      5   9999  4.95690E-02  4.19927E+01 -1.00000E+00  1.43543E-01
      21    -1     0     0   502   511  0.000000000E+00  0.000000000E+00  2.218617123E+03  2.218617123E+03  0.000000000E+00  0.00000E+00  9.000E+00
      21    -1     0     0   501   502  0.000000000E+00  0.000000000E+00 -1.560724884E+01  1.560724884E+01  0.000000000E+00  0.00000E+00  9.000E+00
      25     1     1     2     0     0  5.996034772E+01  1.299481362E+01  4.480934522E+02  4.692300612E+02  1.250000000E+02  0.00000E+00  9.000E+00
      25     1     1     2     0     0 -5.042044333E+01 -5.388956736E+01  1.272148334E+03  1.280403332E+03  1.250000000E+02  0.00000E+00  9.000E+00
      21     1     1     2   501   511 -9.539904387E+00  4.089475374E+01  4.827680877E+02  4.845909792E+02  5.394796609E-06  0.00000E+00  9.000E+00
#rwgt            1           1  0.24671155824039109                9      294293           0
</event>
<event>
      5   9999  3.19816E-02  1.29253E+02 -1.00000E+00  1.19015E-01
       2    -1     0     0   502     0  0.000000000E+00  0.000000000E+00  4.102519526E+02  4.102519526E+02  0.000000000E+00  0.00000E+00  9.000E+00
      21    -1     0     0   501   502  0.000000000E+00  0.000000000E+00 -3.934003702E+02  3.934003702E+02  0.000000000E+00  0.00000E+00  9.000E+00
      25     1     1     2     0     0 -1.155792680E+02  9.988447190E+01 -2.981662647E+02  3.575801956E+02  1.250000000E+02  0.00000E+00  9.000E+00
      25     1     1     2     0     0  1.326971267E+02  2.822952405E+01  1.596022671E+02  2.439330177E+02  1.250000000E+02  0.00000E+00  9.000E+00
       2     1     1     2   501     0 -1.711785873E+01 -1.281139959E+02  1.554155800E+02  2.021391094E+02  2.697398305E-06  0.00000E+00  9.000E+00
#rwgt            1           1   2.6960183883594030E-002           9      294405           0
</event>
<event>
      5   9999  3.19816E-02  1.22981E+02 -1.00000E+00  1.19918E-01
      21    -1     0     0   511   501  0.000000000E+00  0.000000000E+00  3.131023365E+03  3.131023365E+03  0.000000000E+00  0.00000E+00  9.000E+00
      21    -1     0     0   501   502  0.000000000E+00  0.000000000E+00 -2.996715702E+02  2.996715702E+02  0.000000000E+00  0.00000E+00  9.000E+00
      25     1     1     2     0     0  7.383115139E+02  5.334982484E+02  9.117446976E+02  1.294846580E+03  1.250000000E+02  0.00000E+00  9.000E+00
      25     1     1     2     0     0 -6.753982501E+02 -4.278273659E+02  1.590650651E+03  1.784655021E+03  1.250000000E+02  0.00000E+00  9.000E+00
      21     1     1     2   511   502 -6.291326382E+01 -1.056708825E+02  3.289564459E+02  3.511933335E+02  3.814697266E-06  0.00000E+00  9.000E+00
#rwgt            1           1   2.9610795742823531E-002           9      294486           0
</event>
<event>
      5   9999  3.19816E-02  1.31963E+02 -1.00000E+00  1.18642E-01
      21    -1     0     0   502   501  0.000000000E+00  0.000000000E+00  1.891849772E+02  1.891849772E+02  0.000000000E+00  0.00000E+00  9.000E+00
      21    -1     0     0   501   512  0.000000000E+00  0.000000000E+00 -1.229325735E+03  1.229325735E+03  0.000000000E+00  0.00000E+00  9.000E+00
      25     1     1     2     0     0  1.124106304E+02  2.991422490E+02 -4.502924701E+02  5.661365061E+02  1.250000000E+02  0.00000E+00  9.000E+00
      25     1     1     2     0     0 -1.527614147E+02 -4.247851189E+02 -3.740730169E+02  5.994448007E+02  1.250000000E+02  0.00000E+00  9.000E+00
      21     1     1     2   502   512  4.035078430E+01  1.256428700E+02 -2.157752705E+02  2.529294050E+02  2.697398305E-06  0.00000E+00  9.000E+00
#rwgt            1           1   2.3366625412276649E-002           9      294569           0
</event>
<event>
      5   9999  3.19816E-02  5.48633E+01 -1.00000E+00  1.36814E-01
      21    -1     0     0   502   501  0.000000000E+00  0.000000000E+00  3.767995068E+02  3.767995068E+02  0.000000000E+00  0.00000E+00  9.000E+00
      21    -1     0     0   511   502  0.000000000E+00  0.000000000E+00 -6.044341254E+02  6.044341254E+02  0.000000000E+00  0.00000E+00  9.000E+00
      25     1     1     2     0     0 -8.060929763E+01 -1.999032042E+02  2.848468130E+02  3.784466367E+02  1.250000000E+02  0.00000E+00  9.000E+00
      25     1     1     2     0     0  1.319770439E+02  1.806331450E+02 -3.697430410E+02  4.498679690E+02  1.250000000E+02  0.00000E+00  9.000E+00
      21     1     1     2   511   501 -5.136774626E+01  1.927005927E+01 -1.427383906E+02  1.529190266E+02  1.907348633E-06  0.00000E+00  9.000E+00
#rwgt            1           1   2.9368505355803976E-002           9      294634           0
</event>
<event>
      5   9999  3.19816E-02  4.40686E+01 -1.00000E+00  1.42278E-01
      21    -1     0     0   502   501  0.000000000E+00  0.000000000E+00  1.189843466E+03  1.189843466E+03  0.000000000E+00  0.00000E+00  9.000E+00
      21    -1     0     0   501   512  0.000000000E+00  0.000000000E+00 -1.195719601E+02  1.195719601E+02  0.000000000E+00  0.00000E+00  9.000E+00
      25     1     1     2     0     0  2.145911707E+01 -3.029285057E+02  5.945069038E+02  6.791830621E+02  1.250000000E+02  0.00000E+00  9.000E+00
      25     1     1     2     0     0  2.260472271E+01  3.035775256E+02  4.841205895E+02  5.853785380E+02  1.250000000E+02  0.00000E+00  9.000E+00
      21     1     1     2   502   512 -4.406383978E+01 -6.490199068E-01 -8.355987123E+00  4.485382619E+01  4.915124924E-07  0.00000E+00  9.000E+00
#rwgt            1           1   3.2279194798171089E-002           9      294760           0
</event>
<event>
      5   9999  3.19816E-02  2.23128E+01 -1.00000E+00  1.62541E-01
      21    -1     0     0   502   501  0.000000000E+00  0.000000000E+00  1.750835769E+02  1.750835769E+02  0.000000000E+00  0.00000E+00  9.000E+00
      21    -1     0     0   511   502  0.000000000E+00  0.000000000E+00 -3.840838999E+02  3.840838999E+02  0.000000000E+00  0.00000E+00  9.000E+00
      25     1     1     2     0     0 -1.624568589E+02  9.030718822E+01  1.028337050E+01  2.242283812E+02  1.250000000E+02  0.00000E+00  9.000E+00
      25     1     1     2     0     0  1.437542983E+02 -7.813856682E+01 -1.313784613E+02  2.442462569E+02  1.250000000E+02  0.00000E+00  9.000E+00
      21     1     1     2   511   501  1.870256056E+01 -1.216862140E+01 -8.790523219E+01  9.069283855E+01  1.348699152E-06  0.00000E+00  9.000E+00
#rwgt            1           1   2.6967848069134760E-002           9      294883           0
</event>
<event>
      5   9999  3.19816E-02  3.28920E+01 -1.00000E+00  1.50315E-01
      21    -1     0     0   502   501  0.000000000E+00  0.000000000E+00  4.289259145E+02  4.289259145E+02  0.000000000E+00  0.00000E+00  9.000E+00
      21    -1     0     0   501   512  0.000000000E+00  0.000000000E+00 -1.159525879E+02  1.159525879E+02  0.000000000E+00  0.00000E+00  9.000E+00
      25     1     1     2     0     0  9.594222468E+01  3.077633622E+01  6.733926695E-01  1.605538751E+02  1.250000000E+02  0.00000E+00  9.000E+00
      25     1     1     2     0     0 -1.069126864E+02 -6.178496813E+01  3.028028730E+02  3.500889668E+02  1.250000000E+02  0.00000E+00  9.000E+00
      21     1     1     2   502   512  1.097046176E+01  3.100863191E+01  9.497060956E+00  3.423566052E+01  1.192092896E-07  0.00000E+00  9.000E+00
#rwgt            1           1   2.5191500531873582E-002           9      295017           0
</event>
<event>
      5   9999  3.19816E-02  1.60567E+01 -1.00000E+00  1.74643E-01
      21    -1     0     0   502   501  0.000000000E+00  0.000000000E+00  1.107339663E+02  1.107339663E+02  0.000000000E+00  0.00000E+00  9.000E+00
      21    -1     0     0   501   511  0.000000000E+00  0.000000000E+00 -2.979261808E+02  2.979261808E+02  0.000000000E+00  0.00000E+00  9.000E+00
      25     1     1     2     0     0  9.011100438E+00 -3.366790998E+01 -1.997532037E+02  2.382038423E+02  1.250000000E+02  0.00000E+00  9.000E+00
      25     1     1     2     0     0 -2.506088114E+01  3.319577220E+01  4.085130921E+01  1.379269246E+02  1.250000000E+02  0.00000E+00  9.000E+00
      21     1     1     2   502   511  1.604978071E+01  4.721377812E-01 -2.829031999E+01  3.252938025E+01  4.768371582E-07  0.00000E+00  9.000E+00
#rwgt            1           1   3.2443837078879156E-002           9      295103           0
</event>
<event>
      5   9999  3.19816E-02  2.58729E+02 -1.00000E+00  1.07723E-01
      21    -1     0     0   502   501  0.000000000E+00  0.000000000E+00  2.371622750E+02  2.371622750E+02  0.000000000E+00  0.00000E+00  9.000E+00
      21    -1     0     0   501   512  0.000000000E+00  0.000000000E+00 -1.575158195E+03  1.575158195E+03  0.000000000E+00  0.00000E+00  9.000E+00
      25     1     1     2     0     0  3.209829898E+02 -1.981139856E+01 -5.789716864E+02  6.739850035E+02  1.250000000E+02  0.00000E+00  9.000E+00
      25     1     1     2     0     0 -4.987885895E+02  2.077637886E+02 -3.547336235E+02  6.583439774E+02  1.250000000E+02  0.00000E+00  9.000E+00
      21     1     1     2   502   512  1.778055998E+02 -1.879523900E+02 -4.042906104E+02  4.799914894E+02  5.394796609E-06  0.00000E+00  9.000E+00
#rwgt            1           1   2.5495858058356326E-002           9      295262           0
</event>
<event>
      5   9999  3.19816E-02  1.45243E+02 -1.00000E+00  1.16951E-01
      21    -1     0     0   502   501  0.000000000E+00  0.000000000E+00  2.915726473E+02  2.915726473E+02  0.000000000E+00  0.00000E+00  9.000E+00
      21    -1     0     0   501   511  0.000000000E+00  0.000000000E+00 -1.688183365E+03  1.688183365E+03  0.000000000E+00  0.00000E+00  9.000E+00
      25     1     1     2     0     0 -4.144298831E+02 -9.390578594E+01 -1.382641249E+01  4.431552711E+02  1.250000000E+02  0.00000E+00  9.000E+00
      25     1     1     2     0     0  5.078269651E+02 -1.732576124E+01 -1.036728304E+03  1.161300557E+03  1.250000000E+02  0.00000E+00  9.000E+00
      21     1     1     2   502   511 -9.339708199E+01  1.112315472E+02 -3.460560020E+02  3.753001846E+02  5.394796609E-06  0.00000E+00  9.000E+00
#rwgt            2          11   4.2120175928471847E-003           9      295383           0
</event>
<event>
      5   9999  3.19816E-02  1.02954E+03 -1.00000E+00  9.06888E-02
       2    -1     0     0   502     0  0.000000000E+00  0.000000000E+00  2.377457798E+03  2.377457798E+03  0.000000000E+00  0.00000E+00  9.000E+00
      21    -1     0     0   501   502  0.000000000E+00  0.000000000E+00 -1.016900284E+03  1.016900284E+03  0.000000000E+00  0.00000E+00  9.000E+00
      25     1     1     2     0     0  1.255178888E+03 -4.228696903E+02  6.541029623E+02  1.482487269E+03  1.250000000E+02  0.00000E+00  9.000E+00
      25     1     1     2     0     0 -2.288262122E+02  3.419742580E+02  7.683157289E+02  8.804782154E+02  1.250000000E+02  0.00000E+00  9.000E+00
       2     1     1     2   501     0 -1.026352676E+03  8.089543224E+01 -6.186117663E+01  1.031392598E+03  1.809469792E-05  0.00000E+00  9.000E+00
#rwgt            2          18   4.2255549926028033E-004           9      295403           0
</event>
<event>
      5   9999  3.19816E-02  4.77416E+01 -1.00000E+00  1.40231E-01
      21    -1     0     0   502   501  0.000000000E+00  0.000000000E+00  3.640912829E+03  3.640912829E+03  0.000000000E+00  0.00000E+00  9.000E+00
      21    -1     0     0   501   511  0.000000000E+00  0.000000000E+00 -8.049815855E+02  8.049815855E+02  0.000000000E+00  0.00000E+00  9.000E+00
      25     1     1     2     0     0  1.142412806E+03 -7.418343623E+02  1.251202725E+03  1.853795700E+03  1.250000000E+02  0.00000E+00  9.000E+00
      25     1     1     2     0     0 -1.190083323E+03  7.392295901E+02  1.849205243E+03  2.323347527E+03  1.250000000E+02  0.00000E+00  9.000E+00
      21     1     1     2   502   511  4.767051659E+01  2.604772146E+00 -2.644767239E+02  2.687511869E+02  8.529922400E-06  0.00000E+00  9.000E+00
#rwgt            1           1   2.9183511263755429E-002           9      295422           0
</event>
<event>
      5   9999  3.19816E-02  2.00761E+02 -1.00000E+00  1.11588E-01
       2    -1     0     0   502     0  0.000000000E+00  0.000000000E+00  7.403117884E+02  7.403117884E+02  0.000000000E+00  0.00000E+00  9.000E+00
      21    -1     0     0   501   502  0.000000000E+00  0.000000000E+00 -5.226856498E+02  5.226856498E+02  0.000000000E+00  0.00000E+00  9.000E+00
      25     1     1     2     0     0 -1.572910540E+02  1.717100394E+02  4.876997024E+02  5.547078628E+02  1.250000000E+02  0.00000E+00  9.000E+00
      25     1     1     2     0     0  3.579610683E+02 -1.656725887E+02 -6.067450454E+01  4.181984321E+02  1.250000000E+02  0.00000E+00  9.000E+00
       2     1     1     2   501     0 -2.006700142E+02 -6.037450687E+00 -2.093990593E+02  2.900911434E+02  5.394796609E-06  0.00000E+00  9.000E+00
#rwgt            1           1   3.0393634827996150E-002           9      295626           0
</event>
<event>
      5   9999  3.19816E-02  6.63676E+01 -1.00000E+00  1.32404E-01
      21    -1     0     0   502   511  0.000000000E+00  0.000000000E+00  2.278470464E+02  2.278470464E+02  0.000000000E+00  0.00000E+00  9.000E+00
      21    -1     0     0   501   502  0.000000000E+00  0.000000000E+00 -2.678945299E+02  2.678945299E+02  0.000000000E+00  0.00000E+00  9.000E+00
      25     1     1     2     0     0 -4.086876536E+01 -3.170926623E+01  6.822351464E+01  1.515096746E+02  1.250000000E+02  0.00000E+00  9.000E+00
      25     1     1     2     0     0  3.928809536E+01  9.805807536E+01 -1.821821788E+02  2.448964819E+02  1.250000000E+02  0.00000E+00  9.000E+00
      21     1     1     2   501   511  1.580669993E+00 -6.634880913E+01  7.391118066E+01  9.933541975E+01  9.536743164E-07  0.00000E+00  9.000E+00
#rwgt            1           1   2.7321351661961132E-002           9      295661           0
</event>
<event>
      5   9999  3.19816E-02  1.41386E+02 -1.00000E+00  1.17421E-01
      21    -1     0     0   512   501  0.000000000E+00  0.000000000E+00  5.776180167E+02  5.776180167E+02  0.000000000E+00  0.00000E+00  9.000E+00
      21    -1     0     0   501   502  0.000000000E+00  0.000000000E+00 -1.124940131E+02  1.124940131E+02  0.000000000E+00  0.00000E+00  9.000E+00
      25     1     1     2     0     0 -1.123653261E+01  1.237256636E+02  3.014736751E+02  3.492072111E+02  1.250000000E+02  0.00000E+00  9.000E+00
      25     1     1     2     0     0  6.708927292E+01  6.161068502E+00  2.753227806E+01  1.446442382E+02  1.250000000E+02  0.00000E+00  9.000E+00
      21     1     1     2   512   502 -5.585274031E+01 -1.298867321E+02  1.361180505E+02  1.962605805E+02  2.697398305E-06  0.00000E+00  9.000E+00
#rwgt            1           1   2.9466076896557870E-002           9      295719           0
</event>
<event>
      5   9999  3.37762E-02  1.18951E+02 -1.00000E+00  1.20530E-01
      21    -1     0     0   502   511  0.000000000E+00  0.000000000E+00  2.374254967E+02  2.374254967E+02  0.000000000E+00  0.00000E+00  9.000E+00
      21    -1     0     0   501   502  0.000000000E+00  0.000000000E+00 -2.229888512E+02  2.229888512E+02  0.000000000E+00  0.00000E+00  9.000E+00
      25     1     1     2     0     0 -5.334546016E+01  1.100000108E+02 -8.436207063E+01  1.941332003E+02  1.250000000E+02  0.00000E+00  9.000E+00
      25     1     1     2     0     0  5.671733636E+00 -1.020473316E+00  7.192996582E+01  1.443333985E+02  1.250000000E+02  0.00000E+00  9.000E+00
      21     1     1     2   501   511  4.767372653E+01 -1.089795375E+02  2.686875031E+01  1.219477492E+02  1.719260824E-06  0.00000E+00  9.000E+00
#rwgt            1           1   8.7960537846240042E-002           9      295767           0
</event>
<event>
      5   9999  3.19816E-02  8.12742E+01 -1.00000E+00  1.28018E-01
      21    -1     0     0   502   501  0.000000000E+00  0.000000000E+00  1.497101515E+03  1.497101515E+03  0.000000000E+00  0.00000E+00  9.000E+00
      21    -1     0     0   512   502  0.000000000E+00  0.000000000E+00 -2.391719111E+03  2.391719111E+03  0.000000000E+00  0.00000E+00  9.000E+00
      25     1     1     2     0     0  9.053385264E+02  2.165767450E+01 -8.035271188E+02  1.217122727E+03  1.250000000E+02  0.00000E+00  9.000E+00
      25     1     1     2     0     0 -9.565136267E+02  4.148194411E+01  1.108106656E+03  1.469749785E+03  1.250000000E+02  0.00000E+00  9.000E+00
      21     1     1     2   512   501  5.117510033E+01 -6.313961861E+01 -1.199197134E+03  1.201948114E+03  1.525878906E-05  0.00000E+00  9.000E+00
#rwgt            1           1   2.8054842984598195E-002           9      295837           0
</event>
<event>
      5   9999  3.19816E-02  9.30900E+01 -1.00000E+00  1.25243E-01
      21    -1     0     0   502   501  0.000000000E+00  0.000000000E+00  9.216642556E+02  9.216642556E+02  0.000000000E+00  0.00000E+00  9.000E+00
      21    -1     0     0   501   511  0.000000000E+00  0.000000000E+00 -8.110048011E+01  8.110048011E+01  0.000000000E+00  0.00000E+00  9.000E+00
      25     1     1     2     0     0  4.120559299E+01 -2.171191665E+01  3.031087428E+01  1.367956773E+02  1.250000000E+02  0.00000E+00  9.000E+00
      25     1     1     2     0     0 -1.342202649E+02  1.796691858E+01  6.883153517E+02  7.125594101E+02  1.250000000E+02  0.00000E+00  9.000E+00
      21     1     1     2   502   511  9.301467190E+01  3.744998069E+00  1.219375495E+02  1.534096483E+02  1.907348633E-06  0.00000E+00  9.000E+00
#rwgt            1           1   2.6572903476779094E-002           9      295979           0
</event>
<event>
      5   9999  3.19816E-02  1.20551E+02 -1.00000E+00  1.20284E-01
      21    -1     0     0   502   501  0.000000000E+00  0.000000000E+00  8.007266802E+02  8.007266802E+02  0.000000000E+00  0.00000E+00  9.000E+00
      21    -1     0     0   501   512  0.000000000E+00  0.000000000E+00 -2.878548762E+02  2.878548762E+02  0.000000000E+00  0.00000E+00  9.000E+00
      25     1     1     2     0     0 -2.461734705E+02 -4.360686769E+01 -1.305105953E+02  3.084816883E+02  1.250000000E+02  0.00000E+00  9.000E+00
      25     1     1     2     0     0  1.820927637E+02 -5.850185043E+01  6.152552192E+02  6.563110740E+02  1.250000000E+02  0.00000E+00  9.000E+00
      21     1     1     2   502   512  6.408070681E+01  1.021087181E+02  2.812718002E+01  1.237887942E+02  1.305872339E-06  0.00000E+00  9.000E+00
#rwgt            1           1   2.9119894351393449E-002           9      296026           0
</event>
<event>
      5   9999  3.19816E-02  2.60194E+01 -1.00000E+00  1.57462E-01
      21    -1     0     0   502   501  0.000000000E+00  0.000000000E+00  4.918602948E+02  4.918602948E+02  0.000000000E+00  0.00000E+00  9.000E+00
      21    -1     0     0   511   502  0.000000000E+00  0.000000000E+00 -1.260490159E+03  1.260490159E+03  0.000000000E+00  0.00000E+00  9.000E+00
      25     1     1     2     0     0 -4.746530386E+02 -1.329906760E+02  2.768448451E+02  5.790078542E+02  1.250000000E+02  0.00000E+00  9.000E+00
      25     1     1     2     0     0  4.788412834E+02  1.073105555E+02 -1.001583628E+03  1.122318713E+03  1.250000000E+02  0.00000E+00  9.000E+00
      21     1     1     2   511   501 -4.188244765E+00  2.568012055E+01 -4.389108179E+01  5.102388702E+01  0.000000000E+00  0.00000E+00  9.000E+00
#rwgt            1           1   3.3170218045525814E-002           9      296152           0
</event>
<event>
      5   9999  3.19816E-02  1.73213E+01 -1.00000E+00  1.71692E-01
      21    -1     0     0   502   512  0.000000000E+00  0.000000000E+00  1.063185697E+03  1.063185697E+03  0.000000000E+00  0.00000E+00  9.000E+00
      21    -1     0     0   501   502  0.000000000E+00  0.000000000E+00 -8.993125046E+02  8.993125046E+02  0.000000000E+00  0.00000E+00  9.000E+00
      25     1     1     2     0     0  5.334202792E+02  5.150986500E+02 -4.184198451E+02  8.605602711E+02  1.250000000E+02  0.00000E+00  9.000E+00
      25     1     1     2     0     0 -5.444833970E+02 -5.017706720E+02  2.834971447E+02  8.026403977E+02  1.250000000E+02  0.00000E+00  9.000E+00
      21     1     1     2   501   512  1.106311780E+01 -1.332797799E+01  2.987958928E+02  2.992975328E+02  0.000000000E+00  0.00000E+00  9.000E+00
#rwgt            1           1   3.0828562802072319E-002           9      296414           0
</event>
<event>
      5   9999  3.19816E-02  6.34788E+00 -1.00000E+00  2.21736E-01
      21    -1     0     0   511   501  0.000000000E+00  0.000000000E+00  7.211777725E+02  7.211777725E+02  0.000000000E+00  0.00000E+00  9.000E+00
      21    -1     0     0   501   502  0.000000000E+00  0.000000000E+00 -6.102283684E+01  6.102283684E+01  0.000000000E+00  0.00000E+00  9.000E+00
      25     1     1     2     0     0 -5.579263133E+01  3.812401971E+01  5.825310252E+02  5.996112523E+02  1.250000000E+02  0.00000E+00  9.000E+00
      25     1     1     2     0     0  5.448371064E+01 -4.433549030E+01  4.636806338E+01  1.506954138E+02  1.250000000E+02  0.00000E+00  9.000E+00
      21     1     1     2   511   502  1.308920695E+00  6.211470591E+00  3.125584713E+01  3.189394331E+01  0.000000000E+00  0.00000E+00  9.000E+00
#rwgt            1           1   2.5039435789266481E-002           9      296684           0
</event>
<event>
      5   9999  3.24960E-02  1.83376E+01 -1.00000E+00  1.69540E-01
      21    -1     0     0   502   501  0.000000000E+00  0.000000000E+00  1.566240238E+03  1.566240238E+03  0.000000000E+00  0.00000E+00  9.000E+00
      21    -1     0     0   501   512  0.000000000E+00  0.000000000E+00 -4.324013376E+02  4.324013376E+02  0.000000000E+00  0.00000E+00  9.000E+00
      25     1     1     2     0     0 -4.457746895E+02  2.237127396E+02 -9.655303940E+01  5.231729666E+02  1.250000000E+02  0.00000E+00  9.000E+00
      25     1     1     2     0     0  4.614260742E+02 -2.141575268E+02  1.301010110E+03  1.402508387E+03  1.250000000E+02  0.00000E+00  9.000E+00
      21     1     1     2   502   512 -1.565138475E+01 -9.555212779E+00 -7.061817067E+01  7.296022179E+01  1.348699152E-06  0.00000E+00  9.000E+00
#rwgt            1           1   3.2413565413027541E-002           9      296900           0
</event>
<event>
      5   9999  3.19816E-02  6.07299E+01 -1.00000E+00  1.34423E-01
      21    -1     0     0   502   511  0.000000000E+00  0.000000000E+00  1.136059548E+03  1.136059548E+03  0.000000000E+00  0.00000E+00  9.000E+00
      21    -1     0     0   501   502  0.000000000E+00  0.000000000E+00 -1.107238894E+02  1.107238894E+02  0.000000000E+00  0.00000E+00  9.000E+00
      25     1     1     2     0     0  9.749144789E+01 -1.167238772E+02  4.557167363E+00  1.969132136E+02  1.250000000E+02  0.00000E+00  9.000E+00
      25     1     1     2     0     0 -1.143036052E+02  5.836747189E+01  8.483115094E+02  8.670233520E+02  1.250000000E+02  0.00000E+00  9.000E+00
      21     1     1     2   501   511  1.681215731E+01  5.835640534E+01  1.724669821E+02  1.828468720E+02  1.907348633E-06  0.00000E+00  9.000E+00
#rwgt            1           1   2.9138258626823777E-002           9      297104           0
</event>
<event>
      5   9999  3.19816E-02  9.61560E+01 -1.00000E+00  1.24598E-01
      21    -1     0     0   512   501  0.000000000E+00  0.000000000E+00  1.006895813E+03  1.006895813E+03  0.000000000E+00  0.00000E+00  9.000E+00
      21    -1     0     0   501   502  0.000000000E+00  0.000000000E+00 -2.802905416E+02  2.802905416E+02  0.000000000E+00  0.00000E+00  9.000E+00
      25     1     1     2     0     0 -2.712218151E+02 -1.772966989E+02 -2.785626981E+01  3.484198103E+02  1.250000000E+02  0.00000E+00  9.000E+00
      25     1     1     2     0     0  2.290944076E+02  9.086028908E+01  1.272594124E+02  3.042364176E+02  1.250000000E+02  0.00000E+00  9.000E+00
      21     1     1     2   512   502  4.212740747E+01  8.643640983E+01  6.272021292E+02  6.345301272E+02  7.629394531E-06  0.00000E+00  9.000E+00
#rwgt            1           1   2.7756169076650336E-002           9      297195           0
</event>
<event>
      5   9999  3.19816E-02  4.72137E+01 -1.00000E+00  1.40511E-01
       2    -1     0     0   502     0  0.000000000E+00  0.000000000E+00  3.867499410E+02  3.867499410E+02  0.000000000E+00  0.00000E+00  9.000E+00
      21    -1     0     0   501   502  0.000000000E+00  0.000000000E+00 -1.064025166E+03  1.064025166E+03  0.000000000E+00  0.00000E+00  9.000E+00
      25     1     1     2     0     0 -2.795612334E+02 -3.129344105E+02 -6.376475123E+02  7.734996951E+02  1.250000000E+02  0.00000E+00  9.000E+00
      25     1     1     2     0     0  2.839993513E+02  2.659297185E+02 -2.383065629E+02  4.730637004E+02  1.250000000E+02  0.00000E+00  9.000E+00
       2     1     1     2   501     0 -4.438117895E+00  4.700469207E+01  1.986788497E+02  2.042117120E+02  2.697398305E-06  0.00000E+00  9.000E+00
#rwgt            1           1   2.9589114619577403E-002           9      297235           0
</event>
<event>
      5   9999  3.19816E-02  1.10675E+01 -1.00000E+00  1.90799E-01
      21    -1     0     0   511   501  0.000000000E+00  0.000000000E+00  2.169419974E+02  2.169419974E+02  0.000000000E+00  0.00000E+00  9.000E+00
      21    -1     0     0   501   502  0.000000000E+00  0.000000000E+00 -2.527213192E+02  2.527213192E+02  0.000000000E+00  0.00000E+00  9.000E+00
      25     1     1     2     0     0 -6.528152313E+01 -1.666195339E+02 -9.230915404E+01  2.370015322E+02  1.250000000E+02  0.00000E+00  9.000E+00
      25     1     1     2     0     0  7.038883548E+01  1.568009485E+02  4.612432063E+01  2.174708683E+02  1.250000000E+02  0.00000E+00  9.000E+00
      21     1     1     2   511   502 -5.107312348E+00  9.818585404E+00  1.040551158E+01  1.519091604E+01  2.064765462E-07  0.00000E+00  9.000E+00
#rwgt            1           1   2.4732597955345471E-002           9      297336           0
</event>
<event>
      5   9999  3.19816E-02  4.02313E+02 -1.00000E+00  1.01610E-01
      21    -1     0     0   502   501  0.000000000E+00  0.000000000E+00  8.519571569E+02  8.519571569E+02  0.000000000E+00  0.00000E+00  9.000E+00
       2    -1     0     0   501     0  0.000000000E+00  0.000000000E+00 -1.966240615E+03  1.966240615E+03  0.000000000E+00  0.00000E+00  9.000E+00
      25     1     1     2     0     0 -5.533415350E+02 -2.551803342E+02  5.251291292E+02  8.140574056E+02  1.250000000E+02  0.00000E+00  9.000E+00
      25     1     1     2     0     0  1.516618952E+02  2.326078777E+02  1.167525467E+01  3.047442646E+02  1.250000000E+02  0.00000E+00  9.000E+00
       2     1     1     2   502     0  4.016796397E+02  2.257245654E+01 -1.651087842E+03  1.699396102E+03  2.157918644E-05  0.00000E+00  9.000E+00
#rwgt            2          13   3.9505019922869500E-003           9      297685           0
</event>
<event>
      5   9999  3.19816E-02  6.89080E+01 -1.00000E+00  1.31567E-01
      21    -1     0     0   502   501  0.000000000E+00  0.000000000E+00  3.765434046E+02  3.765434046E+02  0.000000000E+00  0.00000E+00  9.000E+00
      21    -1     0     0   511   502  0.000000000E+00  0.000000000E+00 -4.208593349E+02  4.208593349E+02  0.000000000E+00  0.00000E+00  9.000E+00
      25     1     1     2     0     0 -2.294413660E+02 -1.523006906E+02  1.633322535E+02  3.437168396E+02  1.250000000E+02  0.00000E+00  9.000E+00
      25     1     1     2     0     0  2.863841751E+02  1.134957307E+02 -1.541492677E+02  3.664480500E+02  1.250000000E+02  0.00000E+00  9.000E+00
      21     1     1     2   511   501 -5.694280906E+01  3.880495993E+01 -5.349891610E+01  8.723784983E+01  1.507891493E-06  0.00000E+00  9.000E+00
#rwgt            1           1   3.1825953838633930E-002           9      297749           0
</event>
<event>
      5   9999  3.19816E-02  2.65802E+02 -1.00000E+00  1.07328E-01
      21    -1     0     0   502   512  0.000000000E+00  0.000000000E+00  1.197965013E+03  1.197965013E+03  0.000000000E+00  0.00000E+00  9.000E+00
      21    -1     0     0   501   502  0.000000000E+00  0.000000000E+00 -2.274184898E+02  2.274184898E+02  0.000000000E+00  0.00000E+00  9.000E+00
      25     1     1     2     0     0 -6.720454798E+01 -6.361070936E+01 -6.903881889E+01  1.701591377E+02  1.250000000E+02  0.00000E+00  9.000E+00
      25     1     1     2     0     0  3.304062109E+02  1.007007368E+02  3.166563734E+02  4.849795474E+02  1.250000000E+02  0.00000E+00  9.000E+00
      21     1     1     2   501   512 -2.632016629E+02 -3.709002746E+01  7.229289690E+02  7.702448180E+02  1.078959322E-05  0.00000E+00  9.000E+00
#rwgt            1           1   2.7276548708653540E-002           9      297822           0
</event>
<event>
      5   9999  3.19816E-02  2.24447E+01 -1.00000E+00  1.62340E-01
      21    -1     0     0   511   501  0.000000000E+00  0.000000000E+00  1.029022963E+03  1.029022963E+03  0.000000000E+00  0.00000E+00  9.000E+00
      21    -1     0     0   501   502  0.000000000E+00  0.000000000E+00 -2.102799516E+02  2.102799516E+02  0.000000000E+00  0.00000E+00  9.000E+00
      25     1     1     2     0     0 -3.205485249E+02 -2.848969431E+00  1.345103014E+02  3.694286056E+02  1.250000000E+02  0.00000E+00  9.000E+00
      25     1     1     2     0     0  2.981049713E+02  2.623286785E+00  1.896597337E+02  3.747923027E+02  1.250000000E+02  0.00000E+00  9.000E+00
      21     1     1     2   511   502  2.244355361E+01  2.256826463E-01  4.945729767E+02  4.950820066E+02  5.394796609E-06  0.00000E+00  9.000E+00
#rwgt            1           1   3.0668610151977749E-002           9      297852           0
</event>
<event>
      5   9999  3.19816E-02  1.10110E+02 -1.00000E+00  1.21975E-01
      21    -1     0     0   502   501  0.000000000E+00  0.000000000E+00  2.281062730E+02  2.281062730E+02  0.000000000E+00  0.00000E+00  9.000E+00
      21    -1     0     0   512   502  0.000000000E+00  0.000000000E+00 -3.005865165E+02  3.005865165E+02  0.000000000E+00  0.00000E+00  9.000E+00
      25     1     1     2     0     0 -8.807210520E+01  1.080484764E+01  2.980479415E+01  1.561626274E+02  1.250000000E+02  0.00000E+00  9.000E+00
      25     1     1     2     0     0  1.530479104E+02 -9.970047704E+01  1.323459552E+00  2.213382017E+02  1.250000000E+02  0.00000E+00  9.000E+00
      21     1     1     2   512   501 -6.497580517E+01  8.889562940E+01 -1.036084972E+02  1.511919604E+02  2.336015456E-06  0.00000E+00  9.000E+00
#rwgt            1           1   2.8866809164371447E-002           9      297940           0
</event>
<event>
      5   9999  3.19816E-02  2.48797E+02 -1.00000E+00  1.08302E-01
      21    -1     0     0   502   501  0.000000000E+00  0.000000000E+00  1.431545264E+03  1.431545264E+03  0.000000000E+00  0.00000E+00  9.000E+00
      21    -1     0     0   501   511  0.000000000E+00  0.000000000E+00 -6.028225571E+02  6.028225571E+02  0.000000000E+00  0.00000E+00  9.000E+00
      25     1     1     2     0     0  3.086284458E+02 -5.629005636E+02  1.920838704E+02  6.816375689E+02  1.250000000E+02  0.00000E+00  9.000E+00
      25     1     1     2     0     0 -2.731987164E+02  3.166389910E+02  8.939411603E+02  9.948133429E+02  1.250000000E+02  0.00000E+00  9.000E+00
      21     1     1     2   502   511 -3.542972938E+01  2.462615726E+02 -2.573023240E+02  3.579169091E+02  6.607249480E-06  0.00000E+00  9.000E+00
#rwgt            1           1   2.8662093618266372E-002           9      297998           0
</event>
<event>
      5   9999  3.19816E-02  3.29333E+01 -1.00000E+00  1.50278E-01
      21    -1     0     0   502   501  0.000000000E+00  0.000000000E+00  2.550591062E+02  2.550591062E+02  0.000000000E+00  0.00000E+00  9.000E+00
      21    -1     0     0   501   512  0.000000000E+00  0.000000000E+00 -2.119559592E+03  2.119559592E+03  0.000000000E+00  0.00000E+00  9.000E+00
      25     1     1     2     0     0  6.940296188E+02 -4.559792529E+01 -6.879169957E+02  9.862104621E+02  1.250000000E+02  0.00000E+00  9.000E+00
      25     1     1     2     0     0 -6.850663093E+02  1.390781321E+01 -1.068942062E+03  1.275841451E+03  1.250000000E+02  0.00000E+00  9.000E+00
      21     1     1     2   502   512 -8.963309472E+00  3.169011208E+01 -1.076414281E+02  1.125667854E+02  2.336015456E-06  0.00000E+00  9.000E+00
#rwgt            1           1   2.1945590575557675E-002           9      298090           0
</event>
<event>
      5   9999  3.19816E-02  9.53850E+01 -1.00000E+00  1.24758E-01
      21    -1     0     0   502   501  0.000000000E+00  0.000000000E+00  3.919960193E+02  3.919960193E+02  0.000000000E+00  0.00000E+00  9.000E+00
      21    -1     0     0   511   502  0.000000000E+00  0.000000000E+00 -1.292210372E+03  1.292210372E+03  0.000000000E+00  0.00000E+00  9.000E+00
      25     1     1     2     0     0 -3.607901420E+02 -9.569024515E+01 -8.973152183E+02  9.798600668E+02  1.250000000E+02  0.00000E+00  9.000E+00
      25     1     1     2     0     0  4.390699863E+02  4.118728840E+01  1.844677000E+02  4.940973365E+02  1.250000000E+02  0.00000E+00  9.000E+00
      21     1     1     2   511   501 -7.827984428E+01  5.450295676E+01 -1.873668345E+02  2.102489881E+02  3.814697266E-06  0.00000E+00  9.000E+00
#rwgt            1           1   2.4056294379301724E-002           9      298266           0
</event>
<event>
      5   9999  3.19816E-02  1.85446E+02 -1.00000E+00  1.12856E-01
      21    -1     0     0   502   501  0.000000000E+00  0.000000000E+00  4.589241374E+02  4.589241374E+02  0.000000000E+00  0.00000E+00  9.000E+00
      21    -1     0     0   501   512  0.000000000E+00  0.000000000E+00 -1.015418261E+03  1.015418261E+03  0.000000000E+00  0.00000E+00  9.000E+00
      25     1     1     2     0     0 -4.107757199E+02  2.833880764E+02 -3.371710744E+02  6.151055417E+02  1.250000000E+02  0.00000E+00  9.000E+00
      25     1     1     2     0     0  5.843636468E+02 -2.181376673E+02 -1.150085334E+02  6.464649073E+02  1.250000000E+02  0.00000E+00  9.000E+00
      21     1     1     2   502   512 -1.735879268E+02 -6.525040911E+01 -1.043145158E+02  2.127719494E+02  1.907348633E-06  0.00000E+00  9.000E+00
#rwgt            2          11   5.4217364769199019E-003           9      298467           0
</event>
<event>
      5   9999  3.19816E-02  3.79248E+02 -1.00000E+00  1.02387E-01
      21    -1     0     0   502   501  0.000000000E+00  0.000000000E+00  2.111818208E+02  2.111818208E+02  0.000000000E+00  0.00000E+00  9.000E+00
       2    -1     0     0   501     0  0.000000000E+00  0.000000000E+00 -2.450650459E+03  2.450650459E+03  0.000000000E+00  0.00000E+00  9.000E+00
      25     1     1     2     0     0  1.546126836E+02  5.414743690E+02 -4.812845834E+02  7.512385936E+02  1.250000000E+02  0.00000E+00  9.000E+00
      25     1     1     2     0     0  1.264282557E+02 -2.868276606E+02 -5.599639899E+02  6.537881008E+02  1.250000000E+02  0.00000E+00  9.000E+00
       2     1     1     2   502     0 -2.810409393E+02 -2.546467084E+02 -1.198220065E+03  1.256805586E+03  2.157918644E-05  0.00000E+00  9.000E+00
#rwgt            2          13   1.5157092220535475E-003           9      298682           0
</event>
<event>
      5   9999  3.19816E-02  4.46530E+01 -1.00000E+00  1.41937E-01
      21    -1     0     0   511   501  0.000000000E+00  0.000000000E+00  4.525139951E+02  4.525139951E+02  0.000000000E+00  0.00000E+00  9.000E+00
      21    -1     0     0   501   502  0.000000000E+00  0.000000000E+00 -1.412437767E+03  1.412437767E+03  0.000000000E+00  0.00000E+00  9.000E+00
      25     1     1     2     0     0  5.284887400E+02  1.373312516E+02 -3.837652784E+02  6.790147346E+02  1.250000000E+02  0.00000E+00  9.000E+00
      25     1     1     2     0     0 -5.295905549E+02 -1.819706945E+02 -7.850241871E+02  9.723515125E+02  1.250000000E+02  0.00000E+00  9.000E+00
      21     1     1     2   511   502  1.101814985E+00  4.463944291E+01  2.088656941E+02  2.135855145E+02  2.697398305E-06  0.00000E+00  9.000E+00
#rwgt            1           1   2.9183353601747338E-002           9      298701           0
</event>
<event>
      5   9999  3.19816E-02  2.13943E+01 -1.00000E+00  1.63990E-01
      21    -1     0     0   502   501  0.000000000E+00  0.000000000E+00  2.801948543E+03  2.801948543E+03  0.000000000E+00  0.00000E+00  9.000E+00
      21    -1     0     0   501   512  0.000000000E+00  0.000000000E+00 -1.298999519E+03  1.298999519E+03  0.000000000E+00  0.00000E+00  9.000E+00
      25     1     1     2     0     0  7.054410043E+02 -3.586679798E+02  6.752573489E+02  1.047801135E+03  1.250000000E+02  0.00000E+00  9.000E+00
      25     1     1     2     0     0 -6.955199646E+02  3.776229125E+02  1.857592986E+03  2.023023427E+03  1.250000000E+02  0.00000E+00  9.000E+00
      21     1     1     2   502   512 -9.921039703E+00 -1.895493276E+01 -1.029901311E+03  1.030123501E+03  0.000000000E+00  0.00000E+00  9.000E+00
#rwgt            1           1   2.8601505477472259E-002           9      298833           0
</event>
<event>
      5   9999  3.19816E-02  1.19042E+02 -1.00000E+00  1.20516E-01
      21    -1     0     0   502   511  0.000000000E+00  0.000000000E+00  8.098249285E+02  8.098249285E+02  0.000000000E+00  0.00000E+00  9.000E+00
      21    -1     0     0   501   502  0.000000000E+00  0.000000000E+00 -4.783932355E+02  4.783932355E+02  0.000000000E+00  0.00000E+00  9.000E+00
      25     1     1     2     0     0 -1.352210524E+02 -2.112944198E+02  2.581534807E+01  2.814631362E+02  1.250000000E+02  0.00000E+00  9.000E+00
      25     1     1     2     0     0  2.139928019E+02  3.005466187E+02 -2.338249668E+02  4.543350133E+02  1.250000000E+02  0.00000E+00  9.000E+00
      21     1     1     2   501   511 -7.877174943E+01 -8.925219888E+01  5.394413117E+02  5.524200144E+02  0.000000000E+00  0.00000E+00  9.000E+00
#rwgt            1           1   2.8213619757325351E-002           9      299015           0
</event>
<event>
      5   9999  3.19816E-02  2.22488E+01 -1.00000E+00  1.62639E-01
      21    -1     0     0   512   501  0.000000000E+00  0.000000000E+00  9.226366422E+02  9.226366422E+02  0.000000000E+00  0.00000E+00  9.000E+00
      21    -1     0     0   501   502  0.000000000E+00  0.000000000E+00 -4.911333635E+02  4.911333635E+02  0.000000000E+00  0.00000E+00  9.000E+00
      25     1     1     2     0     0 -5.597313521E+02  1.023792583E+02  4.014767224E+02  7.075233266E+02  1.250000000E+02  0.00000E+00  9.000E+00
      25     1     1     2     0     0  5.673718943E+02 -8.148350434E+01 -8.170017078E+01  5.923262157E+02  1.250000000E+02  0.00000E+00  9.000E+00
      21     1     1     2   512   502 -7.640542133E+00 -2.089575395E+01  1.117267271E+02  1.139204634E+02  1.348699152E-06  0.00000E+00  9.000E+00
#rwgt            1           1   3.1966117583804368E-002           9      299092           0
</event>
<event>
      5   9999  3.19816E-02  1.15521E+02 -1.00000E+00  1.21074E-01
      -2    -1     0     0     0   501  0.000000000E+00  0.000000000E+00  6.630485565E+02  6.630485565E+02  0.000000000E+00  0.00000E+00  9.000E+00
      21    -1     0     0   501   502  0.000000000E+00  0.000000000E+00 -2.714498287E+03  2.714498287E+03  0.000000000E+00  0.00000E+00  9.000E+00
      25     1     1     2     0     0 -3.075826995E+02 -4.514988304E+01 -1.022295466E+03  1.075806046E+03  1.250000000E+02  0.00000E+00  9.000E+00
      25     1     1     2     0     0  3.845685487E+02  1.312788176E+02 -1.632747726E+03  1.687192115E+03  1.250000000E+02  0.00000E+00  9.000E+00
      -2     1     1     2     0   502 -7.698584924E+01 -8.612893455E+01  6.035934622E+02  6.145486815E+02  7.629394531E-06  0.00000E+00  9.000E+00
#rwgt            1           1   5.8957827403992961E-002           9      299277           0
</event>
<event>
      5   9999  3.19816E-02  7.85176E+01 -1.00000E+00  1.28744E-01
      21    -1     0     0   502   501  0.000000000E+00  0.000000000E+00  1.835076076E+02  1.835076076E+02  0.000000000E+00  0.00000E+00  9.000E+00
      21    -1     0     0   501   511  0.000000000E+00  0.000000000E+00 -7.717512222E+02  7.717512222E+02  0.000000000E+00  0.00000E+00  9.000E+00
      25     1     1     2     0     0  1.316771891E+02 -1.006826436E+02  5.822063053E+01  2.156166011E+02  1.250000000E+02  0.00000E+00  9.000E+00
      25     1     1     2     0     0 -1.779709351E+02  1.641010684E+02 -5.605559171E+02  6.232581733E+02  1.250000000E+02  0.00000E+00  9.000E+00
      21     1     1     2   502   511  4.629374606E+01 -6.341842484E+01 -8.590832811E+01  1.163840555E+02  1.907348633E-06  0.00000E+00  9.000E+00
#rwgt            1           1   3.1066691569333175E-002           9      299343           0
</event>
<event>
      5   9999  3.19816E-02  8.05167E+01 -1.00000E+00  1.28214E-01
      21    -1     0     0   502   501  0.000000000E+00  0.000000000E+00  6.857490223E+02  6.857490223E+02  0.000000000E+00  0.00000E+00  9.000E+00
      21    -1     0     0   501   512  0.000000000E+00  0.000000000E+00 -6.691265084E+02  6.691265084E+02  0.000000000E+00  0.00000E+00  9.000E+00
      25     1     1     2     0     0  2.196391777E+01 -5.375579386E+02 -2.394942815E+02  6.020244695E+02  1.250000000E+02  0.00000E+00  9.000E+00
      25     1     1     2     0     0 -1.012335242E+02  5.516743371E+02  3.129128399E+02  6.543181535E+02  1.250000000E+02  0.00000E+00  9.000E+00
      21     1     1     2   502   512  7.926960638E+01 -1.411639850E+01 -5.679604453E+01  9.853290759E+01  1.907348633E-06  0.00000E+00  9.000E+00
#rwgt            1           1   3.2072870619799278E-002           9      299445           0
</event>
<event>
      5   9999  3.19816E-02  2.13159E+01 -1.00000E+00  1.64118E-01
      21    -1     0     0   511   501  0.000000000E+00  0.000000000E+00  1.153981302E+03  1.153981302E+03  0.000000000E+00  0.00000E+00  9.000E+00
      21    -1     0     0   501   502  0.000000000E+00  0.000000000E+00 -7.226403315E+01  7.226403315E+01  0.000000000E+00  0.00000E+00  9.000E+00
      25     1     1     2     0     0 -2.492205440E+00  1.807356824E+02  2.816239430E+02  3.572235200E+02  1.250000000E+02  0.00000E+00  9.000E+00
      25     1     1     2     0     0  2.112628148E+01 -1.703847928E+02  2.950761902E+02  3.635550239E+02  1.250000000E+02  0.00000E+00  9.000E+00
      21     1     1     2   511   502 -1.863407604E+01 -1.035088955E+01  5.050171361E+02  5.054667916E+02  7.629394531E-06  0.00000E+00  9.000E+00
#rwgt            1           1   2.7120786319547861E-002           9      299529           0
</event>
<event>
      5   9999  3.19816E-02  2.39927E+01 -1.00000E+00  1.60100E-01
      21    -1     0     0   512   501  0.000000000E+00  0.000000000E+00  1.285839971E+02  1.285839971E+02  0.000000000E+00  0.00000E+00  9.000E+00
      21    -1     0     0   501   502  0.000000000E+00  0.000000000E+00 -7.339677063E+02  7.339677063E+02  0.000000000E+00  0.00000E+00  9.000E+00
      25     1     1     2     0     0  1.705865542E+02  2.025436224E+02 -3.067198993E+02  4.240587083E+02  1.250000000E+02  0.00000E+00  9.000E+00
      25     1     1     2     0     0 -1.736277739E+02 -1.787444213E+02 -3.054621791E+02  4.135556975E+02  1.250000000E+02  0.00000E+00  9.000E+00
      21     1     1     2   512   502  3.041219699E+00 -2.379920109E+01  6.798369260E+00  2.493729765E+01  3.264680848E-07  0.00000E+00  9.000E+00
#rwgt            1           1   3.0731568297854173E-002           9      299617           0
</event>
<event>
      5   9999  3.19816E-02  5.42454E+01 -1.00000E+00  1.37086E-01
      21    -1     0     0   502   501  0.000000000E+00  0.000000000E+00  2.090388581E+02  2.090388581E+02  0.000000000E+00  0.00000E+00  9.000E+00
      -2    -1     0     0     0   502  0.000000000E+00  0.000000000E+00 -4.025980266E+02  4.025980266E+02  0.000000000E+00  0.00000E+00  9.000E+00
      25     1     1     2     0     0  1.640831769E+02 -9.145189696E+01 -1.186185758E+02  2.549158781E+02  1.250000000E+02  0.00000E+00  9.000E+00
      25     1     1     2     0     0 -1.308192061E+02  4.860246312E+01  7.151872086E+01  2.005387532E+02  1.250000000E+02  0.00000E+00  9.000E+00
      -2     1     1     2     0   501 -3.326397076E+01  4.284943384E+01 -1.464593136E+02  1.561822534E+02  3.814697266E-06  0.00000E+00  9.000E+00
#rwgt            1           1   3.0205436025220574E-002           9      299761           0
</event>
<event>
      5   9999  3.19816E-02  9.62871E+01 -1.00000E+00  1.24572E-01
      21    -1     0     0   502   501  0.000000000E+00  0.000000000E+00  2.345380298E+02  2.345380298E+02  0.000000000E+00  0.00000E+00  9.000E+00
       2    -1     0     0   501     0  0.000000000E+00  0.000000000E+00 -2.361377321E+03  2.361377321E+03  0.000000000E+00  0.00000E+00  9.000E+00
      25     1     1     2     0     0  9.912169367E+01 -5.698014618E+02 -6.845228166E+02  9.048178284E+02  1.250000000E+02  0.00000E+00  9.000E+00
      25     1     1     2     0     0 -1.711273597E+02  5.058765200E+02 -4.947336753E+02  7.386352525E+02  1.250000000E+02  0.00000E+00  9.000E+00
       2     1     1     2   502     0  7.200566601E+01  6.392494178E+01 -9.475827993E+02  9.524622700E+02  1.078959322E-05  0.00000E+00  9.000E+00
#rwgt            1           1   2.9001047385204998E-002           9      299820           0
</event>
<event>
      5   9999  3.19816E-02  3.53200E+01 -1.00000E+00  1.48273E-01
      21    -1     0     0   502   511  0.000000000E+00  0.000000000E+00  3.118756050E+02  3.118756050E+02  0.000000000E+00  0.00000E+00  9.000E+00
      21    -1     0     0   501   502  0.000000000E+00  0.000000000E+00 -2.265879089E+02  2.265879089E+02  0.000000000E+00  0.00000E+00  9.000E+00
      25     1     1     2     0     0  1.024535481E+02 -1.822893344E+02  7.316287180E+01  2.543696853E+02  1.250000000E+02  0.00000E+00  9.000E+00
      25     1     1     2     0     0 -7.939918549E+01  1.555312182E+02 -4.262183929E+01  2.189424848E+02  1.250000000E+02  0.00000E+00  9.000E+00
      21     1     1     2   501   511 -2.305436265E+01  2.675811624E+01  5.474666363E+01  6.515134381E+01  1.507891493E-06  0.00000E+00  9.000E+00
#rwgt            1           1   2.6644898994541324E-002           9      299896           0
</event>
<event>
      5   9999  3.19816E-02  3.76804E+01 -1.00000E+00  1.46468E-01
      21    -1     0     0   502   512  0.000000000E+00  0.000000000E+00  9.172700972E+02  9.172700972E+02  0.000000000E+00  0.00000E+00  9.000E+00
      21    -1     0     0   501   502  0.000000000E+00  0.000000000E+00 -1.036667259E+02  1.036667259E+02  0.000000000E+00  0.00000E+00  9.000E+00
      25     1     1     2     0     0 -5.167791128E+01 -2.330786445E+02  1.778343456E+02  3.228719801E+02  1.250000000E+02  0.00000E+00  9.000E+00
      25     1     1     2     0     0  2.723750017E+01  2.043997715E+02  4.721372258E+02  5.301506465E+02  1.250000000E+02  0.00000E+00  9.000E+00
      21     1     1     2   501   512  2.444041111E+01  2.867887305E+01  1.636317999E+02  1.679141965E+02  3.303624740E-06  0.00000E+00  9.000E+00
#rwgt            1           1   2.3978228365965411E-002           9      300005           0
</event>
<event>
      5   9999  3.19816E-02  3.66281E+02 -1.00000E+00  1.02850E-01
      21    -1     0     0   502   501  0.000000000E+00  0.000000000E+00  1.016506304E+03  1.016506304E+03  0.000000000E+00  0.00000E+00  9.000E+00
      21    -1     0     0   511   502  0.000000000E+00  0.000000000E+00 -2.907674705E+03  2.907674705E+03  0.000000000E+00  0.00000E+00  9.000E+00
      25     1     1     2     0     0  2.961628389E+02  1.120865264E+03 -1.007986183E+03  1.541334653E+03  1.250000000E+02  0.00000E+00  9.000E+00
      25     1     1     2     0     0 -5.028327311E+02 -1.423270968E+03 -9.964679016E+01  1.517924730E+03  1.250000000E+02  0.00000E+00  9.000E+00
      21     1     1     2   511   501  2.066698922E+02  3.024057034E+02 -7.835354282E+02  8.649216271E+02  0.000000000E+00  0.00000E+00  9.000E+00
#rwgt            2          11   4.9108647432182205E-003           9      300154           0
</event>
<event>
      5   9999  3.19816E-02  5.20746E+00 -1.00000E+00  2.35472E-01
      21    -1     0     0   502   501  0.000000000E+00  0.000000000E+00  1.258166218E+03  1.258166218E+03  0.000000000E+00  0.00000E+00  9.000E+00
      21    -1     0     0   512   502  0.000000000E+00  0.000000000E+00 -2.392006150E+02  2.392006150E+02  0.000000000E+00  0.00000E+00  9.000E+00
      25     1     1     2     0     0  3.726594289E+02 -1.864523858E+02  9.228189170E+02  1.020225120E+03  1.250000000E+02  0.00000E+00  9.000E+00
      25     1     1     2     0     0 -3.693110431E+02  1.824641625E+02  1.246560749E+02  4.481606344E+02  1.250000000E+02  0.00000E+00  9.000E+00
      21     1     1     2   512   501 -3.348385753E+00  3.988223324E+00 -2.850938926E+01  2.898107811E+01  9.536743164E-07  0.00000E+00  9.000E+00
#rwgt            1           1   2.6641478461930154E-002           9      300174           0
</event>
<event>
      5   9999  3.19816E-02  7.00487E+01 -1.00000E+00  1.31205E-01
      21    -1     0     0   502   501  0.000000000E+00  0.000000000E+00  2.006864594E+03  2.006864594E+03  0.000000000E+00  0.00000E+00  9.000E+00
      21    -1     0     0   511   502  0.000000000E+00  0.000000000E+00 -7.794953950E+01  7.794953950E+01  0.000000000E+00  0.00000E+00  9.000E+00
      25     1     1     2     0     0  1.697352209E+02 -1.894382867E+02  6.944589306E+02  7.500634080E+02  1.250000000E+02  0.00000E+00  9.000E+00
      25     1     1     2     0     0 -1.704278249E+02  1.193929647E+02  1.240887078E+03  1.264407396E+03  1.250000000E+02  0.00000E+00  9.000E+00
      21     1     1     2   511   501  6.926040325E-01  7.004532197E+01 -6.430953866E+00  7.034332945E+01  1.556583030E-06  0.00000E+00  9.000E+00
#rwgt            1           1   7.4471194359626985E-002           9      300671           0
</event>
<event>
      5   9999  3.19816E-02  1.61937E+02 -1.00000E+00  1.15091E-01
      21    -1     0     0   502   501  0.000000000E+00  0.000000000E+00  1.890193341E+02  1.890193341E+02  0.000000000E+00  0.00000E+00  9.000E+00
      21    -1     0     0   501   512  0.000000000E+00  0.000000000E+00 -4.696748801E+02  4.696748801E+02  0.000000000E+00  0.00000E+00  9.000E+00
      25     1     1     2     0     0 -2.104069326E+02 -1.086698344E+02 -1.801685514E+02  3.227474510E+02  1.250000000E+02  0.00000E+00  9.000E+00
      25     1     1     2     0     0  5.563877731E+01  6.102230692E+01 -9.303773924E+00  1.501031502E+02  1.250000000E+02  0.00000E+00  9.000E+00
      21     1     1     2   502   512  1.547681553E+02  4.764752749E+01 -9.118322068E+01  1.858436131E+02  1.907348633E-06  0.00000E+00  9.000E+00
#rwgt            1           1   2.6631348100532554E-002           9      300709           0
</event>
<event>
      5   9999  3.46393E-02  6.25083E+01 -1.00000E+00  1.33760E-01
      21    -1     0     0   502   511  0.000000000E+00  0.000000000E+00  5.152939518E+02  5.152939518E+02  0.000000000E+00  0.00000E+00  9.000E+00
      21    -1     0     0   501   502  0.000000000E+00  0.000000000E+00 -2.229387656E+02  2.229387656E+02  0.000000000E+00  0.00000E+00  9.000E+00
      25     1     1     2     0     0  6.004254726E+01  8.443863155E+01 -5.114459250E+01  1.702226757E+02  1.250000000E+02  0.00000E+00  9.000E+00
      25     1     1     2     0     0 -9.345168779E+01 -3.160762463E+01 -5.206631185E+01  1.675355506E+02  1.250000000E+02  0.00000E+00  9.000E+00
      21     1     1     2   501   511  3.340914053E+01 -5.283100692E+01  3.955660906E+02  4.004744910E+02  5.394796609E-06  0.00000E+00  9.000E+00
#rwgt            1           1   8.8004615889792234E-002           9      300772           0
</event>
<event>
      5   9999  3.19816E-02  1.30307E+01 -1.00000E+00  1.83342E-01
      21    -1     0     0   502   501  0.000000000E+00  0.000000000E+00  7.600388695E+01  7.600388695E+01  0.000000000E+00  0.00000E+00  9.000E+00
      21    -1     0     0   501   512  0.000000000E+00  0.000000000E+00 -7.633207608E+02  7.633207608E+02  0.000000000E+00  0.00000E+00  9.000E+00
      25     1     1     2     0     0 -1.499328195E+02 -1.501757764E+00 -3.785736157E+02  4.259402401E+02  1.250000000E+02  0.00000E+00  9.000E+00
      25     1     1     2     0     0  1.370037360E+02 -1.228060359E-01 -1.129265798E+02  2.171346383E+02  1.250000000E+02  0.00000E+00  9.000E+00
      21     1     1     2   502   512  1.292908354E+01  1.624563800E+00 -1.958166784E+02  1.962497693E+02  2.697398305E-06  0.00000E+00  9.000E+00
#rwgt            1           1   2.6241981055875677E-002           9      300827           0
</event>
<event>
      5   9999  3.19816E-02  2.14234E+02 -1.00000E+00  1.10572E-01
      21    -1     0     0   502   501  0.000000000E+00  0.000000000E+00  5.562351554E+02  5.562351554E+02  0.000000000E+00  0.00000E+00  9.000E+00
       1    -1     0     0   501     0  0.000000000E+00  0.000000000E+00 -5.177554105E+02  5.177554105E+02  0.000000000E+00  0.00000E+00  9.000E+00
      25     1     1     2     0     0  3.212634370E+02  2.876794909E+02  5.826312704E+01  4.527574156E+02  1.250000000E+02  0.00000E+00  9.000E+00
      25     1     1     2     0     0 -1.241191536E+02 -2.038329234E+02  1.834530444E+02  3.259347242E+02  1.250000000E+02  0.00000E+00  9.000E+00
       1     1     1     2   502     0 -1.971442834E+02 -8.384656746E+01 -2.032364265E+02  2.952984261E+02  7.136645101E-06  0.00000E+00  9.000E+00
#rwgt            2          12   2.7719653061503120E-004           9      301055           0
</event>
<event>
      5   9999  3.19816E-02  2.00316E+02 -1.00000E+00  1.11623E-01
      21    -1     0     0   502   511  0.000000000E+00  0.000000000E+00  2.629234232E+02  2.629234232E+02  0.000000000E+00  0.00000E+00  9.000E+00
      21    -1     0     0   501   502  0.000000000E+00  0.000000000E+00 -1.901840605E+03  1.901840605E+03  0.000000000E+00  0.00000E+00  9.000E+00
      25     1     1     2     0     0  1.413731490E+02 -3.835072317E+02 -9.400702436E+02  1.032676729E+03  1.250000000E+02  0.00000E+00  9.000E+00
      25     1     1     2     0     0 -2.780207391E+02  5.299786269E+02 -7.030767911E+02  9.317268111E+02  1.250000000E+02  0.00000E+00  9.000E+00
      21     1     1     2   501   511  1.366475901E+02 -1.464713951E+02  4.229852970E+00  2.003604879E+02  6.279738994E-07  0.00000E+00  9.000E+00
#rwgt            2          11   4.7817213143917557E-003           9      301074           0
</event>
<event>
      5   9999  3.19816E-02  5.27719E+01 -1.00000E+00  1.37752E-01
      21    -1     0     0   502   501  0.000000000E+00  0.000000000E+00  8.621678246E+02  8.621678246E+02  0.000000000E+00  0.00000E+00  9.000E+00
      21    -1     0     0   501   512  0.000000000E+00  0.000000000E+00 -6.199107932E+02  6.199107932E+02  0.000000000E+00  0.00000E+00  9.000E+00
      25     1     1     2     0     0  2.626742305E+02  5.641775120E+02  4.628531782E+02  7.855902755E+02  1.250000000E+02  0.00000E+00  9.000E+00
      25     1     1     2     0     0 -2.689063854E+02 -5.117749066E+02 -1.534032439E+02  6.110497151E+02  1.250000000E+02  0.00000E+00  9.000E+00
      21     1     1     2   502   512  6.232154825E+00 -5.240260544E+01 -6.719290293E+01  8.543862719E+01  1.651812370E-06  0.00000E+00  9.000E+00
#rwgt            1           1   3.6218524009107085E-002           9      301124           0
</event>
<event>
      5   9999  3.19816E-02  1.07160E+02 -1.00000E+00  1.22492E-01
      21    -1     0     0   502   501  0.000000000E+00  0.000000000E+00  8.070819073E+02  8.070819073E+02  0.000000000E+00  0.00000E+00  9.000E+00
      21    -1     0     0   511   502  0.000000000E+00  0.000000000E+00 -1.319172794E+03  1.319172794E+03  0.000000000E+00  0.00000E+00  9.000E+00
      25     1     1     2     0     0  4.476112053E+02 -7.406099963E+02  2.086662403E+02  8.989024183E+02  1.250000000E+02  0.00000E+00  9.000E+00
      25     1     1     2     0     0 -3.584644586E+02  8.000754773E+02 -6.283002224E+02  1.085819371E+03  1.250000000E+02  0.00000E+00  9.000E+00
      21     1     1     2   511   501 -8.914674672E+01 -5.946548103E+01 -9.245690434E+01  1.415329115E+02  1.348699152E-06  0.00000E+00  9.000E+00
#rwgt            1           1   3.9814390532918409E-002           9      301260           0
</event>
<event>
      5   9999  3.19816E-02  1.12156E+02 -1.00000E+00  1.21628E-01
      21    -1     0     0   502   501  0.000000000E+00  0.000000000E+00  1.279052265E+02  1.279052265E+02  0.000000000E+00  0.00000E+00  9.000E+00
       2    -1     0     0   501     0  0.000000000E+00  0.000000000E+00 -1.831365705E+03  1.831365705E+03  0.000000000E+00  0.00000E+00  9.000E+00
      25     1     1     2     0     0 -1.358334308E+02 -1.362962516E+02 -1.628097381E+02  2.813528033E+02  1.250000000E+02  0.00000E+00  9.000E+00
      25     1     1     2     0     0  1.160299917E+02  2.590235750E+01 -4.528530519E+01  1.783526001E+02  1.250000000E+02  0.00000E+00  9.000E+00
       2     1     1     2   502     0  1.980343911E+01  1.103938941E+02 -1.495365435E+03  1.499565528E+03  0.000000000E+00  0.00000E+00  9.000E+00
#rwgt            1           1   3.1028540445709969E-002           9      301381           0
</event>
<event>
      5   9999  3.19816E-02  1.30110E+02 -1.00000E+00  1.18896E-01
      21    -1     0     0   511   501  0.000000000E+00  0.000000000E+00  5.355332080E+02  5.355332080E+02  0.000000000E+00  0.00000E+00  9.000E+00
      21    -1     0     0   501   502  0.000000000E+00  0.000000000E+00 -1.805066845E+03  1.805066845E+03  0.000000000E+00  0.00000E+00  9.000E+00
      25     1     1     2     0     0 -2.153414865E+02 -6.479378497E+01 -1.294120497E+03  1.319448010E+03  1.250000000E+02  0.00000E+00  9.000E+00
      25     1     1     2     0     0  1.426813931E+02  1.727254691E+02 -4.560271480E+02  5.232378306E+02  1.250000000E+02  0.00000E+00  9.000E+00
      21     1     1     2   511   502  7.266009337E+01 -1.079316842E+02  4.806140083E+02  4.979142121E+02  7.629394531E-06  0.00000E+00  9.000E+00
#rwgt            1           1   2.8228936293695328E-002           9      301474           0
</event>
<event>
      5   9999  3.19816E-02  3.12435E+02 -1.00000E+00  1.05022E-01
      21    -1     0     0   502   501  0.000000000E+00  0.000000000E+00  6.317972899E+02  6.317972899E+02  0.000000000E+00  0.00000E+00  9.000E+00
      21    -1     0     0   512   502  0.000000000E+00  0.000000000E+00 -1.444309639E+03  1.444309639E+03  0.000000000E+00  0.00000E+00  9.000E+00
      25     1     1     2     0     0  4.594368365E+02 -6.789591856E+01  3.115949772E+02  5.730693608E+02  1.250000000E+02  0.00000E+00  9.000E+00
      25     1     1     2     0     0 -5.655834898E+02  3.617475222E+02 -8.186277034E+02  1.066077985E+03  1.250000000E+02  0.00000E+00  9.000E+00
      21     1     1     2   512   501  1.061466534E+02 -2.938516037E+02 -3.054796223E+02  4.369595824E+02  3.814697266E-06  0.00000E+00  9.000E+00
#rwgt            2          11   4.0525486304413211E-003           9      301535           0
</event>
<event>
      5   9999  3.19816E-02  4.90896E+01 -1.00000E+00  1.39532E-01
      21    -1     0     0   502   501  0.000000000E+00  0.000000000E+00  2.196275874E+02  2.196275874E+02  0.000000000E+00  0.00000E+00  9.000E+00
      21    -1     0     0   511   502  0.000000000E+00  0.000000000E+00 -4.081455728E+02  4.081455728E+02  0.000000000E+00  0.00000E+00  9.000E+00
      25     1     1     2     0     0 -6.179023640E+01 -1.820106111E+02  3.852739109E+01  2.324978618E+02  1.250000000E+02  0.00000E+00  9.000E+00
      25     1     1     2     0     0  6.525811557E+01  2.309775274E+02 -1.681499832E+02  3.186042320E+02  1.250000000E+02  0.00000E+00  9.000E+00
      21     1     1     2   511   501 -3.467879173E+00 -4.896691628E+01 -5.889539326E+01  7.667106640E+01  0.000000000E+00  0.00000E+00  9.000E+00
#rwgt            1           1   2.6271222642094742E-002           9      301555           0
</event>
<event>
      5   9999  3.19816E-02  2.50705E+01 -1.00000E+00  1.58659E-01
      21    -1     0     0   502   501  0.000000000E+00  0.000000000E+00  5.660750052E+02  5.660750052E+02  0.000000000E+00  0.00000E+00  9.000E+00
       1    -1     0     0   501     0  0.000000000E+00  0.000000000E+00 -9.110271338E+02  9.110271338E+02  0.000000000E+00  0.00000E+00  9.000E+00
      25     1     1     2     0     0  1.042191323E+02 -7.463304099E+01 -2.087768201E+02  2.750354140E+02  1.250000000E+02  0.00000E+00  9.000E+00
      25     1     1     2     0     0 -1.238845548E+02  9.018305289E+01  5.143519635E+02  5.510565383E+02  1.250000000E+02  0.00000E+00  9.000E+00
       1     1     1     2   502     0  1.966542260E+01 -1.555001190E+01 -6.505272720E+02  6.510101868E+02  1.078959322E-05  0.00000E+00  9.000E+00
#rwgt            1           1   2.7258645643836930E-002           9      301654           0
</event>
<event>
      5   9999  3.19816E-02  9.75095E+01 -1.00000E+00  1.24323E-01
      21    -1     0     0   502   501  0.000000000E+00  0.000000000E+00  1.351578008E+02  1.351578008E+02  0.000000000E+00  0.00000E+00  9.000E+00
      21    -1     0     0   501   511  0.000000000E+00  0.000000000E+00 -5.559480578E+02  5.559480578E+02  0.000000000E+00  0.00000E+00  9.000E+00
      25     1     1     2     0     0  4.830320278E+01  4.122625596E+01 -3.451536657E+02  3.725437646E+02  1.250000000E+02  0.00000E+00  9.000E+00
      25     1     1     2     0     0 -1.434477435E+02 -1.988117167E+01  5.987523867E+00  1.913984497E+02  1.250000000E+02  0.00000E+00  9.000E+00
      21     1     1     2   502   511  9.514454077E+01 -2.134508430E+01 -8.162411505E+01  1.271636442E+02  1.348699152E-06  0.00000E+00  9.000E+00
#rwgt            1           1   2.6495479715784975E-002           9      301771           0
</event>
<event>
      5   9999  3.19816E-02  3.39446E+01 -1.00000E+00  1.49405E-01
      21    -1     0     0   502   501  0.000000000E+00  0.000000000E+00  5.584511660E+02  5.584511660E+02  0.000000000E+00  0.00000E+00  9.000E+00
       2    -1     0     0   501     0  0.000000000E+00  0.000000000E+00 -3.666455170E+02  3.666455170E+02  0.000000000E+00  0.00000E+00  9.000E+00
      25     1     1     2     0     0  2.501592712E+02  9.243229910E+01  1.055140809E+02  3.128603716E+02  1.250000000E+02  0.00000E+00  9.000E+00
      25     1     1     2     0     0 -2.172133247E+02 -1.006055969E+02  2.954893520E+02  4.003024752E+02  1.250000000E+02  0.00000E+00  9.000E+00
       2     1     1     2   502     0 -3.294594649E+01  8.173297833E+00 -2.091977838E+02  2.119338362E+02  2.697398305E-06  0.00000E+00  9.000E+00
#rwgt            1           1   2.4151459385480217E-002           9      301839           0
</event>
<event>
      5   9999  3.19816E-02  4.94768E+01 -1.00000E+00  1.39337E-01
      21    -1     0     0   511   501  0.000000000E+00  0.000000000E+00  2.345742076E+03  2.345742076E+03  0.000000000E+00  0.00000E+00  9.000E+00
      21    -1     0     0   501   502  0.000000000E+00  0.000000000E+00 -8.487653028E+02  8.487653028E+02  0.000000000E+00  0.00000E+00  9.000E+00
      25     1     1     2     0     0  3.895462763E+02  5.508220786E+02 -6.322484937E+02  9.330136234E+02  1.250000000E+02  0.00000E+00  9.000E+00
      25     1     1     2     0     0 -4.381007499E+02 -5.413130544E+02  2.043506143E+03  2.162520392E+03  1.250000000E+02  0.00000E+00  9.000E+00
      21     1     1     2   511   502  4.855447356E+01 -9.509024210E+00  8.571912433E+01  9.897336369E+01  9.536743164E-07  0.00000E+00  9.000E+00
#rwgt            1           1   5.9079991383437433E-002           9      301961           0
</event>
<event>
      5   9999  3.19816E-02  3.88274E+02 -1.00000E+00  1.02076E-01
      21    -1     0     0   512   501  0.000000000E+00  0.000000000E+00  1.111260574E+03  1.111260574E+03  0.000000000E+00  0.00000E+00  9.000E+00
      21    -1     0     0   501   502  0.000000000E+00  0.000000000E+00 -5.424892128E+02  5.424892128E+02  0.000000000E+00  0.00000E+00  9.000E+00
      25     1     1     2     0     0 -1.689914404E+02  1.004817357E+02 -1.787705867E+02  2.936641088E+02  1.250000000E+02  0.00000E+00  9.000E+00
      25     1     1     2     0     0  3.175270438E+02  2.582577345E+02 -8.964462411E+01  4.372432271E+02  1.250000000E+02  0.00000E+00  9.000E+00
      21     1     1     2   512   502 -1.485356034E+02 -3.587394702E+02  8.371865721E+02  9.228424511E+02  0.000000000E+00  0.00000E+00  9.000E+00
#rwgt            2          11   3.7775847428055645E-003           9      302130           0
</event>
<event>
      5   9999  3.19816E-02  3.09860E+01 -1.00000E+00  1.52071E-01
      21    -1     0     0   511   501  0.000000000E+00  0.000000000E+00  5.779299661E+02  5.779299661E+02  0.000000000E+00  0.00000E+00  9.000E+00
      21    -1     0     0   501   502  0.000000000E+00  0.000000000E+00 -4.947202346E+02  4.947202346E+02  0.000000000E+00  0.00000E+00  9.000E+00
      25     1     1     2     0     0 -1.818566427E+02 -2.105844492E+02 -3.792308960E+02  4.866813344E+02  1.250000000E+02  0.00000E+00  9.000E+00
      25     1     1     2     0     0  1.838726293E+02  2.415047899E+02  4.315855214E+02  5.422405090E+02  1.250000000E+02  0.00000E+00  9.000E+00
      21     1     1     2   511   502 -2.015986652E+00 -3.092034066E+01  3.085510603E+01  4.372835735E+01  1.118282261E-06  0.00000E+00  9.000E+00
#rwgt            1           1   2.6407367108253761E-002           9      302150           0
</event>
<event>
      5   9999  3.19816E-02  2.88526E+01 -1.00000E+00  1.54226E-01
      21    -1     0     0   502   501  0.000000000E+00  0.000000000E+00  8.082456345E+01  8.082456345E+01  0.000000000E+00  0.00000E+00  9.000E+00
      21    -1     0     0   501   512  0.000000000E+00  0.000000000E+00 -1.300748126E+03  1.300748126E+03  0.000000000E+00  0.00000E+00  9.000E+00
      25     1     1     2     0     0 -1.555445526E+02  1.442071549E+02 -1.829786988E+02  3.067507385E+02  1.250000000E+02  0.00000E+00  9.000E+00
      25     1     1     2     0     0  1.416528883E+02 -1.694953672E+02 -9.197248194E+02  9.541032249E+02  1.250000000E+02  0.00000E+00  9.000E+00
      21     1     1     2   502   512  1.389166433E+01  2.528821229E+01 -1.172200444E+02  1.207187260E+02  0.000000000E+00  0.00000E+00  9.000E+00
#rwgt            1           1   3.5883129184802680E-002           9      302322           0
</event>
<event>
      5   9999  3.19816E-02  1.57954E+02 -1.00000E+00  1.15511E-01
      21    -1     0     0   511   501  0.000000000E+00  0.000000000E+00  5.863201049E+02  5.863201049E+02  0.000000000E+00  0.00000E+00  9.000E+00
      21    -1     0     0   501   502  0.000000000E+00  0.000000000E+00 -4.098095712E+02  4.098095712E+02  0.000000000E+00  0.00000E+00  9.000E+00
      25     1     1     2     0     0  1.301595370E+02 -2.152778376E+02 -1.792662357E+02  3.332378065E+02  1.250000000E+02  0.00000E+00  9.000E+00
      25     1     1     2     0     0 -2.842730038E+02  1.806564285E+02  1.193835368E+02  3.785832996E+02  1.250000000E+02  0.00000E+00  9.000E+00
      21     1     1     2   511   502  1.541134668E+02  3.462140906E+01  2.363932325E+02  2.843085701E+02  2.697398305E-06  0.00000E+00  9.000E+00
#rwgt            1           1   2.8034588196882326E-002           9      302438           0
</event>
<event>
      5   9999  3.19816E-02  2.29747E+02 -1.00000E+00  1.09499E-01
      21    -1     0     0   502   501  0.000000000E+00  0.000000000E+00  5.024957509E+02  5.024957509E+02  0.000000000E+00  0.00000E+00  9.000E+00
      21    -1     0     0   512   502  0.000000000E+00  0.000000000E+00 -4.984470484E+02  4.984470484E+02  0.000000000E+00  0.00000E+00  9.000E+00
      25     1     1     2     0     0 -8.539718445E+01 -6.388078389E+01  1.390127425E+02  2.152277311E+02  1.250000000E+02  0.00000E+00  9.000E+00
      25     1     1     2     0     0 -2.559433684E+01  2.650389997E+02  2.169086353E+02  3.654792710E+02  1.250000000E+02  0.00000E+00  9.000E+00
      21     1     1     2   512   501  1.109915213E+02 -2.011582158E+02 -3.518726753E+02  4.202357972E+02  5.394796609E-06  0.00000E+00  9.000E+00
#rwgt            1           1   2.4108598895967764E-002           9      302489           0
</event>
<event>
      5   9999  3.19816E-02  1.17774E+02 -1.00000E+00  1.20714E-01
      21    -1     0     0   502   501  0.000000000E+00  0.000000000E+00  5.788364853E+02  5.788364853E+02  0.000000000E+00  0.00000E+00  9.000E+00
      21    -1     0     0   511   502  0.000000000E+00  0.000000000E+00 -4.760681945E+02  4.760681945E+02  0.000000000E+00  0.00000E+00  9.000E+00
      25     1     1     2     0     0 -2.037347583E+01  2.101965499E+02  4.642304468E+02  5.251024432E+02  1.250000000E+02  0.00000E+00  9.000E+00
      25     1     1     2     0     0 -9.497449230E+01 -1.864137544E+02 -1.455740655E+02  2.838785842E+02  1.250000000E+02  0.00000E+00  9.000E+00
      21     1     1     2   511   501  1.153479681E+02 -2.378279557E+01 -2.158880906E+02  2.459236523E+02  5.394796609E-06  0.00000E+00  9.000E+00
#rwgt            1           1   3.0826697625367969E-002           9      302531           0
</event>
<event>
      5   9999  3.19816E-02  6.15924E+01 -1.00000E+00  1.34098E-01
      21    -1     0     0   502   512  0.000000000E+00  0.000000000E+00  2.152757347E+02  2.152757347E+02  0.000000000E+00  0.00000E+00  9.000E+00
      21    -1     0     0   501   502  0.000000000E+00  0.000000000E+00 -5.248744010E+02  5.248744010E+02  0.000000000E+00  0.00000E+00  9.000E+00
      25     1     1     2     0     0  1.408193937E+02 -5.230957681E+01  1.055360402E+02  2.221018893E+02  1.250000000E+02  0.00000E+00  9.000E+00
      25     1     1     2     0     0 -1.923158748E+02  1.851995694E+01 -3.871958416E+02  4.504153686E+02  1.250000000E+02  0.00000E+00  9.000E+00
      21     1     1     2   501   512  5.149648116E+01  3.378961987E+01 -2.793886488E+01  6.763287776E+01  1.348699152E-06  0.00000E+00  9.000E+00
#rwgt            1           1   3.0737012104684044E-002           9      302563           0
</event>
<event>
      5   9999  3.19816E-02  1.72254E+02 -1.00000E+00  1.14061E-01
      21    -1     0     0   502   501  0.000000000E+00  0.000000000E+00  5.780473684E+02  5.780473684E+02  0.000000000E+00  0.00000E+00  9.000E+00
       1    -1     0     0   501     0  0.000000000E+00  0.000000000E+00 -8.509745665E+02  8.509745665E+02  0.000000000E+00  0.00000E+00  9.000E+00
      25     1     1     2     0     0  8.604109001E+00 -4.370783698E+01  4.979227576E+02  5.153023173E+02  1.250000000E+02  0.00000E+00  9.000E+00
      25     1     1     2     0     0  7.312975941E+01  1.953351546E+02 -1.921278099E+02  3.099062434E+02  1.250000000E+02  0.00000E+00  9.000E+00
       1     1     1     2   502     0 -8.173386841E+01 -1.516273177E+02 -5.787221458E+02  6.038133741E+02  0.000000000E+00  0.00000E+00  9.000E+00
#rwgt            1           1   2.5372997929465558E-002           9      302629           0
</event>
<event>
      5   9999  3.19816E-02  2.55718E+01 -1.00000E+00  1.58019E-01
      21    -1     0     0   502   501  0.000000000E+00  0.000000000E+00  3.983568248E+02  3.983568248E+02  0.000000000E+00  0.00000E+00  9.000E+00
      21    -1     0     0   511   502  0.000000000E+00  0.000000000E+00 -6.728315300E+02  6.728315300E+02  0.000000000E+00  0.00000E+00  9.000E+00
      25     1     1     2     0     0  1.131520123E+02  3.047347719E+02  7.144241710E+01  3.555216984E+02  1.250000000E+02  0.00000E+00  9.000E+00
      25     1     1     2     0     0 -1.236867734E+02 -3.280357024E+02 -3.416753779E+00  3.722129957E+02  1.250000000E+02  0.00000E+00  9.000E+00
      21     1     1     2   511   501  1.053476109E+01  2.330093057E+01 -3.425003685E+02  3.434536606E+02  5.394796609E-06  0.00000E+00  9.000E+00
#rwgt            2          11   1.7202075641932352E-003           9      302768           0
</event>
<event>
      5   9999  3.19816E-02  1.11989E+02 -1.00000E+00  1.21656E-01
      21    -1     0     0   502   501  0.000000000E+00  0.000000000E+00  4.192531164E+01  4.192531164E+01  0.000000000E+00  0.00000E+00  9.000E+00
       2    -1     0     0   501     0  0.000000000E+00  0.000000000E+00 -4.317695382E+03  4.317695382E+03  0.000000000E+00  0.00000E+00  9.000E+00
      25     1     1     2     0     0 -2.447653695E+02 -9.281748499E+01 -6.445997245E+02  7.068656001E+02  1.250000000E+02  0.00000E+00  9.000E+00
      25     1     1     2     0     0  1.331503737E+02  8.367657677E+01 -1.043398298E+03  1.062560963E+03  1.250000000E+02  0.00000E+00  9.000E+00
       2     1     1     2   502     0  1.116149959E+02  9.140908221E+00 -2.587772047E+03  2.590194130E+03  3.051757812E-05  0.00000E+00  9.000E+00
#rwgt            1           1   2.9031034823323431E-002           9      302803           0
</event>
<event>
      5   9999  3.19816E-02  2.05067E+01 -1.00000E+00  1.65477E-01
      21    -1     0     0   502   501  0.000000000E+00  0.000000000E+00  2.038527718E+03  2.038527718E+03  0.000000000E+00  0.00000E+00  9.000E+00
      21    -1     0     0   511   502  0.000000000E+00  0.000000000E+00 -1.106776483E+02  1.106776483E+02  0.000000000E+00  0.00000E+00  9.000E+00
      25     1     1     2     0     0  6.483452722E+01  2.013451912E+02  5.243692913E+01  2.512330263E+02  1.250000000E+02  0.00000E+00  9.000E+00
      25     1     1     2     0     0 -7.678258537E+01 -1.846787489E+02  1.851538086E+03  1.866499421E+03  1.250000000E+02  0.00000E+00  9.000E+00
      21     1     1     2   511   501  1.194805815E+01 -1.666644234E+01  2.387505535E+01  3.147291950E+01  3.371747881E-07  0.00000E+00  9.000E+00
#rwgt            1           1   3.5882632261567203E-002           9      302872           0
</event>
<event>
      5   9999  3.19816E-02  2.41823E+01 -1.00000E+00  1.59840E-01
      21    -1     0     0   512   501  0.000000000E+00  0.000000000E+00  2.538830237E+03  2.538830237E+03  0.000000000E+00  0.00000E+00  9.000E+00
      21    -1     0     0   501   502  0.000000000E+00  0.000000000E+00 -4.736413800E+02  4.736413800E+02  0.000000000E+00  0.00000E+00  9.000E+00
      25     1     1     2     0     0  2.551013476E+01 -1.073213018E+03  9.734761321E+02  1.454550697E+03  1.250000000E+02  0.00000E+00  9.000E+00
      25     1     1     2     0     0 -4.363201972E+01  1.057201086E+03  9.935619064E+02  1.456834978E+03  1.250000000E+02  0.00000E+00  9.000E+00
      21     1     1     2   512   502  1.812188497E+01  1.601193188E+01  9.815081796E+01  1.010859424E+02  1.348699152E-06  0.00000E+00  9.000E+00
#rwgt            1           1   2.5996296902793283E-002           9      303076           0
</event>
<event>
      5   9999  3.19816E-02  1.33004E+02 -1.00000E+00  1.18502E-01
       5    -1     0     0   502     0  0.000000000E+00  0.000000000E+00  2.770231127E+02  2.770231127E+02  0.000000000E+00  0.00000E+00  9.000E+00
      21    -1     0     0   501   502  0.000000000E+00  0.000000000E+00 -1.302792106E+03  1.302792106E+03  0.000000000E+00  0.00000E+00  9.000E+00
      25     1     1     2     0     0  1.060910650E+02  1.837460274E+02 -8.602022593E+02  8.947574216E+02  1.250000000E+02  0.00000E+00  9.000E+00
      25     1     1     2     0     0 -1.834936617E+01 -2.837026457E+02 -3.433903787E+02  4.629965903E+02  1.250000000E+02  0.00000E+00  9.000E+00
       5     1     1     2   501     0 -8.774169880E+01  9.995661828E+01  1.778236443E+02  2.220612071E+02  1.907348633E-06  0.00000E+00  9.000E+00
#rwgt            1           1   2.8168151310888661E-002           9      303234           0
</event>
<event>
      5   9999  3.19816E-02  3.13670E+01 -1.00000E+00  1.51708E-01
      21    -1     0     0   502   501  0.000000000E+00  0.000000000E+00  1.326636124E+03  1.326636124E+03  0.000000000E+00  0.00000E+00  9.000E+00
      21    -1     0     0   501   511  0.000000000E+00  0.000000000E+00 -1.510425110E+02  1.510425110E+02  0.000000000E+00  0.00000E+00  9.000E+00
      25     1     1     2     0     0  3.335251139E+02  6.479834735E+01  2.167549759E+02  4.219544371E+02  1.250000000E+02  0.00000E+00  9.000E+00
      25     1     1     2     0     0 -3.505512512E+02 -9.114220295E+01  9.480493181E+02  1.022553466E+03  1.250000000E+02  0.00000E+00  9.000E+00
      21     1     1     2   502   511  1.702613726E+01  2.634385560E+01  1.078931930E+01  3.317073242E+01  2.665600750E-07  0.00000E+00  9.000E+00
#rwgt            1           1   2.7632386956777048E-002           9      303294           0
</event>
<event>
      5   9999  3.19816E-02  8.99027E+01 -1.00000E+00  1.25943E-01
      21    -1     0     0   502   512  0.000000000E+00  0.000000000E+00  3.822618163E+02  3.822618163E+02  0.000000000E+00  0.00000E+00  9.000E+00
      21    -1     0     0   501   502  0.000000000E+00  0.000000000E+00 -3.158942881E+02  3.158942881E+02  0.000000000E+00  0.00000E+00  9.000E+00
      25     1     1     2     0     0  1.678560455E+02  5.300704559E+01 -1.576395159E+02  2.673211848E+02  1.250000000E+02  0.00000E+00  9.000E+00
      25     1     1     2     0     0 -2.443450129E+02 -5.763683130E+00  1.416556572E+02  3.089158957E+02  1.250000000E+02  0.00000E+00  9.000E+00
      21     1     1     2   501   512  7.648896744E+01 -4.724336246E+01  8.235138695E+01  1.219190238E+02  2.336015456E-06  0.00000E+00  9.000E+00
#rwgt            1           1   2.9882398242857922E-002           9      303458           0
</event>
<event>
      5   9999  3.19816E-02  1.95153E+01 -1.00000E+00  1.67253E-01
      21    -1     0     0   502   511  0.000000000E+00  0.000000000E+00  9.100151913E+02  9.100151913E+02  0.000000000E+00  0.00000E+00  9.000E+00
      21    -1     0     0   501   502  0.000000000E+00  0.000000000E+00 -3.348920176E+02  3.348920176E+02  0.000000000E+00  0.00000E+00  9.000E+00
      25     1     1     2     0     0 -1.724833720E+02  1.877986446E+02  6.357072299E+02  6.962524877E+02  1.250000000E+02  0.00000E+00  9.000E+00
      25     1     1     2     0     0  1.552612190E+02 -1.969771925E+02 -2.395262903E+02  3.686514671E+02  1.250000000E+02  0.00000E+00  9.000E+00
      21     1     1     2   501   511  1.722215304E+01  9.178547863E+00  1.789422341E+02  1.800032540E+02  1.907348633E-06  0.00000E+00  9.000E+00
#rwgt            1           1   3.1073245280302773E-002           9      303524           0
</event>
<event>
      5   9999  3.19816E-02  1.77525E+02 -1.00000E+00  1.13566E-01
      21    -1     0     0   502   501  0.000000000E+00  0.000000000E+00  4.036599483E+02  4.036599483E+02  0.000000000E+00  0.00000E+00  9.000E+00
      21    -1     0     0   501   512  0.000000000E+00  0.000000000E+00 -2.166033836E+03  2.166033836E+03  0.000000000E+00  0.00000E+00  9.000E+00
      25     1     1     2     0     0  3.854063787E+02  2.033703913E+02  9.081975514E+01  4.623535668E+02  1.250000000E+02  0.00000E+00  9.000E+00
      25     1     1     2     0     0 -5.629077744E+02 -2.062598158E+02 -6.574258566E+02  8.984664885E+02  1.250000000E+02  0.00000E+00  9.000E+00
      21     1     1     2   502   512  1.775013957E+02  2.889424530E+00 -1.195767786E+03  1.208873729E+03  1.525878906E-05  0.00000E+00  9.000E+00
#rwgt            1           1   2.6987127492509096E-002           9      303792           0
</event>
<event>
      5   9999  3.19816E-02  3.19192E+01 -1.00000E+00  1.51193E-01
      21    -1     0     0   502   501  0.000000000E+00  0.000000000E+00  8.466832031E+02  8.466832031E+02  0.000000000E+00  0.00000E+00  9.000E+00
      21    -1     0     0   501   511  0.000000000E+00  0.000000000E+00 -2.047674869E+02  2.047674869E+02  0.000000000E+00  0.00000E+00  9.000E+00
      25     1     1     2     0     0  8.883708661E+01  1.918834476E+00  1.754292219E+01  1.543647110E+02  1.250000000E+02  0.00000E+00  9.000E+00
      25     1     1     2     0     0 -1.135605674E+02  1.826989446E+01  7.492137131E+02  7.682291190E+02  1.250000000E+02  0.00000E+00  9.000E+00
      21     1     1     2   502   511  2.472348081E+01 -2.018872893E+01 -1.248409191E+02  1.288568600E+02  3.568322551E-06  0.00000E+00  9.000E+00
#rwgt            1           1   2.6923005563232839E-002           9      303830           0
</event>
<event>
      5   9999  3.19816E-02  4.81153E+01 -1.00000E+00  1.40034E-01
       1    -1     0     0   502     0  0.000000000E+00  0.000000000E+00  1.265727704E+03  1.265727704E+03  0.000000000E+00  0.00000E+00  9.000E+00
      21    -1     0     0   501   502  0.000000000E+00  0.000000000E+00 -8.126194523E+01  8.126194523E+01  0.000000000E+00  0.00000E+00  9.000E+00
      25     1     1     2     0     0 -1.480109412E+02  1.460237915E+02  6.858175265E+02  7.274619344E+02  1.250000000E+02  0.00000E+00  9.000E+00
      25     1     1     2     0     0  1.310833236E+02 -1.009845055E+02  1.236257075E+02  2.414311985E+02  1.250000000E+02  0.00000E+00  9.000E+00
       1     1     1     2   501     0  1.692761758E+01 -4.503928603E+01  3.750225251E+02  3.780965166E+02  7.629394531E-06  0.00000E+00  9.000E+00
#rwgt            1           1   3.1030044437737329E-002           9      303961           0
</event>
<event>
      5   9999  3.19816E-02  2.79904E+01 -1.00000E+00  1.55161E-01
      21    -1     0     0   511   501  0.000000000E+00  0.000000000E+00  5.450435728E+02  5.450435728E+02  0.000000000E+00  0.00000E+00  9.000E+00
      21    -1     0     0   501   502  0.000000000E+00  0.000000000E+00 -1.318771782E+02  1.318771782E+02  0.000000000E+00  0.00000E+00  9.000E+00
      25     1     1     2     0     0 -4.242584909E+01 -1.138874190E+02  2.600116149E+02  3.130516519E+02  1.250000000E+02  0.00000E+00  9.000E+00
      25     1     1     2     0     0  1.705286333E+01  1.257058171E+02 -2.824665214E+01  1.803208972E+02  1.250000000E+02  0.00000E+00  9.000E+00
      21     1     1     2   511   502  2.537298576E+01 -1.181839814E+01  1.814014319E+02  1.835482019E+02  0.000000000E+00  0.00000E+00  9.000E+00
#rwgt            1           1   2.5263444623013030E-002           9      304053           0
</event>
<event>
      5   9999  3.19816E-02  1.07529E+02 -1.00000E+00  1.22426E-01
      21    -1     0     0   502   501  0.000000000E+00  0.000000000E+00  4.547607222E+02  4.547607222E+02  0.000000000E+00  0.00000E+00  9.000E+00
      21    -1     0     0   512   502  0.000000000E+00  0.000000000E+00 -1.100145488E+03  1.100145488E+03  0.000000000E+00  0.00000E+00  9.000E+00
      25     1     1     2     0     0  1.188902814E+02 -1.785760310E+02  3.605198664E+02  4.377486402E+02  1.250000000E+02  0.00000E+00  9.000E+00
      25     1     1     2     0     0 -1.563300498E+02  2.793767208E+02 -9.112389502E+02  9.738952002E+02  1.250000000E+02  0.00000E+00  9.000E+00
      21     1     1     2   512   501  3.743976833E+01 -1.008006898E+02 -9.466568245E+01  1.432623703E+02  1.348699152E-06  0.00000E+00  9.000E+00
#rwgt            1           1   1.4266189894124946E-002           9      304141           0
</event>
<event>
      5   9999  3.19816E-02  1.49845E+02 -1.00000E+00  1.16411E-01
      21    -1     0     0   511   501  0.000000000E+00  0.000000000E+00  5.455394215E+02  5.455394215E+02  0.000000000E+00  0.00000E+00  9.000E+00
      21    -1     0     0   501   502  0.000000000E+00  0.000000000E+00 -9.006904339E+02  9.006904339E+02  0.000000000E+00  0.00000E+00  9.000E+00
      25     1     1     2     0     0  2.643376547E+02  6.022322058E+02 -1.340867673E+02  6.827607828E+02  1.250000000E+02  0.00000E+00  9.000E+00
      25     1     1     2     0     0 -3.138862984E+02 -4.608166558E+02 -2.236213997E+02  6.136025823E+02  1.250000000E+02  0.00000E+00  9.000E+00
      21     1     1     2   511   502  4.954864369E+01 -1.414155500E+02  2.557154691E+00  1.498664903E+02  6.677316577E-07  0.00000E+00  9.000E+00
#rwgt            1           1   3.1433410121349280E-002           9      304290           0
</event>
<event>
      5   9999  3.19816E-02  1.08192E+02 -1.00000E+00  1.22309E-01
      21    -1     0     0   502   501  0.000000000E+00  0.000000000E+00  3.806350406E+02  3.806350406E+02  0.000000000E+00  0.00000E+00  9.000E+00
       2    -1     0     0   501     0  0.000000000E+00  0.000000000E+00 -3.652363696E+03  3.652363696E+03  0.000000000E+00  0.00000E+00  9.000E+00
      25     1     1     2     0     0  1.250572107E+02  3.016462754E+02  1.991014625E+02  4.023632361E+02  1.250000000E+02  0.00000E+00  9.000E+00
      25     1     1     2     0     0 -1.871520822E+01 -3.215688992E+02 -2.989040793E+02  4.568648209E+02  1.250000000E+02  0.00000E+00  9.000E+00
       2     1     1     2   502     0 -1.063420025E+02  1.992262379E+01 -3.171926038E+03  3.173770679E+03  4.315837288E-05  0.00000E+00  9.000E+00
#rwgt            1           1   2.9671123812909112E-002           9      304361           0
</event>
<event>
      5   9999  3.19816E-02  2.59276E+02 -1.00000E+00  1.07692E-01
      21    -1     0     0   502   501  0.000000000E+00  0.000000000E+00  1.985161175E+03  1.985161175E+03  0.000000000E+00  0.00000E+00  9.000E+00
       1    -1     0     0   501     0  0.000000000E+00  0.000000000E+00 -8.258541961E+02  8.258541961E+02  0.000000000E+00  0.00000E+00  9.000E+00
      25     1     1     2     0     0  1.708426344E+01  6.649486505E+01  1.895966326E+03  1.901322368E+03  1.250000000E+02  0.00000E+00  9.000E+00
      25     1     1     2     0     0 -2.257215762E+02  8.743514605E+01 -3.377877223E+02  4.339593069E+02  1.250000000E+02  0.00000E+00  9.000E+00
       1     1     1     2   502     0  2.086373128E+02 -1.539300111E+02 -3.988716246E+02  4.757336960E+02  5.394796609E-06  0.00000E+00  9.000E+00
#rwgt            1           1   3.2297171208394933E-002           9      304504           0
</event>
<event>
      5   9999  3.19816E-02  8.91445E+01 -1.00000E+00  1.26115E-01
      21    -1     0     0   502   501  0.000000000E+00  0.000000000E+00  1.874150648E+03  1.874150648E+03  0.000000000E+00  0.00000E+00  9.000E+00
       5    -1     0     0   501     0  0.000000000E+00  0.000000000E+00 -2.430286613E+02  2.430286613E+02  0.000000000E+00  0.00000E+00  9.000E+00
      25     1     1     2     0     0 -2.354886926E+02  6.847839210E+01  1.515902376E+02  3.142432412E+02  1.250000000E+02  0.00000E+00  9.000E+00
      25     1     1     2     0     0  1.660770143E+02 -1.244137774E+02  1.619212145E+03  1.637233438E+03  1.250000000E+02  0.00000E+00  9.000E+00
       5     1     1     2   502     0  6.941167829E+01  5.593538534E+01 -1.396803958E+02  1.657026294E+02  4.672030912E-06  0.00000E+00  9.000E+00
#rwgt            1           1   3.6937552472662928E-002           9      304578           0
</event>
<event>
      5   9999  3.19816E-02  2.86064E+01 -1.00000E+00  1.54489E-01
      21    -1     0     0   502   501  0.000000000E+00  0.000000000E+00  2.633393976E+02  2.633393976E+02  0.000000000E+00  0.00000E+00  9.000E+00
       1    -1     0     0   501     0  0.000000000E+00  0.000000000E+00 -2.577233126E+03  2.577233126E+03  0.000000000E+00  0.00000E+00  9.000E+00
      25     1     1     2     0     0  1.075682242E+02  5.181370043E+02 -6.219651199E+02  8.261370882E+02  1.250000000E+02  0.00000E+00  9.000E+00
      25     1     1     2     0     0 -1.312243113E+02 -5.342217027E+02 -3.327392576E+02  6.549450825E+02  1.250000000E+02  0.00000E+00  9.000E+00
       1     1     1     2   502     0  2.365608703E+01  1.608469848E+01 -1.359189351E+03  1.359490353E+03  3.051757812E-05  0.00000E+00  9.000E+00
#rwgt            2          12   3.8292071383925363E-004           9      304829           0
</event>
<event>
      5   9999  3.19816E-02  2.55591E+01 -1.00000E+00  1.58035E-01
      21    -1     0     0   502   511  0.000000000E+00  0.000000000E+00  7.855498779E+01  7.855498779E+01  0.000000000E+00  0.00000E+00  9.000E+00
      21    -1     0     0   501   502  0.000000000E+00  0.000000000E+00 -1.900521658E+03  1.900521658E+03  0.000000000E+00  0.00000E+00  9.000E+00
      25     1     1     2     0     0  7.111289706E+01  2.240610134E+01 -1.792768512E+03  1.798667010E+03  1.250000000E+02  0.00000E+00  9.000E+00
      25     1     1     2     0     0 -7.264614031E+01 -4.791918040E+01 -2.767578746E+01  1.548052285E+02  1.250000000E+02  0.00000E+00  9.000E+00
      21     1     1     2   501   511  1.533243255E+00  2.551307906E+01 -1.522370933E+00  2.560440687E+01  3.931196320E-07  0.00000E+00  9.000E+00
#rwgt            1           1   2.8189990730553827E-002           9      304848           0
</event>
<event>
      5   9999  3.19816E-02  6.44206E+01 -1.00000E+00  1.33074E-01
      21    -1     0     0   502   512  0.000000000E+00  0.000000000E+00  2.113154757E+03  2.113154757E+03  0.000000000E+00  0.00000E+00  9.000E+00
      21    -1     0     0   501   502  0.000000000E+00  0.000000000E+00 -2.780306865E+02  2.780306865E+02  0.000000000E+00  0.00000E+00  9.000E+00
      25     1     1     2     0     0  3.952717426E+02 -4.901844458E+02  1.327677133E+03  1.474744761E+03  1.250000000E+02  0.00000E+00  9.000E+00
      25     1     1     2     0     0 -3.310198954E+02  4.855251825E+02  2.494231830E+02  6.504965782E+02  1.250000000E+02  0.00000E+00  9.000E+00
      21     1     1     2   501   512 -6.425184714E+01  4.659263328E+00  2.580237544E+02  2.659441040E+02  0.000000000E+00  0.00000E+00  9.000E+00
#rwgt            1           1   3.2025845500800738E-002           9      305061           0
</event>
<event>
      5   9999  3.19816E-02  6.97742E+01 -1.00000E+00  1.31292E-01
      21    -1     0     0   502   501  0.000000000E+00  0.000000000E+00  3.192622474E+02  3.192622474E+02  0.000000000E+00  0.00000E+00  9.000E+00
      21    -1     0     0   511   502  0.000000000E+00  0.000000000E+00 -3.062489258E+02  3.062489258E+02  0.000000000E+00  0.00000E+00  9.000E+00
      25     1     1     2     0     0 -5.437704666E+01  1.081590301E+02  2.354998005E+02  2.928146087E+02  1.250000000E+02  0.00000E+00  9.000E+00
      25     1     1     2     0     0  1.080422505E+02 -6.356660888E+01 -1.493096710E+02  2.315863111E+02  1.250000000E+02  0.00000E+00  9.000E+00
      21     1     1     2   511   501 -5.366520379E+01 -4.459242124E+01 -7.317680801E+01  1.011102535E+02  9.536743164E-07  0.00000E+00  9.000E+00
#rwgt            1           1   2.5070289889727954E-002           9      305167           0
</event>
<event>
      5   9999  3.19816E-02  1.94856E+01 -1.00000E+00  1.67308E-01
      21    -1     0     0   502   501  0.000000000E+00  0.000000000E+00  4.158958103E+02  4.158958103E+02  0.000000000E+00  0.00000E+00  9.000E+00
      21    -1     0     0   501   512  0.000000000E+00  0.000000000E+00 -3.498407136E+02  3.498407136E+02  0.000000000E+00  0.00000E+00  9.000E+00
      25     1     1     2     0     0 -5.176243865E+01  3.509239693E+02  3.560573967E+01  3.777826769E+02  1.250000000E+02  0.00000E+00  9.000E+00
      25     1     1     2     0     0  3.447372618E+01 -3.419356057E+02  3.659449539E+01  3.675221808E+02  1.250000000E+02  0.00000E+00  9.000E+00
      21     1     1     2   502   512  1.728871247E+01 -8.988363584E+00 -6.145138347E+00  2.043166621E+01  1.685873940E-07  0.00000E+00  9.000E+00
#rwgt            1           1   3.0476490310898271E-002           9      305246           0
</event>
<event>
      5   9999  3.19816E-02  3.96968E+01 -1.00000E+00  1.45045E-01
      21    -1     0     0   511   501  0.000000000E+00  0.000000000E+00  8.031283865E+02  8.031283865E+02  0.000000000E+00  0.00000E+00  9.000E+00
      21    -1     0     0   501   502  0.000000000E+00  0.000000000E+00 -8.632472992E+02  8.632472992E+02  0.000000000E+00  0.00000E+00  9.000E+00
      25     1     1     2     0     0  1.278046059E+02  5.512559573E+01 -1.696750698E+02  2.525618299E+02  1.250000000E+02  0.00000E+00  9.000E+00
      25     1     1     2     0     0 -8.823131795E+01 -5.199688802E+01 -6.415858390E+02  6.616236322E+02  1.250000000E+02  0.00000E+00  9.000E+00
      21     1     1     2   511   502 -3.957328796E+01 -3.128707711E+00  7.511419962E+02  7.521902235E+02  0.000000000E+00  0.00000E+00  9.000E+00
#rwgt            1           1   1.5124417862281145E-002           9      305471           0
</event>
<event>
      5   9999  3.19816E-02  2.16888E+01 -1.00000E+00  1.63516E-01
      21    -1     0     0   502   501  0.000000000E+00  0.000000000E+00  4.242385753E+02  4.242385753E+02  0.000000000E+00  0.00000E+00  9.000E+00
       2    -1     0     0   501     0  0.000000000E+00  0.000000000E+00 -3.328892759E+03  3.328892759E+03  0.000000000E+00  0.00000E+00  9.000E+00
      25     1     1     2     0     0  7.606342550E+01 -1.651191715E+02  3.788637419E+01  2.238534405E+02  1.250000000E+02  0.00000E+00  9.000E+00
      25     1     1     2     0     0 -8.381025507E+01  1.853773228E+02  2.447401113E+02  3.419234311E+02  1.250000000E+02  0.00000E+00  9.000E+00
       2     1     1     2   502     0  7.746829571E+00 -2.025815138E+01 -3.187280669E+03  3.187354463E+03  0.000000000E+00  0.00000E+00  9.000E+00
#rwgt            1           1   3.2066152371978608E-002           9      305644           0
</event>
<event>
      5   9999  3.19816E-02  4.22465E+01 -1.00000E+00  1.43384E-01
      21    -1     0     0   502   511  0.000000000E+00  0.000000000E+00  2.668694620E+02  2.668694620E+02  0.000000000E+00  0.00000E+00  9.000E+00
      21    -1     0     0   501   502  0.000000000E+00  0.000000000E+00 -7.491401512E+02  7.491401512E+02  0.000000000E+00  0.00000E+00  9.000E+00
      25     1     1     2     0     0  5.303522015E+01  4.056007185E+02 -3.465042149E+02  5.504678450E+02  1.250000000E+02  0.00000E+00  9.000E+00
      25     1     1     2     0     0 -4.087212475E+01 -3.651430480E+02 -1.565143268E+02  4.184754599E+02  1.250000000E+02  0.00000E+00  9.000E+00
      21     1     1     2   501   511 -1.216309540E+01 -4.045767048E+01  2.074785252E+01  4.706630828E+01  8.920806376E-07  0.00000E+00  9.000E+00
#rwgt            1           1   2.7694704492465787E-002           9      305717           0
</event>
<event>
      5   9999  3.19816E-02  2.35244E+02 -1.00000E+00  1.09141E-01
      21    -1     0     0   512   501  0.000000000E+00  0.000000000E+00  9.690323894E+02  9.690323894E+02  0.000000000E+00  0.00000E+00  9.000E+00
      21    -1     0     0   501   502  0.000000000E+00  0.000000000E+00 -1.096907329E+02  1.096907329E+02  0.000000000E+00  0.00000E+00  9.000E+00
      25     1     1     2     0     0  2.315527784E+01 -1.747986435E+02  1.199986475E+02  2.472153071E+02  1.250000000E+02  0.00000E+00  9.000E+00
      25     1     1     2     0     0 -3.950675289E+01 -5.987629014E+01  3.125003649E+02  3.441328693E+02  1.250000000E+02  0.00000E+00  9.000E+00
      21     1     1     2   512   502  1.635147505E+01  2.346749336E+02  4.268426440E+02  4.873749460E+02  0.000000000E+00  0.00000E+00  9.000E+00
#rwgt            1           1   3.0220047460768243E-002           9      305815           0
</event>
<event>
      5   9999  3.19816E-02  1.03357E+02 -1.00000E+00  1.23186E-01
      21    -1     0     0   502   501  0.000000000E+00  0.000000000E+00  4.695757577E+02  4.695757577E+02  0.000000000E+00  0.00000E+00  9.000E+00
       2    -1     0     0   501     0  0.000000000E+00  0.000000000E+00 -2.936241304E+03  2.936241304E+03  0.000000000E+00  0.00000E+00  9.000E+00
      25     1     1     2     0     0  5.493296403E+02  2.521848227E+02  1.940424444E+02  6.470221856E+02  1.250000000E+02  0.00000E+00  9.000E+00
      25     1     1     2     0     0 -5.055938230E+02 -3.458325312E+02 -2.244042283E+03  2.329501238E+03  1.250000000E+02  0.00000E+00  9.000E+00
       2     1     1     2   502     0 -4.373581728E+01  9.364770857E+01 -4.166657079E+02  4.292936374E+02  7.629394531E-06  0.00000E+00  9.000E+00
#rwgt            1           1   2.3031162818200671E-002           9      305847           0
</event>
<event>
      5   9999  3.19816E-02  2.40372E+01 -1.00000E+00  1.60039E-01
       2    -1     0     0   502     0  0.000000000E+00  0.000000000E+00  8.819868430E+02  8.819868430E+02  0.000000000E+00  0.00000E+00  9.000E+00
      21    -1     0     0   501   502  0.000000000E+00  0.000000000E+00 -4.222740350E+02  4.222740350E+02  0.000000000E+00  0.00000E+00  9.000E+00
      25     1     1     2     0     0  3.051437529E+01  9.893138534E+01 -7.039096310E+01  1.769136337E+02  1.250000000E+02  0.00000E+00  9.000E+00
      25     1     1     2     0     0 -5.423280982E+01 -1.028330157E+02 -2.740313631E+02  3.228529305E+02  1.250000000E+02  0.00000E+00  9.000E+00
       2     1     1     2   501     0  2.371843453E+01  3.901630319E+00  8.041351342E+02  8.044943138E+02  0.000000000E+00  0.00000E+00  9.000E+00
#rwgt            1           1   2.8083095267829514E-002           9      305997           0
</event>
<event>
      5   9999  3.19816E-02  2.15368E+01 -1.00000E+00  1.63759E-01
      21    -1     0     0   502   511  0.000000000E+00  0.000000000E+00  3.882018810E+01  3.882018810E+01  0.000000000E+00  0.00000E+00  9.000E+00
      21    -1     0     0   501   502  0.000000000E+00  0.000000000E+00 -1.635540109E+03  1.635540109E+03  0.000000000E+00  0.00000E+00  9.000E+00
      25     1     1     2     0     0  4.106923213E+01  1.123347054E+02 -1.197152025E+03  1.209588252E+03  1.250000000E+02  0.00000E+00  9.000E+00
      25     1     1     2     0     0 -6.021232324E+01 -1.024668719E+02 -4.069593973E+02  4.420021886E+02  1.250000000E+02  0.00000E+00  9.000E+00
      21     1     1     2   501   511  1.914309111E+01 -9.867833577E+00  7.391501468E+00  2.276985662E+01  1.015030525E-06  0.00000E+00  9.000E+00
#rwgt            1           1   1.8815811912056599E-002           9      306144           0
</event>
<event>
      5   9999  3.19816E-02  9.22838E+01 -1.00000E+00  1.25417E-01
      21    -1     0     0   502   501  0.000000000E+00  0.000000000E+00  4.721612620E+02  4.721612620E+02  0.000000000E+00  0.00000E+00  9.000E+00
       2    -1     0     0   501     0  0.000000000E+00  0.000000000E+00 -1.417061987E+03  1.417061987E+03  0.000000000E+00  0.00000E+00  9.000E+00
      25     1     1     2     0     0  8.485228513E+01  3.581101907E+02 -2.658713950E+02  4.709091395E+02  1.250000000E+02  0.00000E+00  9.000E+00
      25     1     1     2     0     0 -3.057989609E+01 -4.327480542E+02  2.285675063E+02  5.060376601E+02  1.250000000E+02  0.00000E+00  9.000E+00
       2     1     1     2   502     0 -5.427238904E+01  7.463786350E+01 -9.075968362E+02  9.122764493E+02  1.868812365E-05  0.00000E+00  9.000E+00
#rwgt            1           1   2.5192105196460046E-002           9      306282           0
</event>
<event>
      5   9999  3.19816E-02  1.99326E+01 -1.00000E+00  1.66490E-01
      21    -1     0     0   511   501  0.000000000E+00  0.000000000E+00  1.099724663E+03  1.099724663E+03  0.000000000E+00  0.00000E+00  9.000E+00
      21    -1     0     0   501   502  0.000000000E+00  0.000000000E+00 -1.329102119E+02  1.329102119E+02  0.000000000E+00  0.00000E+00  9.000E+00
      25     1     1     2     0     0  2.719529096E+02 -1.169692561E+01  1.819931272E+02  3.504878050E+02  1.250000000E+02  0.00000E+00  9.000E+00
      25     1     1     2     0     0 -2.599149293E+02  2.758384353E+01  3.850377335E+02  4.818668853E+02  1.250000000E+02  0.00000E+00  9.000E+00
      21     1     1     2   511   502 -1.203798027E+01 -1.588691793E+01  3.997835902E+02  4.002801845E+02  5.394796609E-06  0.00000E+00  9.000E+00
#rwgt            1           1   2.9978580794132799E-002           9      306362           0
</event>
<event>
      5   9999  3.19816E-02  1.13088E+02 -1.00000E+00  1.21472E-01
      21    -1     0     0   502   501  0.000000000E+00  0.000000000E+00  3.196174982E+02  3.196174982E+02  0.000000000E+00  0.00000E+00  9.000E+00
      21    -1     0     0   512   502  0.000000000E+00  0.000000000E+00 -4.290722383E+02  4.290722383E+02  0.000000000E+00  0.00000E+00  9.000E+00
      25     1     1     2     0     0 -1.053929801E+02  2.125840318E+01  9.981165277E+01  1.927354819E+02  1.250000000E+02  0.00000E+00  9.000E+00
      25     1     1     2     0     0  2.142337865E+02  9.443018629E+00  6.728658635E+01  2.571726474E+02  1.250000000E+02  0.00000E+00  9.000E+00
      21     1     1     2   512   501 -1.088408064E+02 -3.070142181E+01 -2.765529793E+02  2.987816072E+02  3.814697266E-06  0.00000E+00  9.000E+00
#rwgt            1           1   2.7211948293391509E-002           9      306518           0
</event>
<event>
      5   9999  3.19816E-02  5.81368E+01 -1.00000E+00  1.35440E-01
      21    -1     0     0   502   501  0.000000000E+00  0.000000000E+00  5.087889785E+02  5.087889785E+02  0.000000000E+00  0.00000E+00  9.000E+00
       2    -1     0     0   501     0  0.000000000E+00  0.000000000E+00 -3.092999257E+03  3.092999257E+03  0.000000000E+00  0.00000E+00  9.000E+00
      25     1     1     2     0     0  3.425133721E+02 -6.553546266E+02 -4.782558234E+02  8.894710390E+02  1.250000000E+02  0.00000E+00  9.000E+00
      25     1     1     2     0     0 -3.352814969E+02  7.130398703E+02 -2.228665622E+02  8.283320852E+02  1.250000000E+02  0.00000E+00  9.000E+00
       2     1     1     2   502     0 -7.231875235E+00 -5.768524375E+01 -1.883087893E+03  1.883985111E+03  2.157918644E-05  0.00000E+00  9.000E+00
#rwgt            1           1   2.9801476458035447E-002           9      306570           0
</event>
<event>
      5   9999  3.19816E-02  1.66001E+02 -1.00000E+00  1.14675E-01
      21    -1     0     0   502   501  0.000000000E+00  0.000000000E+00  2.205764082E+03  2.205764082E+03  0.000000000E+00  0.00000E+00  9.000E+00
      21    -1     0     0   501   511  0.000000000E+00  0.000000000E+00 -8.088234125E+02  8.088234125E+02  0.000000000E+00  0.00000E+00  9.000E+00
      25     1     1     2     0     0  8.238504399E+01 -9.770275881E+01  1.008925184E+03  1.024640498E+03  1.250000000E+02  0.00000E+00  9.000E+00
      25     1     1     2     0     0 -7.213185419E+01  2.633865762E+02  1.161062579E+03  1.199277618E+03  1.250000000E+02  0.00000E+00  9.000E+00
      21     1     1     2   502   511 -1.025318981E+01 -1.656838174E+02 -7.730470938E+02  7.906693775E+02  1.868812365E-05  0.00000E+00  9.000E+00
#rwgt            1           1   7.4478956427204090E-002           9      306766           0
</event>
<event>
      5   9999  3.19816E-02  7.00328E+00 -1.00000E+00  2.15525E-01
      21    -1     0     0   512   501  0.000000000E+00  0.000000000E+00  1.275038502E+03  1.275038502E+03  0.000000000E+00  0.00000E+00  9.000E+00
      21    -1     0     0   501   502  0.000000000E+00  0.000000000E+00 -1.346351619E+02  1.346351619E+02  0.000000000E+00  0.00000E+00  9.000E+00
      25     1     1     2     0     0 -1.537516998E+02  2.703266804E+02  3.519956379E+02  4.860473520E+02  1.250000000E+02  0.00000E+00  9.000E+00
      25     1     1     2     0     0  1.467590624E+02 -2.707126682E+02  3.409911369E+02  4.761549397E+02  1.250000000E+02  0.00000E+00  9.000E+00
      21     1     1     2   512   502  6.992637447E+00  3.859877710E-01  4.474165650E+02  4.474713718E+02  5.394796609E-06  0.00000E+00  9.000E+00
#rwgt            1           1   3.0999920565905205E-002           9      306829           0
</event>
<event>
      5   9999  3.19816E-02  1.68938E+01 -1.00000E+00  1.72653E-01
       2    -1     0     0   502     0  0.000000000E+00  0.000000000E+00  9.086662230E+02  9.086662230E+02  0.000000000E+00  0.00000E+00  9.000E+00
      21    -1     0     0   501   502  0.000000000E+00  0.000000000E+00 -5.368760731E+02  5.368760731E+02  0.000000000E+00  0.00000E+00  9.000E+00
      25     1     1     2     0     0  8.914930505E+01  1.475873306E+02 -4.128248759E+02  4.645201792E+02  1.250000000E+02  0.00000E+00  9.000E+00
      25     1     1     2     0     0 -7.609286275E+01 -1.368667344E+02  4.188232113E+00  2.004124947E+02  1.250000000E+02  0.00000E+00  9.000E+00
       2     1     1     2   501     0 -1.305644230E+01 -1.072059614E+01  7.804267937E+02  7.806096221E+02  0.000000000E+00  0.00000E+00  9.000E+00
#rwgt            1           1   2.6621947461571888E-002           9      307117           0
</event>
<event>
      5   9999  3.19816E-02  2.53556E+01 -1.00000E+00  1.58293E-01
      21    -1     0     0   502   501  0.000000000E+00  0.000000000E+00  2.761768031E+02  2.761768031E+02  0.000000000E+00  0.00000E+00  9.000E+00
      21    -1     0     0   511   502  0.000000000E+00  0.000000000E+00 -1.244544992E+03  1.244544992E+03  0.000000000E+00  0.00000E+00  9.000E+00
      25     1     1     2     0     0  2.666267873E+02 -2.080989820E+01 -4.638937499E+01  2.988308379E+02  1.250000000E+02  0.00000E+00  9.000E+00
      25     1     1     2     0     0 -2.581008665E+02  4.468905500E+01  9.183610386E+00  2.903833804E+02  1.250000000E+02  0.00000E+00  9.000E+00
      21     1     1     2   511   501 -8.525920798E+00 -2.387915680E+01 -9.311624243E+02  9.315075770E+02  1.525878906E-05  0.00000E+00  9.000E+00
#rwgt            1           1   2.7684590745990733E-002           9      307314           0
</event>
<event>
      5   9999  3.19816E-02  4.55192E+01 -1.00000E+00  1.41443E-01
      21    -1     0     0   502   501  0.000000000E+00  0.000000000E+00  1.071099032E+02  1.071099032E+02  0.000000000E+00  0.00000E+00  9.000E+00
       1    -1     0     0   501     0  0.000000000E+00  0.000000000E+00 -1.249732023E+03  1.249732023E+03  0.000000000E+00  0.00000E+00  9.000E+00
      25     1     1     2     0     0 -2.541185779E+01  4.514123422E+01 -9.351095801E+02  9.448483584E+02  1.250000000E+02  0.00000E+00  9.000E+00
      25     1     1     2     0     0  6.555307248E+01 -6.660462886E+01  3.936102781E+01  1.609586046E+02  1.250000000E+02  0.00000E+00  9.000E+00
       1     1     1     2   502     0 -4.014121469E+01  2.146339463E+01 -2.468735672E+02  2.510349629E+02  2.697398305E-06  0.00000E+00  9.000E+00
#rwgt            1           1   2.5908503591089427E-002           9      307478           0
</event>
<event>
      5   9999  3.19816E-02  5.86381E+02 -1.00000E+00  9.69248E-02
      21    -1     0     0   502   501  0.000000000E+00  0.000000000E+00  2.085459521E+03  2.085459521E+03  0.000000000E+00  0.00000E+00  9.000E+00
       3    -1     0     0   501     0  0.000000000E+00  0.000000000E+00 -1.322678703E+03  1.322678703E+03  0.000000000E+00  0.00000E+00  9.000E+00
      25     1     1     2     0     0  9.143102220E+01  7.539910507E+02  1.005518975E+03  1.266315737E+03  1.250000000E+02  0.00000E+00  9.000E+00
      25     1     1     2     0     0  8.833150727E+00 -1.762458407E+02  8.632921351E+02  8.899656911E+02  1.250000000E+02  0.00000E+00  9.000E+00
       3     1     1     2   502     0 -1.002641729E+02 -5.777452100E+02 -1.106030292E+03  1.251856796E+03  2.157918644E-05  0.00000E+00  9.000E+00
#rwgt            2          14   1.4705442116200022E-004           9      307696           0
</event>
<event>
      5   9999  3.19816E-02  2.16017E+01 -1.00000E+00  1.63655E-01
      21    -1     0     0   502   501  0.000000000E+00  0.000000000E+00  7.510897233E+02  7.510897233E+02  0.000000000E+00  0.00000E+00  9.000E+00
      21    -1     0     0   501   511  0.000000000E+00  0.000000000E+00 -7.164453181E+01  7.164453181E+01  0.000000000E+00  0.00000E+00  9.000E+00
      25     1     1     2     0     0 -1.402687028E+02 -3.834763622E+01  5.398363515E+02  5.728823060E+02  1.250000000E+02  0.00000E+00  9.000E+00
      25     1     1     2     0     0  1.261122248E+02  2.203112693E+01  1.415727423E+02  2.281611386E+02  1.250000000E+02  0.00000E+00  9.000E+00
      21     1     1     2   502   511  1.415647798E+01  1.631650929E+01 -1.963902329E+00  2.169081042E+01  9.424321831E-08  0.00000E+00  9.000E+00
#rwgt            1           1   2.6869168929478621E-002           9      307730           0
</event>
<event>
      5   9999  3.19816E-02  1.08619E+02 -1.00000E+00  1.22234E-01
      21    -1     0     0   512   501  0.000000000E+00  0.000000000E+00  5.494695952E+02  5.494695952E+02  0.000000000E+00  0.00000E+00  9.000E+00
      21    -1     0     0   501   502  0.000000000E+00  0.000000000E+00 -9.782370396E+02  9.782370396E+02  0.000000000E+00  0.00000E+00  9.000E+00
      25     1     1     2     0     0 -4.388171591E+02  4.364722533E+02 -3.882517017E+02  7.412374187E+02  1.250000000E+02  0.00000E+00  9.000E+00
      25     1     1     2     0     0  5.285590766E+02 -3.752802105E+02 -9.148408001E+01  6.664865121E+02  1.250000000E+02  0.00000E+00  9.000E+00
      21     1     1     2   512   502 -8.974191756E+01 -6.119204271E+01  5.096833730E+01  1.199827040E+02  1.348699152E-06  0.00000E+00  9.000E+00
#rwgt            1           1   2.8124399031589659E-002           9      307852           0
</event>
<event>
      5   9999  3.19816E-02  1.32591E+02 -1.00000E+00  1.18557E-01
      21    -1     0     0   502   511  0.000000000E+00  0.000000000E+00  3.738872802E+02  3.738872802E+02  0.000000000E+00  0.00000E+00  9.000E+00
      21    -1     0     0   501   502  0.000000000E+00  0.000000000E+00 -6.690297048E+02  6.690297048E+02  0.000000000E+00  0.00000E+00  9.000E+00
      25     1     1     2     0     0 -1.950503573E+02  3.926413675E+02 -1.356943757E+02  4.756572810E+02  1.250000000E+02  0.00000E+00  9.000E+00
      25     1     1     2     0     0  6.311350495E+01 -3.794833090E+02 -1.591236374E+02  4.346679517E+02  1.250000000E+02  0.00000E+00  9.000E+00
      21     1     1     2   501   511  1.319368524E+02 -1.315805855E+01 -3.244114712E-01  1.325917522E+02  1.957536372E-06  0.00000E+00  9.000E+00
#rwgt            1           1   2.8089627547337206E-002           9      307951           0
</event>
<event>
      5   9999  3.19816E-02  3.81800E+01 -1.00000E+00  1.46106E-01
      21    -1     0     0   502   501  0.000000000E+00  0.000000000E+00  5.595178471E+02  5.595178471E+02  0.000000000E+00  0.00000E+00  9.000E+00
       2    -1     0     0   501     0  0.000000000E+00  0.000000000E+00 -1.263659906E+03  1.263659906E+03  0.000000000E+00  0.00000E+00  9.000E+00
      25     1     1     2     0     0 -2.147546081E+02  5.587687939E+01 -2.898988105E+01  2.563341190E+02  1.250000000E+02  0.00000E+00  9.000E+00
      25     1     1     2     0     0  1.816633832E+02 -3.683265766E+01  4.174641165E+02  4.735604693E+02  1.250000000E+02  0.00000E+00  9.000E+00
       2     1     1     2   502     0  3.309122494E+01 -1.904422173E+01 -1.092616295E+03  1.093283165E+03  1.525878906E-05  0.00000E+00  9.000E+00
#rwgt            1           1   2.8330411773748870E-002           9      307987           0
</event>
<event>
      5   9999  3.19816E-02  1.63364E+02 -1.00000E+00  1.14943E-01
      21    -1     0     0   502   501  0.000000000E+00  0.000000000E+00  3.264609635E+03  3.264609635E+03  0.000000000E+00  0.00000E+00  9.000E+00
      21    -1     0     0   501   511  0.000000000E+00  0.000000000E+00 -5.123281571E+01  5.123281571E+01  0.000000000E+00  0.00000E+00  9.000E+00
      25     1     1     2     0     0  1.542565403E+02 -3.174236504E+01  1.545961356E+03  1.558981774E+03  1.250000000E+02  0.00000E+00  9.000E+00
      25     1     1     2     0     0 -3.058765095E+02 -2.907746824E+01  1.434587586E+03  1.472437598E+03  1.250000000E+02  0.00000E+00  9.000E+00
      21     1     1     2   502   511  1.516199692E+02  6.081983328E+01  2.328278778E+02  2.844230790E+02  6.031565972E-06  0.00000E+00  9.000E+00
#rwgt            1           1   3.2336415158810070E-002           9      308108           0
</event>
<event>
      5   9999  3.19816E-02  3.99181E+02 -1.00000E+00  1.01712E-01
      21    -1     0     0   502   512  0.000000000E+00  0.000000000E+00  9.517636495E+02  9.517636495E+02  0.000000000E+00  0.00000E+00  9.000E+00
      21    -1     0     0   501   502  0.000000000E+00  0.000000000E+00 -2.685070490E+02  2.685070490E+02  0.000000000E+00  0.00000E+00  9.000E+00
      25     1     1     2     0     0  2.652234188E+02 -3.640559268E+01  1.551495946E+02  3.337142876E+02  1.250000000E+02  0.00000E+00  9.000E+00
      25     1     1     2     0     0  4.924380621E+01  2.822832178E+02  2.446174704E+02  3.969527356E+02  1.250000000E+02  0.00000E+00  9.000E+00
      21     1     1     2   501   512 -3.144672250E+02 -2.458776251E+02  2.834895356E+02  4.896036753E+02  3.814697266E-06  0.00000E+00  9.000E+00
#rwgt            2          11   2.7256883896384677E-003           9      308140           0
</event>
<event>
      5   9999  3.19816E-02  2.59070E+01 -1.00000E+00  1.57600E-01
      21    -1     0     0   502   501  0.000000000E+00  0.000000000E+00  2.492571209E+02  2.492571209E+02  0.000000000E+00  0.00000E+00  9.000E+00
       2    -1     0     0   501     0  0.000000000E+00  0.000000000E+00 -3.301985184E+03  3.301985184E+03  0.000000000E+00  0.00000E+00  9.000E+00
      25     1     1     2     0     0  4.326925782E+02  7.389727601E+02 -1.422361308E+03  1.664944533E+03  1.250000000E+02  0.00000E+00  9.000E+00
      25     1     1     2     0     0 -4.068500587E+02 -7.371455189E+02 -1.293545555E+03  1.548481705E+03  1.250000000E+02  0.00000E+00  9.000E+00
       2     1     1     2   502     0 -2.584251951E+01 -1.827241111E+00 -3.368211996E+02  3.378160670E+02  3.814697266E-06  0.00000E+00  9.000E+00
#rwgt            1           1   2.8119705795053712E-002           9      308160           0
</event>
<event>
      5   9999  3.19816E-02  2.58945E+02 -1.00000E+00  1.07711E-01
      21    -1     0     0   502   501  0.000000000E+00  0.000000000E+00  7.562422764E+02  7.562422764E+02  0.000000000E+00  0.00000E+00  9.000E+00
      21    -1     0     0   501   511  0.000000000E+00  0.000000000E+00 -9.422977902E+02  9.422977902E+02  0.000000000E+00  0.00000E+00  9.000E+00
      25     1     1     2     0     0  3.135010054E+02 -2.197439608E+02  4.322215470E+02  5.907713216E+02  1.250000000E+02  0.00000E+00  9.000E+00
      25     1     1     2     0     0 -3.768316444E+02  4.708250928E+02 -2.667461997E+02  6.711608535E+02  1.250000000E+02  0.00000E+00  9.000E+00
      21     1     1     2   502   511  6.333063892E+01 -2.510811320E+02 -3.515308611E+02  4.366078915E+02  3.814697266E-06  0.00000E+00  9.000E+00
#rwgt            1           1   3.3666142589569077E-002           9      308364           0
</event>
<event>
      5   9999  3.19816E-02  4.45351E+01 -1.00000E+00  1.42006E-01
      21    -1     0     0   502   501  0.000000000E+00  0.000000000E+00  2.317551435E+02  2.317551435E+02  0.000000000E+00  0.00000E+00  9.000E+00
      21    -1     0     0   512   502  0.000000000E+00  0.000000000E+00 -2.797892506E+02  2.797892506E+02  0.000000000E+00  0.00000E+00  9.000E+00
      25     1     1     2     0     0  2.315134273E+01 -2.739693528E+01  1.445900343E+02  1.944681330E+02  1.250000000E+02  0.00000E+00  9.000E+00
      25     1     1     2     0     0 -4.053263599E+01 -1.360627104E+01 -1.384474207E+01  1.328333621E+02  1.250000000E+02  0.00000E+00  9.000E+00
      21     1     1     2   512   501  1.738129326E+01  4.100320632E+01 -1.787793992E+02  1.842428991E+02  1.907348633E-06  0.00000E+00  9.000E+00
#rwgt            1           1   4.3105561145840195E-002           9      308490           0
</event>
<event>
      5   9999  3.19816E-02  1.56019E+01 -1.00000E+00  1.75789E-01
      21    -1     0     0   502   501  0.000000000E+00  0.000000000E+00  1.148256000E+02  1.148256000E+02  0.000000000E+00  0.00000E+00  9.000E+00
      21    -1     0     0   511   502  0.000000000E+00  0.000000000E+00 -6.958629700E+02  6.958629700E+02  0.000000000E+00  0.00000E+00  9.000E+00
      25     1     1     2     0     0  1.703956882E+02  1.566985851E+02 -1.818059314E+02  3.197929546E+02  1.250000000E+02  0.00000E+00  9.000E+00
      25     1     1     2     0     0 -1.548948326E+02 -1.584712137E+02 -3.134630444E+02  4.037197232E+02  1.250000000E+02  0.00000E+00  9.000E+00
      21     1     1     2   511   501 -1.550085565E+01  1.772628608E+00 -8.576839415E+01  8.717589216E+01  9.536743164E-07  0.00000E+00  9.000E+00
#rwgt            1           1   2.6247584983941932E-002           9      308560           0
</event>
<event>
      5   9999  3.19816E-02  6.79188E+01 -1.00000E+00  1.31888E-01
      21    -1     0     0   512   501  0.000000000E+00  0.000000000E+00  1.745427940E+03  1.745427940E+03  0.000000000E+00  0.00000E+00  9.000E+00
      21    -1     0     0   501   502  0.000000000E+00  0.000000000E+00 -3.171218576E+02  3.171218576E+02  0.000000000E+00  0.00000E+00  9.000E+00
      25     1     1     2     0     0 -2.187338913E+02  3.288648562E+02  1.406367350E+03  1.466114161E+03  1.250000000E+02  0.00000E+00  9.000E+00
      25     1     1     2     0     0  2.492674181E+02 -2.681964036E+02 -1.473694498E+02  4.140124531E+02  1.250000000E+02  0.00000E+00  9.000E+00
      21     1     1     2   512   502 -3.053352679E+01 -6.066845262E+01  1.693081816E+02  1.824231832E+02  2.697398305E-06  0.00000E+00  9.000E+00
#rwgt            1           1   1.9398082774839863E-002           9      308700           0
</event>
<event>
      5   9999  3.19816E-02  2.87966E+01 -1.00000E+00  1.54285E-01
      21    -1     0     0   511   501  0.000000000E+00  0.000000000E+00  5.600670764E+01  5.600670764E+01  0.000000000E+00  0.00000E+00  9.000E+00
      21    -1     0     0   501   502  0.000000000E+00  0.000000000E+00 -6.520849653E+02  6.520849653E+02  0.000000000E+00  0.00000E+00  9.000E+00
      25     1     1     2     0     0  2.378606409E+01 -9.447207192E+01 -1.673143982E+02  2.304557595E+02  1.250000000E+02  0.00000E+00  9.000E+00
      25     1     1     2     0     0 -1.525615528E+01  1.219763170E+02 -4.009350975E+02  4.375899045E+02  1.250000000E+02  0.00000E+00  9.000E+00
      21     1     1     2   511   502 -8.529908810E+00 -2.750424504E+01 -2.782876200E+01  4.004600897E+01  7.539457465E-07  0.00000E+00  9.000E+00
#rwgt            1           1   2.7710824713490782E-002           9      308804           0
</event>
<event>
      5   9999  3.19816E-02  8.87090E+01 -1.00000E+00  1.26214E-01
      21    -1     0     0   502   501  0.000000000E+00  0.000000000E+00  5.687598594E+02  5.687598594E+02  0.000000000E+00  0.00000E+00  9.000E+00
       1    -1     0     0   501     0  0.000000000E+00  0.000000000E+00 -1.381871434E+03  1.381871434E+03  0.000000000E+00  0.00000E+00  9.000E+00
      25     1     1     2     0     0  4.680364267E+02 -2.074656836E+02  3.391005332E+02  6.266691936E+02  1.250000000E+02  0.00000E+00  9.000E+00
      25     1     1     2     0     0 -3.793925649E+02  2.040679629E+02 -5.250988738E+02  6.906057334E+02  1.250000000E+02  0.00000E+00  9.000E+00
       1     1     1     2   502     0 -8.864386175E+01  3.397720733E+00 -6.271132338E+02  6.333563663E+02  7.629394531E-06  0.00000E+00  9.000E+00
#rwgt            1           1   3.1907730032562580E-002           9      308896           0
</event>
<event>
      5   9999  3.19816E-02  3.33898E+01 -1.00000E+00  1.49879E-01
      21    -1     0     0   502   511  0.000000000E+00  0.000000000E+00  8.128250781E+02  8.128250781E+02  0.000000000E+00  0.00000E+00  9.000E+00
      21    -1     0     0   501   502  0.000000000E+00  0.000000000E+00 -2.255216458E+02  2.255216458E+02  0.000000000E+00  0.00000E+00  9.000E+00
      25     1     1     2     0     0  1.632757083E+02  1.688072611E+02  1.687519380E+02  3.150508925E+02  1.250000000E+02  0.00000E+00  9.000E+00
      25     1     1     2     0     0 -1.916729073E+02 -1.512437958E+02 -2.779656161E+01  2.757006311E+02  1.250000000E+02  0.00000E+00  9.000E+00
      21     1     1     2   501   511  2.839719899E+01 -1.756346522E+01  4.463480559E+02  4.475952002E+02  0.000000000E+00  0.00000E+00  9.000E+00
#rwgt            1           1   3.3476960769734269E-002           9      308957           0
</event>
<event>
      5   9999  3.19816E-02  3.84936E+01 -1.00000E+00  1.45882E-01
       1    -1     0     0   502     0  0.000000000E+00  0.000000000E+00  1.443237155E+03  1.443237155E+03  0.000000000E+00  0.00000E+00  9.000E+00
      21    -1     0     0   501   502  0.000000000E+00  0.000000000E+00 -1.051814618E+03  1.051814618E+03  0.000000000E+00  0.00000E+00  9.000E+00
      25     1     1     2     0     0  2.041670588E+02  3.948565873E+02 -3.321973393E+02  5.688373974E+02  1.250000000E+02  0.00000E+00  9.000E+00
      25     1     1     2     0     0 -2.411420463E+02 -4.055620041E+02 -5.018864858E+02  7.001036139E+02  1.250000000E+02  0.00000E+00  9.000E+00
       1     1     1     2   501     0  3.697498748E+01  1.070541674E+01  1.225506362E+03  1.226110762E+03  1.525878906E-05  0.00000E+00  9.000E+00
#rwgt            1           1   3.3499859388396447E-002           9      309037           0
</event>
<event>
      5   9999  3.19816E-02  1.43315E+02 -1.00000E+00  1.17184E-01
      21    -1     0     0   502   501  0.000000000E+00  0.000000000E+00  5.144668996E+02  5.144668996E+02  0.000000000E+00  0.00000E+00  9.000E+00
      21    -1     0     0   511   502  0.000000000E+00  0.000000000E+00 -6.530821371E+02  6.530821371E+02  0.000000000E+00  0.00000E+00  9.000E+00
      25     1     1     2     0     0  2.321296265E+02  8.262143250E+01  4.159527358E+02  4.993517227E+02  1.250000000E+02  0.00000E+00  9.000E+00
      25     1     1     2     0     0 -9.932339496E+01 -1.364883190E+02 -4.289733043E+02  4.776371989E+02  1.250000000E+02  0.00000E+00  9.000E+00
      21     1     1     2   511   501 -1.328062315E+02  5.386688648E+01 -1.255946689E+02  1.905601150E+02  3.303624740E-06  0.00000E+00  9.000E+00
#rwgt            1           1   2.9240503553446418E-002           9      309184           0
</event>
<event>
      5   9999  3.19816E-02  4.69171E+01 -1.00000E+00  1.40671E-01
      21    -1     0     0   502   512  0.000000000E+00  0.000000000E+00  2.559600898E+02  2.559600898E+02  0.000000000E+00  0.00000E+00  9.000E+00
      21    -1     0     0   501   502  0.000000000E+00  0.000000000E+00 -4.691454265E+02  4.691454265E+02  0.000000000E+00  0.00000E+00  9.000E+00
      25     1     1     2     0     0  2.602268459E+02  4.678855107E+00 -1.914475683E+00  2.887361568E+02  1.250000000E+02  0.00000E+00  9.000E+00
      25     1     1     2     0     0 -3.068751376E+02  3.363965768E-01 -2.033776295E+02  3.887929055E+02  1.250000000E+02  0.00000E+00  9.000E+00
      21     1     1     2   501   512  4.664829163E+01 -5.015251684E+00 -7.893231519E+00  4.757645390E+01  1.140303997E-06  0.00000E+00  9.000E+00
#rwgt            1           1   2.7866784849735551E-002           9      309237           0
</event>
<event>
      5   9999  3.19816E-02  7.88578E+01 -1.00000E+00  1.28653E-01
      21    -1     0     0   502   501  0.000000000E+00  0.000000000E+00  2.933120169E+02  2.933120169E+02  0.000000000E+00  0.00000E+00  9.000E+00
      21    -1     0     0   511   502  0.000000000E+00  0.000000000E+00 -7.874694273E+02  7.874694273E+02  0.000000000E+00  0.00000E+00  9.000E+00
      25     1     1     2     0     0 -3.691773693E+02 -8.846797627E+01 -2.708907561E+02  4.828305237E+02  1.250000000E+02  0.00000E+00  9.000E+00
      25     1     1     2     0     0  4.398595407E+02  1.234334026E+02 -1.720618373E+02  5.039270743E+02  1.250000000E+02  0.00000E+00  9.000E+00
      21     1     1     2   511   501 -7.068217139E+01 -3.496542630E+01 -5.120481693E+01  9.402384626E+01  1.348699152E-06  0.00000E+00  9.000E+00
#rwgt            1           1   2.1912468091442549E-002           9      309323           0
</event>
<event>
      5   9999  3.19816E-02  2.36108E+02 -1.00000E+00  1.09085E-01
       1    -1     0     0   502     0  0.000000000E+00  0.000000000E+00  2.583286724E+03  2.583286724E+03  0.000000000E+00  0.00000E+00  9.000E+00
      21    -1     0     0   501   502  0.000000000E+00  0.000000000E+00 -4.124038826E+02  4.124038826E+02  0.000000000E+00  0.00000E+00  9.000E+00
      25     1     1     2     0     0  2.815123387E+02 -6.365353309E+02  5.233852759E+01  7.090773905E+02  1.250000000E+02  0.00000E+00  9.000E+00
      25     1     1     2     0     0 -4.196391126E+02  4.450464411E+02  1.532470829E+03  1.654767404E+03  1.250000000E+02  0.00000E+00  9.000E+00
       1     1     1     2   501     0  1.381267739E+02  1.914888898E+02  5.860734855E+02  6.318458126E+02  7.629394531E-06  0.00000E+00  9.000E+00
#rwgt            2          17   6.1562864232446706E-004           9      309472           0
</event>
<event>
      5   9999  3.19816E-02  7.13579E+01 -1.00000E+00  1.30799E-01
      21    -1     0     0   511   501  0.000000000E+00  0.000000000E+00  1.365968921E+03  1.365968921E+03  0.000000000E+00  0.00000E+00  9.000E+00
      21    -1     0     0   501   502  0.000000000E+00  0.000000000E+00 -5.038588906E+01  5.038588906E+01  0.000000000E+00  0.00000E+00  9.000E+00
      25     1     1     2     0     0 -1.638671071E+02  3.272692637E+01  7.847850995E+02  8.120567301E+02  1.250000000E+02  0.00000E+00  9.000E+00
      25     1     1     2     0     0  1.073604475E+02 -7.630390800E+01  2.192495301E+02  2.846821183E+02  1.250000000E+02  0.00000E+00  9.000E+00
      21     1     1     2   511   502  5.650665965E+01  4.357698164E+01  3.115484023E+02  3.196159615E+02  5.394796609E-06  0.00000E+00  9.000E+00
#rwgt            1           1   2.7336296213708058E-002           9      309521           0
</event>
<event>
      5   9999  3.19816E-02  3.01084E+02 -1.00000E+00  1.05541E-01
      21    -1     0     0   502   501  0.000000000E+00  0.000000000E+00  3.639541183E+02  3.639541183E+02  0.000000000E+00  0.00000E+00  9.000E+00
       1    -1     0     0   501     0  0.000000000E+00  0.000000000E+00 -2.455258801E+03  2.455258801E+03  0.000000000E+00  0.00000E+00  9.000E+00
      25     1     1     2     0     0  2.040642157E+02 -5.361533152E+02 -2.721557056E+02  6.471447363E+02  1.250000000E+02  0.00000E+00  9.000E+00
      25     1     1     2     0     0 -2.465273623E+02  8.342282962E+02 -1.452084327E+03  1.697317438E+03  1.250000000E+02  0.00000E+00  9.000E+00
       1     1     1     2   502     0  4.246314653E+01 -2.980749810E+02 -3.670646499E+02  4.747507455E+02  5.394796609E-06  0.00000E+00  9.000E+00
#rwgt            1           1   2.1149390312788226E-002           9      309586           0
</event>
<event>
      5   9999  3.19816E-02  1.11333E+01 -1.00000E+00  1.90518E-01
      21    -1     0     0   502   501  0.000000000E+00  0.000000000E+00  9.818509372E+02  9.818509372E+02  0.000000000E+00  0.00000E+00  9.000E+00
      21    -1     0     0   511   502  0.000000000E+00  0.000000000E+00 -2.531029850E+02  2.531029850E+02  0.000000000E+00  0.00000E+00  9.000E+00
      25     1     1     2     0     0 -1.529947554E+02  2.941243928E+02  7.912409608E+02  8.669508704E+02  1.250000000E+02  0.00000E+00  9.000E+00
      25     1     1     2     0     0  1.420220801E+02 -2.960084960E+02 -5.832569570E+01  3.561154135E+02  1.250000000E+02  0.00000E+00  9.000E+00
      21     1     1     2   511   501  1.097267535E+01  1.884103257E+00 -4.167312848E+00  1.188763836E+01  1.884864366E-07  0.00000E+00  9.000E+00
#rwgt            1           1   3.0729511955540408E-002           9      309701           0
</event>
<event>
      5   9999  3.19816E-02  9.09345E+01 -1.00000E+00  1.25713E-01
      21    -1     0     0   502   512  0.000000000E+00  0.000000000E+00  8.649030271E+02  8.649030271E+02  0.000000000E+00  0.00000E+00  9.000E+00
      21    -1     0     0   501   502  0.000000000E+00  0.000000000E+00 -4.217515609E+02  4.217515609E+02  0.000000000E+00  0.00000E+00  9.000E+00
      25     1     1     2     0     0  2.609773943E+02  1.355015233E+02  3.083111282E+02  4.440164580E+02  1.250000000E+02  0.00000E+00  9.000E+00
      25     1     1     2     0     0 -2.184347601E+02 -2.158707591E+02 -2.700709255E+02  4.276414782E+02  1.250000000E+02  0.00000E+00  9.000E+00
      21     1     1     2   501   512 -4.254263418E+01  8.036923586E+01  4.049112635E+02  4.149966519E+02  7.629394531E-06  0.00000E+00  9.000E+00
#rwgt            1           1   2.9371367241829968E-002           9      309998           0
</event>
<event>
      5   9999  3.19816E-02  2.47156E+02 -1.00000E+00  1.08400E-01
      21    -1     0     0   502   501  0.000000000E+00  0.000000000E+00  8.826959923E+01  8.826959923E+01  0.000000000E+00  0.00000E+00  9.000E+00
      -3    -1     0     0     0   502  0.000000000E+00  0.000000000E+00 -1.556634818E+03  1.556634818E+03  0.000000000E+00  0.00000E+00  9.000E+00
      25     1     1     2     0     0 -2.470630043E+02 -8.586477179E+01 -3.099773360E+02  4.244099857E+02  1.250000000E+02  0.00000E+00  9.000E+00
      25     1     1     2     0     0  3.515828635E+01 -4.134544129E+01 -3.715685251E+02  3.957697809E+02  1.250000000E+02  0.00000E+00  9.000E+00
      -3     1     1     2     0   501  2.119047180E+02  1.272102131E+02 -7.868193579E+02  8.247246508E+02  1.078959322E-05  0.00000E+00  9.000E+00
#rwgt            1           1   2.6612342742417847E-002           9      310090           0
</event>
<event>
      5   9999  3.19816E-02  1.65718E+01 -1.00000E+00  1.73401E-01
       2    -1     0     0   502     0  0.000000000E+00  0.000000000E+00  4.299265907E+03  4.299265907E+03  0.000000000E+00  0.00000E+00  9.000E+00
      21    -1     0     0   501   502  0.000000000E+00  0.000000000E+00 -5.613339268E+01  5.613339268E+01  0.000000000E+00  0.00000E+00  9.000E+00
      25     1     1     2     0     0 -2.890695453E+02 -2.542525176E+02  9.167253456E+02  1.002105735E+03  1.250000000E+02  0.00000E+00  9.000E+00
      25     1     1     2     0     0  2.749665191E+02  2.455503354E+02  2.834132370E+03  2.860739912E+03  1.250000000E+02  0.00000E+00  9.000E+00
       2     1     1     2   501     0  1.410302619E+01  8.702182187E+00  4.922747989E+02  4.925536528E+02  7.629394531E-06  0.00000E+00  9.000E+00
#rwgt            1           1   1.1790865399903100E-002           9      310125           0
</event>
<event>
      5   9999  3.19816E-02  3.24798E+01 -1.00000E+00  1.50682E-01
      21    -1     0     0   502   501  0.000000000E+00  0.000000000E+00  5.970518477E+02  5.970518477E+02  0.000000000E+00  0.00000E+00  9.000E+00
      21    -1     0     0   501   511  0.000000000E+00  0.000000000E+00 -3.673477685E+02  3.673477685E+02  0.000000000E+00  0.00000E+00  9.000E+00
      25     1     1     2     0     0 -1.860211625E+02  3.977803323E+00  7.786628375E+01  2.372927601E+02  1.250000000E+02  0.00000E+00  9.000E+00
      25     1     1     2     0     0  1.695731406E+02 -3.198494731E+01  4.125771966E+02  4.643522694E+02  1.250000000E+02  0.00000E+00  9.000E+00
      21     1     1     2   502   511  1.644802190E+01  2.800714399E+01 -2.607394012E+02  2.627545867E+02  0.000000000E+00  0.00000E+00  9.000E+00
#rwgt            1           1   2.6175390818850883E-002           9      310409           0
</event>
<event>
      5   9999  3.19816E-02  8.01055E+01 -1.00000E+00  1.28322E-01
      21    -1     0     0   502   501  0.000000000E+00  0.000000000E+00  3.082642991E+02  3.082642991E+02  0.000000000E+00  0.00000E+00  9.000E+00
      21    -1     0     0   512   502  0.000000000E+00  0.000000000E+00 -1.643774185E+03  1.643774185E+03  0.000000000E+00  0.00000E+00  9.000E+00
      25     1     1     2     0     0 -4.286059200E+02  1.188457201E+00  8.237616654E+01  4.539992069E+02  1.250000000E+02  0.00000E+00  9.000E+00
      25     1     1     2     0     0  3.645304386E+02 -4.926371195E+01 -1.005491055E+03  1.077936277E+03  1.250000000E+02  0.00000E+00  9.000E+00
      21     1     1     2   512   501  6.407548135E+01  4.807525475E+01 -4.123949972E+02  4.201030006E+02  0.000000000E+00  0.00000E+00  9.000E+00
#rwgt            1           1   2.6718062656175885E-002           9      310548           0
</event>
<event>
      5   9999  3.19816E-02  1.92803E+02 -1.00000E+00  1.12231E-01
       2    -1     0     0   502     0  0.000000000E+00  0.000000000E+00  3.332170831E+02  3.332170831E+02  0.000000000E+00  0.00000E+00  9.000E+00
      21    -1     0     0   501   502  0.000000000E+00  0.000000000E+00 -4.534999050E+02  4.534999050E+02  0.000000000E+00  0.00000E+00  9.000E+00
      25     1     1     2     0     0  1.243378480E+02  1.034373126E+02  6.580592330E+01  2.147430968E+02  1.250000000E+02  0.00000E+00  9.000E+00
      25     1     1     2     0     0  4.648424751E+01 -1.928400431E+02 -2.735322983E+02  3.602679360E+02  1.250000000E+02  0.00000E+00  9.000E+00
       2     1     1     2   501     0 -1.708220955E+02  8.940273048E+01  8.744355311E+01  2.117059553E+02  1.348699152E-06  0.00000E+00  9.000E+00
#rwgt            1           1   2.6301751449592542E-002           9      310639           0
</event>
<event>
      5   9999  3.19816E-02  1.78076E+02 -1.00000E+00  1.13515E-01
      21    -1     0     0   502   511  0.000000000E+00  0.000000000E+00  8.989527854E+02  8.989527854E+02  0.000000000E+00  0.00000E+00  9.000E+00
      21    -1     0     0   501   502  0.000000000E+00  0.000000000E+00 -1.691068639E+02  1.691068639E+02  0.000000000E+00  0.00000E+00  9.000E+00
      25     1     1     2     0     0  2.706957585E+02 -1.836254260E+01  5.453269341E+02  6.217876178E+02  1.250000000E+02  0.00000E+00  9.000E+00
      25     1     1     2     0     0 -9.267014729E+01  1.413704118E+01 -3.846226736E+01  1.609097826E+02  1.250000000E+02  0.00000E+00  9.000E+00
      21     1     1     2   501   511 -1.780256112E+02  4.225501422E+00  2.229812548E+02  2.853622488E+02  3.814697266E-06  0.00000E+00  9.000E+00
#rwgt            1           1   3.0155484339404993E-002           9      310685           0
</event>
<event>
      5   9999  3.19816E-02  2.06586E+02 -1.00000E+00  1.11138E-01
      21    -1     0     0   502   501  0.000000000E+00  0.000000000E+00  3.656838703E+02  3.656838703E+02  0.000000000E+00  0.00000E+00  9.000E+00
      -1    -1     0     0     0   502  0.000000000E+00  0.000000000E+00 -1.263503450E+03  1.263503450E+03  0.000000000E+00  0.00000E+00  9.000E+00
      25     1     1     2     0     0  3.081852793E+02  1.823611473E+02 -5.703426713E+02  6.849449008E+02  1.250000000E+02  0.00000E+00  9.000E+00
      25     1     1     2     0     0 -5.074314782E+02 -1.277834323E+02  2.180689055E+01  5.384383448E+02  1.250000000E+02  0.00000E+00  9.000E+00
      -1     1     1     2     0   501  1.992461989E+02 -5.457771501E+01 -3.492837989E+02  4.058040746E+02  5.394796609E-06  0.00000E+00  9.000E+00
#rwgt            1           1   3.0719479037499199E-002           9      310726           0
</event>
<event>
      5   9999  3.19816E-02  1.22679E+02 -1.00000E+00  1.19963E-01
      21    -1     0     0   502   501  0.000000000E+00  0.000000000E+00  8.234783169E+02  8.234783169E+02  0.000000000E+00  0.00000E+00  9.000E+00
      21    -1     0     0   511   502  0.000000000E+00  0.000000000E+00 -4.232933441E+02  4.232933441E+02  0.000000000E+00  0.00000E+00  9.000E+00
      25     1     1     2     0     0  1.155134643E+02 -4.493890274E+02 -1.198987578E+02  4.952722186E+02  1.250000000E+02  0.00000E+00  9.000E+00
      25     1     1     2     0     0 -7.630036806E+01  3.331453508E+02  5.125329685E+02  6.285877940E+02  1.250000000E+02  0.00000E+00  9.000E+00
      21     1     1     2   511   501 -3.921309628E+01  1.162436767E+02  7.550762114E+00  1.229116483E+02  1.124618188E-06  0.00000E+00  9.000E+00
#rwgt            1           1   2.8354837421720513E-002           9      310784           0
</event>
<event>
      5   9999  3.19816E-02  1.53766E+02 -1.00000E+00  1.15968E-01
      21    -1     0     0   512   501  0.000000000E+00  0.000000000E+00  1.012920246E+03  1.012920246E+03  0.000000000E+00  0.00000E+00  9.000E+00
      21    -1     0     0   501   502  0.000000000E+00  0.000000000E+00 -9.564356036E+02  9.564356036E+02  0.000000000E+00  0.00000E+00  9.000E+00
      25     1     1     2     0     0 -1.780759015E+01  7.447273354E+01 -9.077646673E+02  9.195243279E+02  1.250000000E+02  0.00000E+00  9.000E+00
      25     1     1     2     0     0  2.192086707E+01 -2.281835552E+02  5.871433155E+02  6.425811483E+02  1.250000000E+02  0.00000E+00  9.000E+00
      21     1     1     2   512   502 -4.113276917E+00  1.537108216E+02  3.771059944E+02  4.072503735E+02  0.000000000E+00  0.00000E+00  9.000E+00
#rwgt            2          11   3.6003325481562486E-003           9      310896           0
</event>
<event>
      5   9999  3.19816E-02  7.48296E+01 -1.00000E+00  1.29770E-01
      21    -1     0     0   502   501  0.000000000E+00  0.000000000E+00  1.332444760E+03  1.332444760E+03  0.000000000E+00  0.00000E+00  9.000E+00
      21    -1     0     0   501   511  0.000000000E+00  0.000000000E+00 -8.702533713E+02  8.702533713E+02  0.000000000E+00  0.00000E+00  9.000E+00
      25     1     1     2     0     0 -3.659012715E+02 -1.616073987E+02  2.163646842E+02  4.716347828E+02  1.250000000E+02  0.00000E+00  9.000E+00
      25     1     1     2     0     0  3.983686856E+02  2.290265265E+02  9.289263494E+02  1.043877350E+03  1.250000000E+02  0.00000E+00  9.000E+00
      21     1     1     2   502   511 -3.246741411E+01 -6.741912783E+01 -6.830996448E+02  6.871859985E+02  7.629394531E-06  0.00000E+00  9.000E+00
#rwgt            1           1   3.1171331283550402E-002           9      310916           0
</event>
<event>
      5   9999  3.19816E-02  1.85726E+02 -1.00000E+00  1.12831E-01
       1    -1     0     0   502     0  0.000000000E+00  0.000000000E+00  4.884644534E+02  4.884644534E+02  0.000000000E+00  0.00000E+00  9.000E+00
      21    -1     0     0   501   502  0.000000000E+00  0.000000000E+00 -1.626286503E+03  1.626286503E+03  0.000000000E+00  0.00000E+00  9.000E+00
      25     1     1     2     0     0  1.038637701E+02 -1.981703219E+02 -5.991921142E+02  6.517018865E+02  1.250000000E+02  0.00000E+00  9.000E+00
      25     1     1     2     0     0 -2.016410936E+02  3.560740897E+02 -9.333873644E+02  1.026783745E+03  1.250000000E+02  0.00000E+00  9.000E+00
       1     1     1     2   501     0  9.777732347E+01 -1.579037678E+02  3.947574294E+02  4.362653240E+02  7.629394531E-06  0.00000E+00  9.000E+00
#rwgt            2          17   1.8163668396546427E-003           9      310995           0
</event>
<event>
      5   9999  3.19816E-02  6.90642E+01 -1.00000E+00  1.31517E-01
       2    -1     0     0   502     0  0.000000000E+00  0.000000000E+00  5.016251510E+02  5.016251510E+02  0.000000000E+00  0.00000E+00  9.000E+00
      21    -1     0     0   501   502  0.000000000E+00  0.000000000E+00 -1.091474414E+03  1.091474414E+03  0.000000000E+00  0.00000E+00  9.000E+00
      25     1     1     2     0     0  4.804289402E+02  4.147050639E+02 -1.512144590E+02  6.642914039E+02  1.250000000E+02  0.00000E+00  9.000E+00
      25     1     1     2     0     0 -5.418059896E+02 -4.463708646E+02 -4.689029721E+02  8.534024117E+02  1.250000000E+02  0.00000E+00  9.000E+00
       2     1     1     2   501     0  6.137704938E+01  3.166580063E+01  3.026816783E+01  7.540574980E+01  1.469710828E-06  0.00000E+00  9.000E+00
#rwgt            1           1   2.7615136520667525E-002           9      311029           0
</event>
<event>
      5   9999  3.19816E-02  5.78851E+01 -1.00000E+00  1.35542E-01
      21    -1     0     0   502   511  0.000000000E+00  0.000000000E+00  3.385793519E+02  3.385793519E+02  0.000000000E+00  0.00000E+00  9.000E+00
      21    -1     0     0   501   502  0.000000000E+00  0.000000000E+00 -4.884021031E+02  4.884021031E+02  0.000000000E+00  0.00000E+00  9.000E+00
      25     1     1     2     0     0  9.848440003E+01 -3.412520170E+01 -4.207182413E+02  4.511014797E+02  1.250000000E+02  0.00000E+00  9.000E+00
      25     1     1     2     0     0 -1.555824049E+02  2.461194095E+01  1.920242129E+02  2.780466340E+02  1.250000000E+02  0.00000E+00  9.000E+00
      21     1     1     2   501   511  5.709800492E+01  9.513260747E+00  7.887127722E+01  9.783334128E+01  1.651812370E-06  0.00000E+00  9.000E+00
#rwgt            1           1   2.2269441609847337E-002           9      311148           0
</event>
<event>
      5   9999  3.19816E-02  7.68436E+01 -1.00000E+00  1.29201E-01
      21    -1     0     0   502   501  0.000000000E+00  0.000000000E+00  5.760287295E+02  5.760287295E+02  0.000000000E+00  0.00000E+00  9.000E+00
       2    -1     0     0   501     0  0.000000000E+00  0.000000000E+00 -5.018875223E+02  5.018875223E+02  0.000000000E+00  0.00000E+00  9.000E+00
      25     1     1     2     0     0 -1.273423568E+02  3.366914654E+02  3.519486508E+02  5.187196463E+02  1.250000000E+02  0.00000E+00  9.000E+00
      25     1     1     2     0     0  1.723553951E+02 -2.744117831E+02 -9.376647263E+01  3.597573631E+02  1.250000000E+02  0.00000E+00  9.000E+00
       2     1     1     2   502     0 -4.501303829E+01 -6.227968234E+01 -1.840409709E+02  1.994392424E+02  0.000000000E+00  0.00000E+00  9.000E+00
#rwgt            1           1   2.8943578384391880E-002           9      311242           0
</event>
<event>
      5   9999  3.19816E-02  1.07395E+02 -1.00000E+00  1.22450E-01
      21    -1     0     0   502   501  0.000000000E+00  0.000000000E+00  7.167425684E+02  7.167425684E+02  0.000000000E+00  0.00000E+00  9.000E+00
       1    -1     0     0   501     0  0.000000000E+00  0.000000000E+00 -3.354150049E+02  3.354150049E+02  0.000000000E+00  0.00000E+00  9.000E+00
      25     1     1     2     0     0  6.751822479E+01  1.671205170E+02  5.766879012E+02  6.169942571E+02  1.250000000E+02  0.00000E+00  9.000E+00
      25     1     1     2     0     0 -1.690667977E+02 -1.321693822E+02 -4.820139523E+01  2.529836006E+02  1.250000000E+02  0.00000E+00  9.000E+00
       1     1     1     2   502     0  1.015485729E+02 -3.495113475E+01 -1.471589424E+02  1.821797157E+02  2.697398305E-06  0.00000E+00  9.000E+00
#rwgt            1           1   2.8486281291532051E-002           9      311365           0
</event>
<event>
      5   9999  3.19816E-02  1.91901E+01 -1.00000E+00  1.67864E-01
      21    -1     0     0   502   511  0.000000000E+00  0.000000000E+00  2.770709829E+02  2.770709829E+02  0.000000000E+00  0.00000E+00  9.000E+00
      21    -1     0     0   501   502  0.000000000E+00  0.000000000E+00 -7.873551505E+02  7.873551505E+02  0.000000000E+00  0.00000E+00  9.000E+00
      25     1     1     2     0     0  1.277464218E+01  4.361437269E+02 -3.000151998E+02  5.440759709E+02  1.250000000E+02  0.00000E+00  9.000E+00
      25     1     1     2     0     0  6.153517707E+00 -4.393035799E+02 -2.020142625E+02  4.994599717E+02  1.250000000E+02  0.00000E+00  9.000E+00
      21     1     1     2   501   511 -1.892815989E+01  3.159853024E+00 -8.254705326E+00  2.089019071E+01  3.371747881E-07  0.00000E+00  9.000E+00
#rwgt            1           1   2.9224227385997462E-002           9      311438           0
</event>
<event>
      5   9999  3.19816E-02  7.74304E+00 -1.00000E+00  2.09542E-01
      21    -1     0     0   502   501  0.000000000E+00  0.000000000E+00  8.538910641E+02  8.538910641E+02  0.000000000E+00  0.00000E+00  9.000E+00
      21    -1     0     0   501   512  0.000000000E+00  0.000000000E+00 -7.727621821E+01  7.727621821E+01  0.000000000E+00  0.00000E+00  9.000E+00
      25     1     1     2     0     0 -9.154526151E+00 -1.309648178E+02  1.752236516E+02  2.521188548E+02  1.250000000E+02  0.00000E+00  9.000E+00
      25     1     1     2     0     0  1.641686950E+01  1.282791123E+02  6.270036930E+02  6.522910971E+02  1.250000000E+02  0.00000E+00  9.000E+00
      21     1     1     2   502   512 -7.262343348E+00  2.685705465E+00 -2.561249870E+01  2.675733048E+01  6.743495762E-07  0.00000E+00  9.000E+00
#rwgt            1           1   3.1589745760758348E-002           9      311580           0
</event>
<event>
      5   9999  3.19816E-02  8.44102E+01 -1.00000E+00  1.27232E-01
      21    -1     0     0   511   501  0.000000000E+00  0.000000000E+00  1.426224428E+03  1.426224428E+03  0.000000000E+00  0.00000E+00  9.000E+00
      21    -1     0     0   501   502  0.000000000E+00  0.000000000E+00 -1.112182540E+02  1.112182540E+02  0.000000000E+00  0.00000E+00  9.000E+00
      25     1     1     2     0     0 -8.401656138E+01 -1.097579883E+02  8.561233464E+00  1.865580159E+02  1.250000000E+02  0.00000E+00  9.000E+00
      25     1     1     2     0     0  1.135190085E+02  1.888445865E+02  1.077390541E+03  1.106771982E+03  1.250000000E+02  0.00000E+00  9.000E+00
      21     1     1     2   511   502 -2.950244717E+01 -7.908659820E+01  2.290543994E+02  2.441126836E+02  3.814697266E-06  0.00000E+00  9.000E+00
#rwgt            1           1   3.0116875854086844E-002           9      311790           0
</event>
<event>
      5   9999  3.19816E-02  3.11883E+01 -1.00000E+00  1.51877E-01
      21    -1     0     0   512   501  0.000000000E+00  0.000000000E+00  6.926951191E+02  6.926951191E+02  0.000000000E+00  0.00000E+00  9.000E+00
      21    -1     0     0   501   502  0.000000000E+00  0.000000000E+00 -1.849380580E+02  1.849380580E+02  0.000000000E+00  0.00000E+00  9.000E+00
      25     1     1     2     0     0  1.671752236E+02  2.761919032E+01 -7.890697767E+01  2.248592586E+02  1.250000000E+02  0.00000E+00  9.000E+00
      25     1     1     2     0     0 -1.654378109E+02 -5.875905709E+01  3.294815078E+02  3.937072009E+02  1.250000000E+02  0.00000E+00  9.000E+00
      21     1     1     2   512   502 -1.737412700E+00  3.113986676E+01  2.571825309E+02  2.590667175E+02  3.814697266E-06  0.00000E+00  9.000E+00
#rwgt            1           1   3.0410902856281657E-002           9      311882           0
</event>
<event>
      5   9999  3.19816E-02  1.47671E+02 -1.00000E+00  1.16664E-01
      21    -1     0     0   511   501  0.000000000E+00  0.000000000E+00  2.533772162E+03  2.533772162E+03  0.000000000E+00  0.00000E+00  9.000E+00
      21    -1     0     0   501   502  0.000000000E+00  0.000000000E+00 -2.541790978E+02  2.541790978E+02  0.000000000E+00  0.00000E+00  9.000E+00
      25     1     1     2     0     0  1.561107583E+02 -6.303973576E+02  4.643980917E+02  8.081225061E+02  1.250000000E+02  0.00000E+00  9.000E+00
      25     1     1     2     0     0 -9.587157654E+00  6.120268571E+02  1.275258279E+03  1.420062487E+03  1.250000000E+02  0.00000E+00  9.000E+00
      21     1     1     2   511   502 -1.465236007E+02  1.837050047E+01  5.399366931E+02  5.597662667E+02  0.000000000E+00  0.00000E+00  9.000E+00
#rwgt            1           1   2.9890753984327306E-002           9      312038           0
</event>
<event>
      5   9999  3.19816E-02  5.89437E+01 -1.00000E+00  1.35117E-01
      21    -1     0     0   502   501  0.000000000E+00  0.000000000E+00  6.525681222E+02  6.525681222E+02  0.000000000E+00  0.00000E+00  9.000E+00
      21    -1     0     0   512   502  0.000000000E+00  0.000000000E+00 -1.543742451E+02  1.543742451E+02  0.000000000E+00  0.00000E+00  9.000E+00
      25     1     1     2     0     0  9.478470604E+01 -1.402211946E+02  4.101390837E+02  4.609611609E+02  1.250000000E+02  0.00000E+00  9.000E+00
      25     1     1     2     0     0 -1.442655416E+02  1.722525397E+02  1.144003247E+02  2.814176935E+02  1.250000000E+02  0.00000E+00  9.000E+00
      21     1     1     2   512   501  4.948083559E+01 -3.203134513E+01 -2.634553144E+01  6.456351283E+01  4.768371582E-07  0.00000E+00  9.000E+00
#rwgt            1           1   2.3835958001021163E-002           9      312180           0
</event>
<event>
      5   9999  3.19816E-02  7.29810E+01 -1.00000E+00  1.30310E-01
      21    -1     0     0   502   511  0.000000000E+00  0.000000000E+00  4.533342986E+02  4.533342986E+02  0.000000000E+00  0.00000E+00  9.000E+00
      21    -1     0     0   501   502  0.000000000E+00  0.000000000E+00 -2.752428086E+02  2.752428086E+02  0.000000000E+00  0.00000E+00  9.000E+00
      25     1     1     2     0     0 -2.942312549E+01 -2.532850872E+02  8.080127590E+01  2.952505748E+02  1.250000000E+02  0.00000E+00  9.000E+00
      25     1     1     2     0     0 -1.373294640E+01  3.121389662E+02  3.677799636E+01  3.385217113E+02  1.250000000E+02  0.00000E+00  9.000E+00
      21     1     1     2   501   511  4.315607189E+01 -5.885387896E+01  6.051221764E+01  9.480482104E+01  0.000000000E+00  0.00000E+00  9.000E+00
#rwgt            1           1   2.7081817653863170E-002           9      312228           0
</event>
<event>
      5   9999  3.19816E-02  6.12594E+01 -1.00000E+00  1.34223E-01
      21    -1     0     0   502   501  0.000000000E+00  0.000000000E+00  9.000722091E+02  9.000722091E+02  0.000000000E+00  0.00000E+00  9.000E+00
      21    -1     0     0   501   512  0.000000000E+00  0.000000000E+00 -2.024204934E+02  2.024204934E+02  0.000000000E+00  0.00000E+00  9.000E+00
      25     1     1     2     0     0 -1.532193390E+02 -2.882998191E+02  4.539720470E+02  5.729821734E+02  1.250000000E+02  0.00000E+00  9.000E+00
      25     1     1     2     0     0  1.851493225E+02  3.405797278E+02  2.257293215E+02  4.656753689E+02  1.250000000E+02  0.00000E+00  9.000E+00
      21     1     1     2   502   512 -3.192998355E+01 -5.227990877E+01  1.795034718E+01  6.383516018E+01  1.507891493E-06  0.00000E+00  9.000E+00
#rwgt            1           1   2.7060936815559562E-002           9      312319           0
</event>
<event>
      5   9999  3.19816E-02  1.54873E+01 -1.00000E+00  1.76085E-01
      21    -1     0     0   502   501  0.000000000E+00  0.000000000E+00  1.192848227E+02  1.192848227E+02  0.000000000E+00  0.00000E+00  9.000E+00
       4    -1     0     0   501     0  0.000000000E+00  0.000000000E+00 -7.394337646E+02  7.394337646E+02  0.000000000E+00  0.00000E+00  9.000E+00
      25     1     1     2     0     0 -1.363254884E+02 -1.096501994E+02 -7.466060917E+01  2.276115366E+02  1.250000000E+02  0.00000E+00  9.000E+00
      25     1     1     2     0     0  1.287193735E+02  1.231411038E+02 -2.351970110E+02  3.204294657E+02  1.250000000E+02  0.00000E+00  9.000E+00
       4     1     1     2   502     0  7.606114967E+00 -1.349090440E+01 -3.102913217E+02  3.106775850E+02  0.000000000E+00  0.00000E+00  9.000E+00
#rwgt            1           1   2.2848981752037159E-002           9      312387           0
</event>
<event>
      5   9999  3.19816E-02  2.72981E+02 -1.00000E+00  1.06941E-01
      21    -1     0     0   511   501  0.000000000E+00  0.000000000E+00  3.932940071E+02  3.932940071E+02  0.000000000E+00  0.00000E+00  9.000E+00
      21    -1     0     0   501   502  0.000000000E+00  0.000000000E+00 -4.726337353E+02  4.726337353E+02  0.000000000E+00  0.00000E+00  9.000E+00
      25     1     1     2     0     0 -1.185571409E+02 -1.930443357E+02 -1.850079408E+02  3.180799418E+02  1.250000000E+02  0.00000E+00  9.000E+00
      25     1     1     2     0     0  2.208053204E+02 -6.006407519E+01  1.898564103E+01  2.614347666E+02  1.250000000E+02  0.00000E+00  9.000E+00
      21     1     1     2   511   502 -1.022481795E+02  2.531084109E+02  8.668257153E+01  2.864130340E+02  1.907348633E-06  0.00000E+00  9.000E+00
#rwgt            1           1   2.6871782457147535E-002           9      312543           0
</event>
<event>
      5   9999  3.19816E-02  1.77904E+02 -1.00000E+00  1.13531E-01
      21    -1     0     0   512   501  0.000000000E+00  0.000000000E+00  1.495394832E+02  1.495394832E+02  0.000000000E+00  0.00000E+00  9.000E+00
      21    -1     0     0   501   502  0.000000000E+00  0.000000000E+00 -8.299238339E+02  8.299238339E+02  0.000000000E+00  0.00000E+00  9.000E+00
      25     1     1     2     0     0 -1.987672027E+02  1.902829116E+02 -4.122070982E+02  5.111317629E+02  1.250000000E+02  0.00000E+00  9.000E+00
      25     1     1     2     0     0  2.395794391E+01 -1.572458661E+02 -1.099715428E+02  2.302585193E+02  1.250000000E+02  0.00000E+00  9.000E+00
      21     1     1     2   512   502  1.748092588E+02 -3.303704548E+01 -1.582057097E+02  2.380730349E+02  1.907348633E-06  0.00000E+00  9.000E+00
#rwgt            2          11   3.4400950181343250E-003           9      312745           0
</event>
<event>
      5   9999  3.19816E-02  2.19742E+02 -1.00000E+00  1.10180E-01
      21    -1     0     0   502   501  0.000000000E+00  0.000000000E+00  1.508130262E+02  1.508130262E+02  0.000000000E+00  0.00000E+00  9.000E+00
      21    -1     0     0   501   511  0.000000000E+00  0.000000000E+00 -8.571688400E+02  8.571688400E+02  0.000000000E+00  0.00000E+00  9.000E+00
      25     1     1     2     0     0 -7.949993085E+01 -3.471185714E+01 -2.623480094E+02  3.032764911E+02  1.250000000E+02  0.00000E+00  9.000E+00
      25     1     1     2     0     0  1.023081845E+02 -1.838430427E+02 -4.447875683E+01  2.487339719E+02  1.250000000E+02  0.00000E+00  9.000E+00
      21     1     1     2   502   511 -2.280825362E+01  2.185548998E+02 -3.995290476E+02  4.559714032E+02  0.000000000E+00  0.00000E+00  9.000E+00
#rwgt            2          11   2.7845880032119734E-003           9      313095           0
</event>
<event>
      5   9999  3.19816E-02  4.55240E+01 -1.00000E+00  1.41440E-01
      21    -1     0     0   512   501  0.000000000E+00  0.000000000E+00  1.308188392E+02  1.308188392E+02  0.000000000E+00  0.00000E+00  9.000E+00
      21    -1     0     0   501   502  0.000000000E+00  0.000000000E+00 -8.017295628E+02  8.017295628E+02  0.000000000E+00  0.00000E+00  9.000E+00
      25     1     1     2     0     0 -5.914781302E+01 -1.739678029E+02 -4.739103571E+02  5.234303074E+02  1.250000000E+02  0.00000E+00  9.000E+00
      25     1     1     2     0     0  6.473381674E+01  2.191478150E+02 -2.342427536E+02  3.503011554E+02  1.250000000E+02  0.00000E+00  9.000E+00
      21     1     1     2   512   502 -5.586003715E+00 -4.518001218E+01  3.724238708E+01  5.881693917E+01  1.784161275E-06  0.00000E+00  9.000E+00
#rwgt            1           1   2.5854672626886208E-002           9      313130           0
</event>
<event>
      5   9999  3.19816E-02  4.16011E+01 -1.00000E+00  1.43791E-01
      21    -1     0     0   502   511  0.000000000E+00  0.000000000E+00  2.546075272E+02  2.546075272E+02  0.000000000E+00  0.00000E+00  9.000E+00
      21    -1     0     0   501   502  0.000000000E+00  0.000000000E+00 -6.796945675E+02  6.796945675E+02  0.000000000E+00  0.00000E+00  9.000E+00
      25     1     1     2     0     0 -1.090058883E+02 -1.736655923E+02  1.415913746E+02  2.787743514E+02  1.250000000E+02  0.00000E+00  9.000E+00
      25     1     1     2     0     0  9.486921568E+01  2.127910893E+02 -5.508516137E+02  6.110177706E+02  1.250000000E+02  0.00000E+00  9.000E+00
      21     1     1     2   501   511  1.413667263E+01 -3.912549700E+01 -1.582680130E+01  4.450997268E+01  2.384185791E-07  0.00000E+00  9.000E+00
#rwgt            1           1   2.5872735886518783E-002           9      313216           0
</event>
<event>
      5   9999  3.19816E-02  8.57495E+01 -1.00000E+00  1.26907E-01
      21    -1     0     0   502   512  0.000000000E+00  0.000000000E+00  5.425934526E+02  5.425934526E+02  0.000000000E+00  0.00000E+00  9.000E+00
      21    -1     0     0   501   502  0.000000000E+00  0.000000000E+00 -1.117127560E+03  1.117127560E+03  0.000000000E+00  0.00000E+00  9.000E+00
      25     1     1     2     0     0  2.427038861E+02 -4.851365863E+02  2.348046337E+02  6.041695952E+02  1.250000000E+02  0.00000E+00  9.000E+00
      25     1     1     2     0     0 -2.964046121E+02  4.182844417E+02 -8.135553067E+02  9.696983063E+02  1.250000000E+02  0.00000E+00  9.000E+00
      21     1     1     2   501   512  5.370072604E+01  6.685214456E+01  4.216565784E+00  8.585311081E+01  5.717076687E-07  0.00000E+00  9.000E+00
#rwgt            1           1   3.3402336118008476E-002           9      313332           0
</event>
<event>
      5   9999  3.19816E-02  3.90696E+01 -1.00000E+00  1.45477E-01
      21    -1     0     0   502   501  0.000000000E+00  0.000000000E+00  1.333613130E+02  1.333613130E+02  0.000000000E+00  0.00000E+00  9.000E+00
      21    -1     0     0   511   502  0.000000000E+00  0.000000000E+00 -1.314077176E+03  1.314077176E+03  0.000000000E+00  0.00000E+00  9.000E+00
      25     1     1     2     0     0 -2.307465052E+02  1.987458990E+02 -4.160821908E+02  5.305593950E+02  1.250000000E+02  0.00000E+00  9.000E+00
      25     1     1     2     0     0  2.255777176E+02 -2.374721211E+02 -3.331299948E+02  4.836102857E+02  1.250000000E+02  0.00000E+00  9.000E+00
      21     1     1     2   511   501  5.168787654E+00  3.872622212E+01 -4.315036770E+02  4.332688079E+02  7.629394531E-06  0.00000E+00  9.000E+00
#rwgt            1           1   2.7473082637827880E-002           9      313495           0
</event>
<event>
      5   9999  3.19816E-02  1.05705E+02 -1.00000E+00  1.22754E-01
       2    -1     0     0   502     0  0.000000000E+00  0.000000000E+00  2.567058223E+03  2.567058223E+03  0.000000000E+00  0.00000E+00  9.000E+00
      21    -1     0     0   501   502  0.000000000E+00  0.000000000E+00 -8.554530908E+02  8.554530908E+02  0.000000000E+00  0.00000E+00  9.000E+00
      25     1     1     2     0     0 -8.384214087E+02  9.948968356E+02  2.750079989E+02  1.335673827E+03  1.250000000E+02  0.00000E+00  9.000E+00
      25     1     1     2     0     0  9.211149732E+02 -9.290541927E+02  1.038722713E+03  1.675160996E+03  1.250000000E+02  0.00000E+00  9.000E+00
       2     1     1     2   501     0 -8.269356459E+01 -6.584264284E+01  3.978744202E+02  4.116764913E+02  0.000000000E+00  0.00000E+00  9.000E+00
#rwgt            1           1   5.7361406824005645E-002           9      313603           0
</event>
<event>
      5   9999  3.19816E-02  1.17107E+02 -1.00000E+00  1.20820E-01
       1    -1     0     0   502     0  0.000000000E+00  0.000000000E+00  2.743814129E+02  2.743814129E+02  0.000000000E+00  0.00000E+00  9.000E+00
      21    -1     0     0   501   502  0.000000000E+00  0.000000000E+00 -4.579814427E+02  4.579814427E+02  0.000000000E+00  0.00000E+00  9.000E+00
      25     1     1     2     0     0 -7.897352339E+01  8.782902787E+01 -2.794008804E+02  3.280862806E+02  1.250000000E+02  0.00000E+00  9.000E+00
      25     1     1     2     0     0  1.058945706E+02  2.614132700E+01 -8.688961263E+01  1.872747549E+02  1.250000000E+02  0.00000E+00  9.000E+00
       1     1     1     2   501     0 -2.692104719E+01 -1.139703549E+02  1.826904632E+02  2.170018201E+02  2.697398305E-06  0.00000E+00  9.000E+00
#rwgt            1           1   2.1713448087816823E-002           9      313747           0
</event>
<event>
      5   9999  3.19816E-02  9.22710E+01 -1.00000E+00  1.25420E-01
      21    -1     0     0   502   501  0.000000000E+00  0.000000000E+00  2.059628767E+02  2.059628767E+02  0.000000000E+00  0.00000E+00  9.000E+00
       2    -1     0     0   501     0  0.000000000E+00  0.000000000E+00 -1.215117055E+03  1.215117055E+03  0.000000000E+00  0.00000E+00  9.000E+00
      25     1     1     2     0     0  2.790709418E+02  2.291516729E+02 -2.616071842E+02  4.630922139E+02  1.250000000E+02  0.00000E+00  9.000E+00
      25     1     1     2     0     0 -3.496663289E+02 -2.885673877E+02 -4.674251254E+02  6.630602738E+02  1.250000000E+02  0.00000E+00  9.000E+00
       2     1     1     2   502     0  7.059538718E+01  5.941571480E+01 -2.801218688E+02  2.949274440E+02  5.394796609E-06  0.00000E+00  9.000E+00
#rwgt            2          13   3.8170184206968104E-004           9      313784           0
</event>
<event>
      5   9999  3.19816E-02  1.06649E+01 -1.00000E+00  1.92580E-01
      21    -1     0     0   502   511  0.000000000E+00  0.000000000E+00  4.110706523E+02  4.110706523E+02  0.000000000E+00  0.00000E+00  9.000E+00
      21    -1     0     0   501   502  0.000000000E+00  0.000000000E+00 -2.109221537E+02  2.109221537E+02  0.000000000E+00  0.00000E+00  9.000E+00
      25     1     1     2     0     0 -1.946069211E+02  5.060052457E+01  2.204382165E+02  3.234969461E+02  1.250000000E+02  0.00000E+00  9.000E+00
      25     1     1     2     0     0  1.999678590E+02 -4.138090525E+01 -6.857059621E+01  2.490511004E+02  1.250000000E+02  0.00000E+00  9.000E+00
      21     1     1     2   501   511 -5.360937900E+00 -9.219619320E+00  4.828087827E+01  4.944475950E+01  9.536743164E-07  0.00000E+00  9.000E+00
#rwgt            1           1   2.4933199951883860E-002           9      313818           0
</event>
<event>
      5   9999  3.19816E-02  1.85277E+01 -1.00000E+00  1.69156E-01
      21    -1     0     0   502   501  0.000000000E+00  0.000000000E+00  1.228317079E+03  1.228317079E+03  0.000000000E+00  0.00000E+00  9.000E+00
      21    -1     0     0   512   502  0.000000000E+00  0.000000000E+00 -2.445540588E+02  2.445540588E+02  0.000000000E+00  0.00000E+00  9.000E+00
      25     1     1     2     0     0 -3.953522276E+02  3.329455978E+02  3.254761017E+02  6.234708075E+02  1.250000000E+02  0.00000E+00  9.000E+00
      25     1     1     2     0     0  3.810426157E+02 -3.211764660E+02  6.513970277E+02  8.296329821E+02  1.250000000E+02  0.00000E+00  9.000E+00
      21     1     1     2   512   501  1.430961196E+01 -1.176913184E+01  6.889890547E+00  1.976734809E+01  2.665600750E-07  0.00000E+00  9.000E+00
#rwgt            1           1   2.7533560385904866E-002           9      313982           0
</event>
<event>
      5   9999  3.19816E-02  2.24489E+02 -1.00000E+00  1.09852E-01
      21    -1     0     0   502   501  0.000000000E+00  0.000000000E+00  2.679117139E+02  2.679117139E+02  0.000000000E+00  0.00000E+00  9.000E+00
       1    -1     0     0   501     0  0.000000000E+00  0.000000000E+00 -1.507822829E+03  1.507822829E+03  0.000000000E+00  0.00000E+00  9.000E+00
      25     1     1     2     0     0  3.229510336E+02  1.888699366E+02 -1.106780048E+03  1.174970764E+03  1.250000000E+02  0.00000E+00  9.000E+00
      25     1     1     2     0     0 -1.389210783E+02 -6.030671982E+01  1.444433092E+02  2.437720985E+02  1.250000000E+02  0.00000E+00  9.000E+00
       1     1     1     2   502     0 -1.840299553E+02 -1.285632168E+02 -2.775743769E+02  3.569916804E+02  0.000000000E+00  0.00000E+00  9.000E+00
#rwgt            1           1   3.1405330015208448E-002           9      314180           0
</event>
<event>
      5   9999  3.19816E-02  2.90288E+01 -1.00000E+00  1.54039E-01
       4    -1     0     0   502     0  0.000000000E+00  0.000000000E+00  4.737017449E+02  4.737017449E+02  0.000000000E+00  0.00000E+00  9.000E+00
      21    -1     0     0   501   502  0.000000000E+00  0.000000000E+00 -8.853859559E+01  8.853859559E+01  0.000000000E+00  0.00000E+00  9.000E+00
      25     1     1     2     0     0 -9.251110708E+00 -1.194302008E+02  1.129878790E+02  2.067375552E+02  1.250000000E+02  0.00000E+00  9.000E+00
      25     1     1     2     0     0  2.411342020E+01  9.449460975E+01  1.154793864E+02  1.961407071E+02  1.250000000E+02  0.00000E+00  9.000E+00
       4     1     1     2   501     0 -1.486230949E+01  2.493559105E+01  1.566958839E+02  1.593620782E+02  0.000000000E+00  0.00000E+00  9.000E+00
#rwgt            1           1   2.5141299665564013E-002           9      314247           0
</event>
<event>
      5   9999  3.19816E-02  6.87233E+01 -1.00000E+00  1.31627E-01
      21    -1     0     0   502   501  0.000000000E+00  0.000000000E+00  2.015240173E+02  2.015240173E+02  0.000000000E+00  0.00000E+00  9.000E+00
       2    -1     0     0   501     0  0.000000000E+00  0.000000000E+00 -3.294459444E+03  3.294459444E+03  0.000000000E+00  0.00000E+00  9.000E+00
      25     1     1     2     0     0  3.918242717E+02  9.529882353E+01 -5.433415572E+02  6.880793366E+02  1.250000000E+02  0.00000E+00  9.000E+00
      25     1     1     2     0     0 -4.597151171E+02 -1.059629171E+02 -3.343441281E+02  5.915886448E+02  1.250000000E+02  0.00000E+00  9.000E+00
       2     1     1     2   502     0  6.789084543E+01  1.066409357E+01 -2.215249741E+03  2.216315480E+03  3.051757812E-05  0.00000E+00  9.000E+00
#rwgt            1           1   3.1826812229106535E-002           9      314311           0
</event>
<event>
      5   9999  3.19816E-02  2.78621E+01 -1.00000E+00  1.55304E-01
      21    -1     0     0   511   501  0.000000000E+00  0.000000000E+00  3.958489651E+02  3.958489651E+02  0.000000000E+00  0.00000E+00  9.000E+00
      21    -1     0     0   501   502  0.000000000E+00  0.000000000E+00 -9.709114581E+01  9.709114581E+01  0.000000000E+00  0.00000E+00  9.000E+00
      25     1     1     2     0     0  2.637396273E+01 -8.817582285E+01  2.974491209E+01  1.580516417E+02  1.250000000E+02  0.00000E+00  9.000E+00
      25     1     1     2     0     0 -4.577910831E+01  1.081693016E+02  2.343565519E+02  2.904209324E+02  1.250000000E+02  0.00000E+00  9.000E+00
      21     1     1     2   511   502  1.940514558E+01 -1.999347874E+01  3.465635535E+01  4.446753685E+01  6.743495762E-07  0.00000E+00  9.000E+00
#rwgt            1           1   2.3661367528602123E-002           9      314408           0
</event>
<event>
      5   9999  3.19816E-02  6.51654E+01 -1.00000E+00  1.32814E-01
      21    -1     0     0   502   512  0.000000000E+00  0.000000000E+00  2.638518470E+03  2.638518470E+03  0.000000000E+00  0.00000E+00  9.000E+00
      21    -1     0     0   501   502  0.000000000E+00  0.000000000E+00 -2.159876994E+02  2.159876994E+02  0.000000000E+00  0.00000E+00  9.000E+00
      25     1     1     2     0     0 -4.611800566E+01 -6.595511764E+02  1.362890176E+03  1.519943834E+03  1.250000000E+02  0.00000E+00  9.000E+00
      25     1     1     2     0     0  7.474877789E+01  7.180900694E+02  8.898250782E+02  1.152672719E+03  1.250000000E+02  0.00000E+00  9.000E+00
      21     1     1     2   501   512 -2.863077223E+01 -5.853889306E+01  1.698155163E+02  1.818896168E+02  0.000000000E+00  0.00000E+00  9.000E+00
#rwgt            1           1   3.5090263082535468E-002           9      314569           0
</event>
<event>
      5   9999  3.19816E-02  7.47698E+01 -1.00000E+00  1.29787E-01
      21    -1     0     0   511   501  0.000000000E+00  0.000000000E+00  8.258472857E+02  8.258472857E+02  0.000000000E+00  0.00000E+00  9.000E+00
      21    -1     0     0   501   502  0.000000000E+00  0.000000000E+00 -1.185835621E+03  1.185835621E+03  0.000000000E+00  0.00000E+00  9.000E+00
      25     1     1     2     0     0  8.843989729E+01  2.675842361E+02 -5.359426809E+02  6.182899773E+02  1.250000000E+02  0.00000E+00  9.000E+00
      25     1     1     2     0     0 -1.627819934E+02 -2.595978126E+02 -5.617121771E+02  6.519467551E+02  1.250000000E+02  0.00000E+00  9.000E+00
      21     1     1     2   511   502  7.434209609E+01 -7.986423498E+00  7.376665228E+02  7.414461741E+02  1.078959322E-05  0.00000E+00  9.000E+00
#rwgt            1           1   2.7395062773664103E-002           9      314702           0
</event>
<event>
      5   9999  3.19816E-02  4.04012E+01 -1.00000E+00  1.44572E-01
      21    -1     0     0   502   501  0.000000000E+00  0.000000000E+00  1.487057514E+03  1.487057514E+03  0.000000000E+00  0.00000E+00  9.000E+00
      21    -1     0     0   512   502  0.000000000E+00  0.000000000E+00 -5.240134816E+01  5.240134816E+01  0.000000000E+00  0.00000E+00  9.000E+00
      25     1     1     2     0     0  9.186108694E+01  1.167938136E+02  1.097568880E+03  1.114612803E+03  1.250000000E+02  0.00000E+00  9.000E+00
      25     1     1     2     0     0 -1.321423122E+02 -1.199055509E+02  2.917732903E+02  3.641367665E+02  1.250000000E+02  0.00000E+00  9.000E+00
      21     1     1     2   512   501  4.028122530E+01  3.111737286E+00  4.531399550E+01  6.070929261E+01  1.651812370E-06  0.00000E+00  9.000E+00
#rwgt            1           1   3.0851676345141941E-002           9      314762           0
</event>
<event>
      5   9999  3.19816E-02  1.69538E+02 -1.00000E+00  1.14324E-01
      21    -1     0     0   502   501  0.000000000E+00  0.000000000E+00  4.786547862E+02  4.786547862E+02  0.000000000E+00  0.00000E+00  9.000E+00
      21    -1     0     0   511   502  0.000000000E+00  0.000000000E+00 -1.388748479E+03  1.388748479E+03  0.000000000E+00  0.00000E+00  9.000E+00
      25     1     1     2     0     0  3.404743051E+02  1.158775658E+02  2.868507689E+02  4.767166101E+02  1.250000000E+02  0.00000E+00  9.000E+00
      25     1     1     2     0     0 -5.050295732E+02 -7.507577261E+01 -1.008006392E+03  1.136834697E+03  1.250000000E+02  0.00000E+00  9.000E+00
      21     1     1     2   511   501  1.645552681E+02 -4.080179321E+01 -1.889380694E+02  2.538519582E+02  6.031565972E-06  0.00000E+00  9.000E+00
#rwgt            1           1   3.6680878333578811E-002           9      314858           0
</event>
<event>
      5   9999  3.19816E-02  5.09703E+01 -1.00000E+00  1.38601E-01
      21    -1     0     0   512   501  0.000000000E+00  0.000000000E+00  3.479504779E+02  3.479504779E+02  0.000000000E+00  0.00000E+00  9.000E+00
      21    -1     0     0   501   502  0.000000000E+00  0.000000000E+00 -7.991363692E+02  7.991363692E+02  0.000000000E+00  0.00000E+00  9.000E+00
      25     1     1     2     0     0  1.403838791E+02 -1.024065166E+02  2.675264583E+01  2.157207274E+02  1.250000000E+02  0.00000E+00  9.000E+00
      25     1     1     2     0     0 -1.395005095E+02  5.144387345E+01 -6.881621101E+02  7.150517142E+02  1.250000000E+02  0.00000E+00  9.000E+00
      21     1     1     2   512   502 -8.833696597E-01  5.096264318E+01  2.102235730E+02  2.163144054E+02  0.000000000E+00  0.00000E+00  9.000E+00
#rwgt            1           1   3.5431021167284138E-002           9      314902           0
</event>
<event>
      5   9999  3.19816E-02  6.55491E+01 -1.00000E+00  1.32682E-01
      21    -1     0     0   502   501  0.000000000E+00  0.000000000E+00  8.761071672E+02  8.761071672E+02  0.000000000E+00  0.00000E+00  9.000E+00
      21    -1     0     0   501   511  0.000000000E+00  0.000000000E+00 -1.336881703E+02  1.336881703E+02  0.000000000E+00  0.00000E+00  9.000E+00
      25     1     1     2     0     0 -2.270853108E+02  1.980048941E+00  6.048918509E+02  6.580963533E+02  1.250000000E+02  0.00000E+00  9.000E+00
      25     1     1     2     0     0  1.842115905E+02  4.760350214E+01  1.644503754E+02  2.808361257E+02  1.250000000E+02  0.00000E+00  9.000E+00
      21     1     1     2   502   511  4.287372033E+01 -4.958355108E+01 -2.692322943E+01  7.086285851E+01  4.768371582E-07  0.00000E+00  9.000E+00
#rwgt            1           1   3.0548349125760921E-002           9      315059           0
</event>
<event>
      5   9999  3.19816E-02  8.46142E+02 -1.00000E+00  9.27674E-02
      21    -1     0     0   502   501  0.000000000E+00  0.000000000E+00  1.125762182E+03  1.125762182E+03  0.000000000E+00  0.00000E+00  9.000E+00
       2    -1     0     0   501     0  0.000000000E+00  0.000000000E+00 -1.164419711E+03  1.164419711E+03  0.000000000E+00  0.00000E+00  9.000E+00
      25     1     1     2     0     0  1.737048966E+02  6.568743942E+02 -2.645521679E+02  7.397771357E+02  1.250000000E+02  0.00000E+00  9.000E+00
      25     1     1     2     0     0 -2.989150102E+02  1.799525112E+02  5.339157515E+02  6.499416276E+02  1.250000000E+02  0.00000E+00  9.000E+00
       2     1     1     2   502     0  1.252101136E+02 -8.368269054E+02 -3.080211123E+02  9.004631297E+02  2.191376742E-05  0.00000E+00  9.000E+00
#rwgt            2          13   5.3086805460113024E-004           9      315166           0
</event>
<event>
      5   9999  3.19816E-02  9.75112E+01 -1.00000E+00  1.24322E-01
      21    -1     0     0   502   501  0.000000000E+00  0.000000000E+00  8.833566326E+02  8.833566326E+02  0.000000000E+00  0.00000E+00  9.000E+00
      21    -1     0     0   511   502  0.000000000E+00  0.000000000E+00 -4.684633387E+02  4.684633387E+02  0.000000000E+00  0.00000E+00  9.000E+00
      25     1     1     2     0     0  5.431787650E+02 -2.250578013E+02  4.339068458E+02  7.413462993E+02  1.250000000E+02  0.00000E+00  9.000E+00
      25     1     1     2     0     0 -4.478503878E+02  2.045409254E+02  1.211941392E+01  5.081130191E+02  1.250000000E+02  0.00000E+00  9.000E+00
      21     1     1     2   511   501 -9.532837723E+01  2.051687593E+01 -3.113296573E+01  1.023606529E+02  2.158972058E-06  0.00000E+00  9.000E+00
#rwgt            1           1   2.7282267303010300E-002           9      315185           0
</event>
<event>
      5   9999  3.19816E-02  4.50326E+01 -1.00000E+00  1.41719E-01
      21    -1     0     0   502   512  0.000000000E+00  0.000000000E+00  3.444566684E+02  3.444566684E+02  0.000000000E+00  0.00000E+00  9.000E+00
      21    -1     0     0   501   502  0.000000000E+00  0.000000000E+00 -1.394454770E+02  1.394454770E+02  0.000000000E+00  0.00000E+00  9.000E+00
      25     1     1     2     0     0 -1.510901721E+02 -1.577208167E+01  8.369554832E+01  2.137918227E+02  1.250000000E+02  0.00000E+00  9.000E+00
      25     1     1     2     0     0  1.463212100E+02 -2.900732747E+01  8.549855699E+01  2.125707525E+02  1.250000000E+02  0.00000E+00  9.000E+00
      21     1     1     2   501   512  4.768962060E+00  4.477940914E+01  3.581708605E+01  5.753957017E+01  1.066240300E-06  0.00000E+00  9.000E+00
#rwgt            1           1   2.6463955595880079E-002           9      315263           0
</event>
<event>
      5   9999  3.19816E-02  1.42089E+02 -1.00000E+00  1.17334E-01
      21    -1     0     0   502   511  0.000000000E+00  0.000000000E+00  1.778964429E+03  1.778964429E+03  0.000000000E+00  0.00000E+00  9.000E+00
      21    -1     0     0   501   502  0.000000000E+00  0.000000000E+00 -4.674728296E+02  4.674728296E+02  0.000000000E+00  0.00000E+00  9.000E+00
      25     1     1     2     0     0  6.479353711E+02 -4.194767826E+02  9.190562593E+02  1.206677432E+03  1.250000000E+02  0.00000E+00  9.000E+00
      25     1     1     2     0     0 -5.432196349E+02  3.234360310E+02  2.403057131E+01  6.449037961E+02  1.250000000E+02  0.00000E+00  9.000E+00
      21     1     1     2   501   511 -1.047157362E+02  9.604075166E+01  3.684047686E+02  3.948560306E+02  5.394796609E-06  0.00000E+00  9.000E+00
#rwgt            1           1   2.9552290504412951E-002           9      315349           0
</event>
<event>
      5   9999  3.19816E-02  6.99884E+01 -1.00000E+00  1.31224E-01
      21    -1     0     0   512   501  0.000000000E+00  0.000000000E+00  1.191637832E+03  1.191637832E+03  0.000000000E+00  0.00000E+00  9.000E+00
      21    -1     0     0   501   502  0.000000000E+00  0.000000000E+00 -8.518968952E+02  8.518968952E+02  0.000000000E+00  0.00000E+00  9.000E+00
      25     1     1     2     0     0  4.011422687E+01 -8.112750143E+02  2.672108068E+02  8.641775948E+02  1.250000000E+02  0.00000E+00  9.000E+00
      25     1     1     2     0     0 -9.894010544E+01  8.491945612E+02 -2.092579182E+02  8.890075498E+02  1.250000000E+02  0.00000E+00  9.000E+00
      21     1     1     2   512   502  5.882587857E+01 -3.791954693E+01  2.817880485E+02  2.903495829E+02  3.814697266E-06  0.00000E+00  9.000E+00
#rwgt            1           1   2.8875290232919636E-002           9      315422           0
</event>
<event>
      5   9999  3.19816E-02  1.60244E+01 -1.00000E+00  1.74723E-01
      21    -1     0     0   511   501  0.000000000E+00  0.000000000E+00  2.141022483E+02  2.141022483E+02  0.000000000E+00  0.00000E+00  9.000E+00
      21    -1     0     0   501   502  0.000000000E+00  0.000000000E+00 -3.737997431E+02  3.737997431E+02  0.000000000E+00  0.00000E+00  9.000E+00
      25     1     1     2     0     0 -1.092144642E+02  5.982477765E+01  4.696521179E+01  1.825856904E+02  1.250000000E+02  0.00000E+00  9.000E+00
      25     1     1     2     0     0  9.581206244E+01 -6.860873440E+01 -2.809557079E+02  3.293147727E+02  1.250000000E+02  0.00000E+00  9.000E+00
      21     1     1     2   511   502  1.340240176E+01  8.783956750E+00  7.429300123E+01  7.600152828E+01  1.348699152E-06  0.00000E+00  9.000E+00
#rwgt            1           1   2.9043184689056260E-002           9      315595           0
</event>
<event>
      5   9999  3.19816E-02  6.57253E+01 -1.00000E+00  1.32622E-01
      21    -1     0     0   502   501  0.000000000E+00  0.000000000E+00  3.325157269E+02  3.325157269E+02  0.000000000E+00  0.00000E+00  9.000E+00
       2    -1     0     0   501     0  0.000000000E+00  0.000000000E+00 -1.533440165E+03  1.533440165E+03  0.000000000E+00  0.00000E+00  9.000E+00
      25     1     1     2     0     0  5.695970060E+01  5.797603883E+00 -7.881507715E+01  1.584766105E+02  1.250000000E+02  0.00000E+00  9.000E+00
      25     1     1     2     0     0 -1.115131781E+02  3.085936989E+01  2.670606953E+02  3.167552755E+02  1.250000000E+02  0.00000E+00  9.000E+00
       2     1     1     2   502     0  5.455347751E+01 -3.665697377E+01 -1.389170056E+03  1.390724006E+03  0.000000000E+00  0.00000E+00  9.000E+00
#rwgt            1           1   2.7951814111006220E-002           9      315748           0
</event>
<event>
      5   9999  3.19816E-02  3.18745E+01 -1.00000E+00  1.51234E-01
      21    -1     0     0   502   511  0.000000000E+00  0.000000000E+00  5.017406108E+02  5.017406108E+02  0.000000000E+00  0.00000E+00  9.000E+00
      21    -1     0     0   501   502  0.000000000E+00  0.000000000E+00 -8.661688506E+02  8.661688506E+02  0.000000000E+00  0.00000E+00  9.000E+00
      25     1     1     2     0     0  2.726155153E+01 -5.271958783E+02 -3.639217750E+02  6.532554971E+02  1.250000000E+02  0.00000E+00  9.000E+00
      25     1     1     2     0     0 -2.928330378E+01  5.590061838E+02 -1.242566913E+02  5.868646784E+02  1.250000000E+02  0.00000E+00  9.000E+00
      21     1     1     2   501   511  2.021752242E+00 -3.181030551E+01  1.237502265E+02  1.277892859E+02  1.348699152E-06  0.00000E+00  9.000E+00
#rwgt            1           1   3.1879553134467845E-002           9      315848           0
</event>
<event>
      5   9999  3.19816E-02  7.16866E+01 -1.00000E+00  1.30699E-01
      21    -1     0     0   502   512  0.000000000E+00  0.000000000E+00  2.044836870E+02  2.044836870E+02  0.000000000E+00  0.00000E+00  9.000E+00
      21    -1     0     0   501   502  0.000000000E+00  0.000000000E+00 -1.895628363E+03  1.895628363E+03  0.000000000E+00  0.00000E+00  9.000E+00
      25     1     1     2     0     0 -3.148562925E+02  1.998067120E+02 -7.053121663E+02  8.075564742E+02  1.250000000E+02  0.00000E+00  9.000E+00
      25     1     1     2     0     0  2.948916182E+02 -1.309563032E+02 -1.102553863E+03  1.155578055E+03  1.250000000E+02  0.00000E+00  9.000E+00
      21     1     1     2   501   512  1.996467432E+01 -6.885040883E+01  1.167213531E+02  1.369775211E+02  6.031565972E-06  0.00000E+00  9.000E+00
#rwgt            1           1   3.1492231892679023E-002           9      315986           0
</event>
<event>
      5   9999  3.19816E-02  9.21694E+01 -1.00000E+00  1.25442E-01
      21    -1     0     0   502   511  0.000000000E+00  0.000000000E+00  1.317373137E+03  1.317373137E+03  0.000000000E+00  0.00000E+00  9.000E+00
      21    -1     0     0   501   502  0.000000000E+00  0.000000000E+00 -2.028435589E+02  2.028435589E+02  0.000000000E+00  0.00000E+00  9.000E+00
      25     1     1     2     0     0  3.557897439E+02 -1.978847921E+02  3.501959111E+02  5.513682154E+02  1.250000000E+02  0.00000E+00  9.000E+00
      25     1     1     2     0     0 -3.916160206E+02  2.828063898E+02  5.993425752E+02  7.798583744E+02  1.250000000E+02  0.00000E+00  9.000E+00
      21     1     1     2   501   511  3.582627669E+01 -8.492159771E+01  1.649910920E+02  1.889901063E+02  1.907348633E-06  0.00000E+00  9.000E+00
#rwgt            1           1   2.8804408421066362E-002           9      316069           0
</event>
<event>
      5   9999  3.19816E-02  2.45391E+01 -1.00000E+00  1.59359E-01
      21    -1     0     0   502   501  0.000000000E+00  0.000000000E+00  7.191016052E+02  7.191016052E+02  0.000000000E+00  0.00000E+00  9.000E+00
      21    -1     0     0   512   502  0.000000000E+00  0.000000000E+00 -1.813623181E+02  1.813623181E+02  0.000000000E+00  0.00000E+00  9.000E+00
      25     1     1     2     0     0 -1.353815421E+02 -2.263919402E+02  4.735680275E+02  5.563031091E+02  1.250000000E+02  0.00000E+00  9.000E+00
      25     1     1     2     0     0  1.128548796E+02  2.361241129E+02  9.460431106E+01  3.050668717E+02  1.250000000E+02  0.00000E+00  9.000E+00
      21     1     1     2   512   501  2.252666252E+01 -9.732172721E+00 -3.043305145E+01  3.909394237E+01  1.011524364E-06  0.00000E+00  9.000E+00
#rwgt            1           1   2.4921897376546608E-002           9      316171           0
</event>
<event>
      5   9999  3.19816E-02  1.24286E+02 -1.00000E+00  1.19725E-01
      21    -1     0     0   502   501  0.000000000E+00  0.000000000E+00  2.039154913E+02  2.039154913E+02  0.000000000E+00  0.00000E+00  9.000E+00
      21    -1     0     0   511   502  0.000000000E+00  0.000000000E+00 -8.449347408E+02  8.449347408E+02  0.000000000E+00  0.00000E+00  9.000E+00
      25     1     1     2     0     0  2.707153213E+02  3.160401159E+01  2.900658482E+01  3.012506941E+02  1.250000000E+02  0.00000E+00  9.000E+00
      25     1     1     2     0     0 -1.621841356E+02  2.895931863E+01 -3.977889729E+02  4.483340306E+02  1.250000000E+02  0.00000E+00  9.000E+00
      21     1     1     2   511   501 -1.085311857E+02 -6.056333022E+01 -2.722368613E+02  2.992655074E+02  3.814697266E-06  0.00000E+00  9.000E+00
#rwgt            1           1   3.0315833809332161E-002           9      316323           0
</event>
<event>
      5   9999  3.19816E-02  1.58664E+02 -1.00000E+00  1.15435E-01
      21    -1     0     0   502   512  0.000000000E+00  0.000000000E+00  1.934099022E+03  1.934099022E+03  0.000000000E+00  0.00000E+00  9.000E+00
      21    -1     0     0   501   502  0.000000000E+00  0.000000000E+00 -5.300709325E+02  5.300709325E+02  0.000000000E+00  0.00000E+00  9.000E+00
      25     1     1     2     0     0 -4.060957655E+02 -2.403846980E+02  1.383105729E+03  1.466732775E+03  1.250000000E+02  0.00000E+00  9.000E+00
      25     1     1     2     0     0  5.128462450E+02  1.230029428E+02 -3.143169414E+02  6.265469931E+02  1.250000000E+02  0.00000E+00  9.000E+00
      21     1     1     2   501   512 -1.067504795E+02  1.173817552E+02  3.352393015E+02  3.708901867E+02  9.344061824E-06  0.00000E+00  9.000E+00
#rwgt            1           1   2.9356670910385588E-002           9      316375           0
</event>
<event>
      5   9999  3.19816E-02  6.54602E+01 -1.00000E+00  1.32713E-01
      21    -1     0     0   502   511  0.000000000E+00  0.000000000E+00  2.044759706E+02  2.044759706E+02  0.000000000E+00  0.00000E+00  9.000E+00
      21    -1     0     0   501   502  0.000000000E+00  0.000000000E+00 -6.834087953E+02  6.834087953E+02  0.000000000E+00  0.00000E+00  9.000E+00
      25     1     1     2     0     0 -1.460631714E+02 -1.967948189E+02 -3.494093166E+02  4.447184742E+02  1.250000000E+02  0.00000E+00  9.000E+00
      25     1     1     2     0     0  1.662817707E+02  2.590543304E+02 -1.625198830E+02  3.698600894E+02  1.250000000E+02  0.00000E+00  9.000E+00
      21     1     1     2   501   511 -2.021859938E+01 -6.225951149E+01  3.299637490E+01  7.330620226E+01  1.507891493E-06  0.00000E+00  9.000E+00
#rwgt            1           1   2.2606406500416606E-002           9      316466           0
</event>
<event>
      5   9999  3.19816E-02  1.77863E+02 -1.00000E+00  1.13535E-01
      21    -1     0     0   502   512  0.000000000E+00  0.000000000E+00  6.201437484E+02  6.201437484E+02  0.000000000E+00  0.00000E+00  9.000E+00
      21    -1     0     0   501   502  0.000000000E+00  0.000000000E+00 -2.576602392E+02  2.576602392E+02  0.000000000E+00  0.00000E+00  9.000E+00
      25     1     1     2     0     0  5.480052992E+01  8.492698401E+01 -1.764623487E+01  1.617160484E+02  1.250000000E+02  0.00000E+00  9.000E+00
      25     1     1     2     0     0  8.937052674E+01  1.923534181E+01 -1.131026151E+02  1.917662404E+02  1.250000000E+02  0.00000E+00  9.000E+00
      21     1     1     2   501   512 -1.441710567E+02 -1.041623258E+02  4.932323592E+02  5.243216988E+02  5.394796609E-06  0.00000E+00  9.000E+00
#rwgt            1           1   1.5643086840378920E-002           9      316580           0
</event>
<event>
      5   9999  3.19816E-02  3.50236E+01 -1.00000E+00  1.48512E-01
      21    -1     0     0   502   501  0.000000000E+00  0.000000000E+00  1.956512436E+02  1.956512436E+02  0.000000000E+00  0.00000E+00  9.000E+00
      21    -1     0     0   501   511  0.000000000E+00  0.000000000E+00 -7.713867733E+02  7.713867733E+02  0.000000000E+00  0.00000E+00  9.000E+00
      25     1     1     2     0     0 -4.974745800E+01 -2.398427984E+02 -3.829291719E+02  4.714436639E+02  1.250000000E+02  0.00000E+00  9.000E+00
      25     1     1     2     0     0  1.575727257E+01  2.482880033E+02  2.073907002E+01  2.791958689E+02  1.250000000E+02  0.00000E+00  9.000E+00
      21     1     1     2   502   511  3.399018543E+01 -8.445204892E+00 -2.135454277E+02  2.163984840E+02  0.000000000E+00  0.00000E+00  9.000E+00
#rwgt            1           1   2.8017612845029356E-002           9      316641           0
</event>
<event>
      5   9999  3.19816E-02  7.75087E+01 -1.00000E+00  1.29018E-01
       2    -1     0     0   502     0  0.000000000E+00  0.000000000E+00  1.441235316E+03  1.441235316E+03  0.000000000E+00  0.00000E+00  9.000E+00
      21    -1     0     0   501   502  0.000000000E+00  0.000000000E+00 -2.085344072E+02  2.085344072E+02  0.000000000E+00  0.00000E+00  9.000E+00
      25     1     1     2     0     0 -1.484518792E+01 -1.624047102E+02  1.071477724E+03  1.091001916E+03  1.250000000E+02  0.00000E+00  9.000E+00
      25     1     1     2     0     0  8.767325353E+01  1.889315589E+02 -1.172350453E+02  2.697235421E+02  1.250000000E+02  0.00000E+00  9.000E+00
       2     1     1     2   501     0 -7.282806561E+01 -2.652684873E+01  2.784582309E+02  2.890442651E+02  5.394796609E-06  0.00000E+00  9.000E+00
#rwgt            1           1   2.8706129823960379E-002           9      316786           0
</event>
<event>
      5   9999  3.19816E-02  6.74193E+01 -1.00000E+00  1.32052E-01
      21    -1     0     0   502   501  0.000000000E+00  0.000000000E+00  3.259523401E+03  3.259523401E+03  0.000000000E+00  0.00000E+00  9.000E+00
      21    -1     0     0   501   511  0.000000000E+00  0.000000000E+00 -6.056366246E+01  6.056366246E+01  0.000000000E+00  0.00000E+00  9.000E+00
      25     1     1     2     0     0 -2.829179727E+02  9.380518404E+01  1.055593156E+03  1.103967347E+03  1.250000000E+02  0.00000E+00  9.000E+00
      25     1     1     2     0     0  3.479037022E+02 -7.585479012E+01  2.104974701E+03  2.138535580E+03  1.250000000E+02  0.00000E+00  9.000E+00
      21     1     1     2   502   511 -6.498572947E+01 -1.795039392E+01  3.839188135E+01  7.758413646E+01  1.651812370E-06  0.00000E+00  9.000E+00
#rwgt            1           1   3.0037657105085710E-002           9      316849           0
</event>
<event>
      5   9999  3.19816E-02  2.65739E+01 -1.00000E+00  1.56790E-01
      21    -1     0     0   502   501  0.000000000E+00  0.000000000E+00  5.215294613E+01  5.215294613E+01  0.000000000E+00  0.00000E+00  9.000E+00
      21    -1     0     0   512   502  0.000000000E+00  0.000000000E+00 -6.411596322E+02  6.411596322E+02  0.000000000E+00  0.00000E+00  9.000E+00
      25     1     1     2     0     0  5.788464929E+01  6.514732592E+00 -1.907952887E+02  2.354164747E+02  1.250000000E+02  0.00000E+00  9.000E+00
      25     1     1     2     0     0 -8.383582562E+01 -1.223382125E+01 -1.669463205E+02  2.251092756E+02  1.250000000E+02  0.00000E+00  9.000E+00
      21     1     1     2   512   501  2.595117633E+01  5.719088660E+00 -2.312650769E+02  2.327868281E+02  0.000000000E+00  0.00000E+00  9.000E+00
#rwgt            1           1   2.8047110423374308E-002           9      316926           0
</event>
<event>
      5   9999  3.19816E-02  6.37230E+01 -1.00000E+00  1.33321E-01
      21    -1     0     0   502   511  0.000000000E+00  0.000000000E+00  2.451869405E+02  2.451869405E+02  0.000000000E+00  0.00000E+00  9.000E+00
      21    -1     0     0   501   502  0.000000000E+00  0.000000000E+00 -2.972248990E+02  2.972248990E+02  0.000000000E+00  0.00000E+00  9.000E+00
      25     1     1     2     0     0  7.674233597E+01 -1.210116199E+02 -4.516487243E+01  1.954432500E+02  1.250000000E+02  0.00000E+00  9.000E+00
      25     1     1     2     0     0 -9.976538974E+01  1.804300819E+02 -7.614401994E+01  2.528459199E+02  1.250000000E+02  0.00000E+00  9.000E+00
      21     1     1     2   501   511  2.302305377E+01 -5.941846205E+01  6.927093384E+01  9.412266949E+01  1.348699152E-06  0.00000E+00  9.000E+00
#rwgt            1           1   2.6357514820545061E-002           9      317070           0
</event>
<event>
      5   9999  3.19816E-02  5.63713E+01 -1.00000E+00  1.36167E-01
      21    -1     0     0   512   501  0.000000000E+00  0.000000000E+00  2.014743019E+02  2.014743019E+02  0.000000000E+00  0.00000E+00  9.000E+00
      21    -1     0     0   501   502  0.000000000E+00  0.000000000E+00 -7.786427102E+02  7.786427102E+02  0.000000000E+00  0.00000E+00  9.000E+00
      25     1     1     2     0     0  1.445592743E+02  1.435399695E+02 -5.178250109E+02  5.703234596E+02  1.250000000E+02  0.00000E+00  9.000E+00
      25     1     1     2     0     0 -1.758725595E+02 -1.904143372E+02 -1.330159339E+02  3.170284146E+02  1.250000000E+02  0.00000E+00  9.000E+00
      21     1     1     2   512   502  3.131328521E+01  4.687436772E+01  7.367253646E+01  9.276513790E+01  9.536743164E-07  0.00000E+00  9.000E+00
#rwgt            1           1   3.4113274749875293E-002           9      317142           0
</event>
<event>
      5   9999  3.19816E-02  1.97245E+02 -1.00000E+00  1.11868E-01
      21    -1     0     0   502   501  0.000000000E+00  0.000000000E+00  5.153812595E+02  5.153812595E+02  0.000000000E+00  0.00000E+00  9.000E+00
       3    -1     0     0   501     0  0.000000000E+00  0.000000000E+00 -5.455209987E+02  5.455209987E+02  0.000000000E+00  0.00000E+00  9.000E+00
      25     1     1     2     0     0 -3.740222811E+02  5.769453524E+01  5.403512159E+01  4.022015919E+02  1.250000000E+02  0.00000E+00  9.000E+00
      25     1     1     2     0     0  2.404088872E+02 -2.027911760E+02  1.345167650E+02  3.641983720E+02  1.250000000E+02  0.00000E+00  9.000E+00
       3     1     1     2   502     0  1.336133939E+02  1.450966408E+02 -2.186916258E+02  2.945022944E+02  4.672030912E-06  0.00000E+00  9.000E+00
#rwgt            2          14   5.6727045314582389E-005           9      317279           0
</event>
<event>
      5   9999  3.19816E-02  3.08365E+01 -1.00000E+00  1.52215E-01
      21    -1     0     0   502   501  0.000000000E+00  0.000000000E+00  1.648927422E+03  1.648927422E+03  0.000000000E+00  0.00000E+00  9.000E+00
      21    -1     0     0   511   502  0.000000000E+00  0.000000000E+00 -4.996714587E+01  4.996714587E+01  0.000000000E+00  0.00000E+00  9.000E+00
      25     1     1     2     0     0  1.993979057E+02  4.833182893E+01  4.736120711E+02  5.310639174E+02  1.250000000E+02  0.00000E+00  9.000E+00
      25     1     1     2     0     0 -1.686223567E+02 -5.027027455E+01  1.114398496E+03  1.135107751E+03  1.250000000E+02  0.00000E+00  9.000E+00
      21     1     1     2   511   501 -3.077554898E+01  1.938445627E+00  1.094970898E+01  3.272289891E+01  9.310543151E-07  0.00000E+00  9.000E+00
#rwgt            1           1   3.2849600671810843E-002           9      317298           0
</event>
<event>
      5   9999  3.19816E-02  2.77528E+01 -1.00000E+00  1.55426E-01
      21    -1     0     0   502   512  0.000000000E+00  0.000000000E+00  9.804890896E+02  9.804890896E+02  0.000000000E+00  0.00000E+00  9.000E+00
      21    -1     0     0   501   502  0.000000000E+00  0.000000000E+00 -2.987266120E+02  2.987266120E+02  0.000000000E+00  0.00000E+00  9.000E+00
      25     1     1     2     0     0  3.090216426E+02 -2.990497548E+02 -1.361356475E+01  4.480351109E+02  1.250000000E+02  0.00000E+00  9.000E+00
      25     1     1     2     0     0 -2.813863948E+02  2.964978858E+02  6.483948915E+02  7.766145986E+02  1.250000000E+02  0.00000E+00  9.000E+00
      21     1     1     2   501   512 -2.763524779E+01  2.551869029E+00  4.698115084E+01  5.456599207E+01  0.000000000E+00  0.00000E+00  9.000E+00
#rwgt            1           1   2.8582717491759994E-002           9      317446           0
</event>
<event>
      5   9999  3.19816E-02  9.36538E+01 -1.00000E+00  1.25122E-01
      21    -1     0     0   502   511  0.000000000E+00  0.000000000E+00  6.142874609E+02  6.142874609E+02  0.000000000E+00  0.00000E+00  9.000E+00
      21    -1     0     0   501   502  0.000000000E+00  0.000000000E+00 -7.664570970E+02  7.664570970E+02  0.000000000E+00  0.00000E+00  9.000E+00
      25     1     1     2     0     0  2.916449426E+02  3.623439274E+02  2.434523222E+02  5.396702025E+02  1.250000000E+02  0.00000E+00  9.000E+00
      25     1     1     2     0     0 -3.524084941E+02 -4.336097983E+02 -4.539971766E+02  7.307172095E+02  1.250000000E+02  0.00000E+00  9.000E+00
      21     1     1     2   501   511  6.076355143E+01  7.126587083E+01  5.837521841E+01  1.103571459E+02  1.348699152E-06  0.00000E+00  9.000E+00
#rwgt            1           1   2.2245477866813412E-002           9      317575           0
</event>
<event>
      5   9999  3.19816E-02  1.11214E+02 -1.00000E+00  1.21787E-01
      21    -1     0     0   502   501  0.000000000E+00  0.000000000E+00  1.295017434E+02  1.295017434E+02  0.000000000E+00  0.00000E+00  9.000E+00
      21    -1     0     0   512   502  0.000000000E+00  0.000000000E+00 -9.380938968E+02  9.380938968E+02  0.000000000E+00  0.00000E+00  9.000E+00
      25     1     1     2     0     0  1.286501318E+02 -3.453654443E+01  2.056249684E+01  1.838244967E+02  1.250000000E+02  0.00000E+00  9.000E+00
      25     1     1     2     0     0 -4.222855026E+01  1.045359302E+02 -6.615066618E+02  6.825885106E+02  1.250000000E+02  0.00000E+00  9.000E+00
      21     1     1     2   512   501 -8.642158159E+01 -6.999938578E+01 -1.676479884E+02  2.011826329E+02  4.264961200E-06  0.00000E+00  9.000E+00
#rwgt            1           1   2.6667663394869486E-002           9      317701           0
</event>
<event>
      5   9999  3.19816E-02  1.73049E+02 -1.00000E+00  1.13985E-01
      21    -1     0     0   502   501  0.000000000E+00  0.000000000E+00  2.815996100E+02  2.815996100E+02  0.000000000E+00  0.00000E+00  9.000E+00
       1    -1     0     0   501     0  0.000000000E+00  0.000000000E+00 -1.336076428E+03  1.336076428E+03  0.000000000E+00  0.00000E+00  9.000E+00
      25     1     1     2     0     0 -1.590202217E+02  3.752655902E+01  1.707874962E+02  2.673743488E+02  1.250000000E+02  0.00000E+00  9.000E+00
      25     1     1     2     0     0  2.081140814E+02  1.284122575E+02 -2.909526815E+02  4.000995397E+02  1.250000000E+02  0.00000E+00  9.000E+00
       1     1     1     2   502     0 -4.909385967E+01 -1.659388166E+02 -9.343116332E+02  9.502021499E+02  1.525878906E-05  0.00000E+00  9.000E+00
#rwgt            2          12   7.3679809325735137E-004           9      317792           0
</event>
<event>
      5   9999  3.19816E-02  2.00098E+02 -1.00000E+00  1.11640E-01
      21    -1     0     0   502   511  0.000000000E+00  0.000000000E+00  2.049408857E+03  2.049408857E+03  0.000000000E+00  0.00000E+00  9.000E+00
      21    -1     0     0   501   502  0.000000000E+00  0.000000000E+00 -1.073578768E+03  1.073578768E+03  0.000000000E+00  0.00000E+00  9.000E+00
      25     1     1     2     0     0  2.191364923E+02 -1.778680024E+02 -9.910797320E+02  1.038037506E+03  1.250000000E+02  0.00000E+00  9.000E+00
      25     1     1     2     0     0 -2.908613663E+02  3.646698571E+02  1.529902016E+03  1.604309701E+03  1.250000000E+02  0.00000E+00  9.000E+00
      21     1     1     2   501   511  7.172487404E+01 -1.868018547E+02  4.370078046E+02  4.806404183E+02  5.394796609E-06  0.00000E+00  9.000E+00
#rwgt            1           1   5.9398431014026844E-002           9      317826           0
</event>
<event>
      5   9999  3.19816E-02  4.34236E+01 -1.00000E+00  1.42662E-01
      21    -1     0     0   512   501  0.000000000E+00  0.000000000E+00  1.137615120E+02  1.137615120E+02  0.000000000E+00  0.00000E+00  9.000E+00
      21    -1     0     0   501   502  0.000000000E+00  0.000000000E+00 -7.402166317E+02  7.402166317E+02  0.000000000E+00  0.00000E+00  9.000E+00
      25     1     1     2     0     0  9.199727603E+01 -1.763917759E+02 -5.487087999E+02  5.968952207E+02  1.250000000E+02  0.00000E+00  9.000E+00
      25     1     1     2     0     0 -6.329821725E+01  1.438038953E+02 -5.557255782E+01  2.083255476E+02  1.250000000E+02  0.00000E+00  9.000E+00
      21     1     1     2   512   502 -2.869905878E+01  3.258788061E+01 -2.217376198E+01  4.875737542E+01  8.920806376E-07  0.00000E+00  9.000E+00
#rwgt            1           1   2.8399160164115700E-002           9      317926           0
</event>
<event>
      5   9999  3.19816E-02  2.96268E+01 -1.00000E+00  1.53418E-01
      21    -1     0     0   502   501  0.000000000E+00  0.000000000E+00  8.315751799E+01  8.315751799E+01  0.000000000E+00  0.00000E+00  9.000E+00
      21    -1     0     0   501   511  0.000000000E+00  0.000000000E+00 -1.157756971E+03  1.157756971E+03  0.000000000E+00  0.00000E+00  9.000E+00
      25     1     1     2     0     0  2.337218257E+01  7.296754858E+01 -5.414006130E+02  5.609011908E+02  1.250000000E+02  0.00000E+00  9.000E+00
      25     1     1     2     0     0 -5.933138169E-01 -5.402370259E+01  9.499408680E+00  1.365069640E+02  1.250000000E+02  0.00000E+00  9.000E+00
      21     1     1     2   502   511 -2.277886875E+01 -1.894384599E+01 -5.426982489E+02  5.435063344E+02  0.000000000E+00  0.00000E+00  9.000E+00
#rwgt            1           1   2.6425603630325076E-002           9      318037           0
</event>
<event>
      5   9999  3.19816E-02  6.70797E+01 -1.00000E+00  1.32165E-01
      21    -1     0     0   502   501  0.000000000E+00  0.000000000E+00  2.293927754E+02  2.293927754E+02  0.000000000E+00  0.00000E+00  9.000E+00
      21    -1     0     0   512   502  0.000000000E+00  0.000000000E+00 -2.508257725E+03  2.508257725E+03  0.000000000E+00  0.00000E+00  9.000E+00
      25     1     1     2     0     0 -2.880821304E+02 -1.001275602E+02  7.431405118E+01  3.378822581E+02  1.250000000E+02  0.00000E+00  9.000E+00
      25     1     1     2     0     0  3.504079977E+02  1.249302464E+02 -2.157702198E+03  2.193102165E+03  1.250000000E+02  0.00000E+00  9.000E+00
      21     1     1     2   512   501 -6.232586736E+01 -2.480268618E+01 -1.954768023E+02  2.066660766E+02  0.000000000E+00  0.00000E+00  9.000E+00
#rwgt            1           1   2.7653695872001553E-002           9      318142           0
</event>
<event>
      5   9999  3.19816E-02  5.38993E+02 -1.00000E+00  9.79342E-02
      21    -1     0     0   511   501  0.000000000E+00  0.000000000E+00  2.228045476E+03  2.228045476E+03  0.000000000E+00  0.00000E+00  9.000E+00
      21    -1     0     0   501   502  0.000000000E+00  0.000000000E+00 -3.206958714E+02  3.206958714E+02  0.000000000E+00  0.00000E+00  9.000E+00
      25     1     1     2     0     0 -1.214425433E+02  6.826223120E+01  4.644460475E+02  5.007426031E+02  1.250000000E+02  0.00000E+00  9.000E+00
      25     1     1     2     0     0  4.772374630E+01  4.656660966E+02 -2.410612739E+01  4.851067664E+02  1.250000000E+02  0.00000E+00  9.000E+00
      21     1     1     2   511   502  7.371879698E+01 -5.339283278E+02  1.467009685E+03  1.562891978E+03  3.051757812E-05  0.00000E+00  9.000E+00
#rwgt            2          11   9.4310051120518115E-004           9      318507           0
</event>
<event>
      5   9999  3.19816E-02  4.27946E+01 -1.00000E+00  1.43044E-01
      21    -1     0     0   502   501  0.000000000E+00  0.000000000E+00  3.071593346E+01  3.071593346E+01  0.000000000E+00  0.00000E+00  9.000E+00
      21    -1     0     0   512   502  0.000000000E+00  0.000000000E+00 -1.475447890E+03  1.475447890E+03  0.000000000E+00  0.00000E+00  9.000E+00
      25     1     1     2     0     0  7.599597540E+01  1.007811444E+02 -6.246352487E+02  6.494046668E+02  1.250000000E+02  0.00000E+00  9.000E+00
      25     1     1     2     0     0 -6.317181393E+01 -1.416090088E+02 -5.898356423E+02  6.225551175E+02  1.250000000E+02  0.00000E+00  9.000E+00
      21     1     1     2   512   501 -1.282416147E+01  4.082786445E+01 -2.302610652E+02  2.342040388E+02  0.000000000E+00  0.00000E+00  9.000E+00
#rwgt            1           1   2.8592780316807516E-002           9      318542           0
</event>
<event>
      5   9999  3.19816E-02  1.13984E+01 -1.00000E+00  1.89408E-01
       2    -1     0     0   502     0  0.000000000E+00  0.000000000E+00  4.388458159E+03  4.388458159E+03  0.000000000E+00  0.00000E+00  9.000E+00
      21    -1     0     0   501   502  0.000000000E+00  0.000000000E+00 -1.002508786E+02  1.002508786E+02  0.000000000E+00  0.00000E+00  9.000E+00
      25     1     1     2     0     0 -9.909999544E+01 -3.385544532E+00  5.671148652E+02  5.891320237E+02  1.250000000E+02  0.00000E+00  9.000E+00
      25     1     1     2     0     0  1.100664864E+02  2.774545682E-01 -1.151705006E+01  1.669501448E+02  1.250000000E+02  0.00000E+00  9.000E+00
       2     1     1     2   501     0 -1.096649095E+01  3.108089963E+00  3.732609466E+03  3.732626870E+03  4.315837288E-05  0.00000E+00  9.000E+00
#rwgt            1           1   2.7984396422227373E-002           9      318624           0
</event>
<event>
      5   9999  3.19816E-02  2.35304E+01 -1.00000E+00  1.60747E-01
      21    -1     0     0   502   501  0.000000000E+00  0.000000000E+00  2.739144779E+02  2.739144779E+02  0.000000000E+00  0.00000E+00  9.000E+00
      21    -1     0     0   501   511  0.000000000E+00  0.000000000E+00 -3.906028057E+02  3.906028057E+02  0.000000000E+00  0.00000E+00  9.000E+00
      25     1     1     2     0     0 -6.544148472E+01  2.253174233E+02 -2.144732268E+02  3.415761909E+02  1.250000000E+02  0.00000E+00  9.000E+00
      25     1     1     2     0     0  4.191557608E+01 -2.248599190E+02  1.231971362E+02  2.883078790E+02  1.250000000E+02  0.00000E+00  9.000E+00
      21     1     1     2   502   511  2.352590865E+01 -4.575042814E-01 -2.541223720E+01  3.463321365E+01  3.371747881E-07  0.00000E+00  9.000E+00
#rwgt            1           1   2.7451327397006290E-002           9      318791           0
</event>
<event>
      5   9999  3.19816E-02  7.40876E+01 -1.00000E+00  1.29984E-01
      21    -1     0     0   502   501  0.000000000E+00  0.000000000E+00  4.033949179E+02  4.033949179E+02  0.000000000E+00  0.00000E+00  9.000E+00
      21    -1     0     0   512   502  0.000000000E+00  0.000000000E+00 -4.159622314E+02  4.159622314E+02  0.000000000E+00  0.00000E+00  9.000E+00
      25     1     1     2     0     0  6.997811709E+01  1.855234518E+02  2.138553603E+02  3.172932447E+02  1.250000000E+02  0.00000E+00  9.000E+00
      25     1     1     2     0     0 -7.449188805E+01 -2.594734343E+02 -3.838421431E+01  2.999564175E+02  1.250000000E+02  0.00000E+00  9.000E+00
      21     1     1     2   512   501  4.513770956E+00  7.394998254E+01 -1.880384595E+02  2.021074870E+02  3.814697266E-06  0.00000E+00  9.000E+00
#rwgt            1           1   2.6826061313012479E-002           9      318885           0
</event>
<event>
      5   9999  3.19816E-02  4.26479E+01 -1.00000E+00  1.43135E-01
      21    -1     0     0   502   501  0.000000000E+00  0.000000000E+00  9.812671946E+02  9.812671946E+02  0.000000000E+00  0.00000E+00  9.000E+00
       2    -1     0     0   501     0  0.000000000E+00  0.000000000E+00 -1.030527083E+03  1.030527083E+03  0.000000000E+00  0.00000E+00  9.000E+00
      25     1     1     2     0     0  3.233510375E+02  7.339561333E+02  3.492657746E+02  8.836623113E+02  1.250000000E+02  0.00000E+00  9.000E+00
      25     1     1     2     0     0 -3.050677800E+02 -6.954260457E+02 -4.381020696E+01  7.708619005E+02  1.250000000E+02  0.00000E+00  9.000E+00
       2     1     1     2   502     0 -1.828325754E+01 -3.853008766E+01 -3.547154556E+02  3.572700654E+02  0.000000000E+00  0.00000E+00  9.000E+00
#rwgt            1           1   3.5797439551459670E-002           9      318964           0
</event>
<event>
      5   9999  3.19816E-02  5.63433E+00 -1.00000E+00  2.29798E-01
      21    -1     0     0   502   501  0.000000000E+00  0.000000000E+00  2.305872512E+02  2.305872512E+02  0.000000000E+00  0.00000E+00  9.000E+00
      21    -1     0     0   511   502  0.000000000E+00  0.000000000E+00 -1.864876338E+03  1.864876338E+03  0.000000000E+00  0.00000E+00  9.000E+00
      25     1     1     2     0     0  3.359463114E+02 -3.784229289E+02 -2.918577956E+02  5.973858135E+02  1.250000000E+02  0.00000E+00  9.000E+00
      25     1     1     2     0     0 -3.383030740E+02  3.835406724E+02 -8.127701371E+02  9.683866547E+02  1.250000000E+02  0.00000E+00  9.000E+00
      21     1     1     2   511   501  2.356762529E+00 -5.117743449E+00 -5.296611542E+02  5.296911212E+02  7.629394531E-06  0.00000E+00  9.000E+00
#rwgt            1           1   3.3540102884745661E-002           9      319162           0
</event>
<event>
      5   9999  3.19816E-02  4.77463E+01 -1.00000E+00  1.40228E-01
      21    -1     0     0   502   512  0.000000000E+00  0.000000000E+00  1.031691186E+03  1.031691186E+03  0.000000000E+00  0.00000E+00  9.000E+00
      21    -1     0     0   501   502  0.000000000E+00  0.000000000E+00 -1.538718883E+02  1.538718883E+02  0.000000000E+00  0.00000E+00  9.000E+00
      25     1     1     2     0     0  9.086917850E+01 -1.660717477E+02 -4.148083769E+01  2.306137309E+02  1.250000000E+02  0.00000E+00  9.000E+00
      25     1     1     2     0     0 -7.503083093E+01  1.210289344E+02  8.495403730E+02  8.704145414E+02  1.250000000E+02  0.00000E+00  9.000E+00
      21     1     1     2   501   512 -1.583834757E+01  4.504281334E+01  6.975976215E+01  8.453480172E+01  1.907348633E-06  0.00000E+00  9.000E+00
#rwgt            1           1   2.6232864697752177E-002           9      319674           0
</event>
<event>
      5   9999  3.19816E-02  4.88264E+01 -1.00000E+00  1.39667E-01
      21    -1     0     0   502   511  0.000000000E+00  0.000000000E+00  2.738423666E+02  2.738423666E+02  0.000000000E+00  0.00000E+00  9.000E+00
      21    -1     0     0   501   502  0.000000000E+00  0.000000000E+00 -3.515664593E+02  3.515664593E+02  0.000000000E+00  0.00000E+00  9.000E+00
      25     1     1     2     0     0 -1.770868166E+02 -3.131302399E+01 -2.409847603E+02  3.256361478E+02  1.250000000E+02  0.00000E+00  9.000E+00
      25     1     1     2     0     0  1.441196124E+02  6.732937152E+01  1.258024711E+02  2.382330134E+02  1.250000000E+02  0.00000E+00  9.000E+00
      21     1     1     2   501   511  3.296720411E+01 -3.601634752E+01  3.745819650E+01  6.153966461E+01  8.259061849E-07  0.00000E+00  9.000E+00
#rwgt            2          11   2.0605557564024935E-003           9      319828           0
</event>
<event>
      5   9999  3.19816E-02  3.05793E+02 -1.00000E+00  1.05323E-01
      21    -1     0     0   512   501  0.000000000E+00  0.000000000E+00  2.472373967E+03  2.472373967E+03  0.000000000E+00  0.00000E+00  9.000E+00
      21    -1     0     0   501   502  0.000000000E+00  0.000000000E+00 -4.866034302E+02  4.866034302E+02  0.000000000E+00  0.00000E+00  9.000E+00
      25     1     1     2     0     0 -1.627385440E+02  1.840362229E+02 -3.909602781E-01  2.756416476E+02  1.250000000E+02  0.00000E+00  9.000E+00
      25     1     1     2     0     0  3.911179616E+02  1.931607402E+01 -2.130322181E+02  4.629839053E+02  1.250000000E+02  0.00000E+00  9.000E+00
      21     1     1     2   512   502 -2.283794176E+02 -2.033522969E+02  2.199193715E+03  2.220351844E+03  3.051757812E-05  0.00000E+00  9.000E+00
#rwgt            2          11   2.4661866809177454E-003           9      319893           0
</event>
<event>
      5   9999  3.19816E-02  7.27569E+01 -1.00000E+00  1.30377E-01
      21    -1     0     0   511   501  0.000000000E+00  0.000000000E+00  5.675189566E+02  5.675189566E+02  0.000000000E+00  0.00000E+00  9.000E+00
      21    -1     0     0   501   502  0.000000000E+00  0.000000000E+00 -6.092609656E+02  6.092609656E+02  0.000000000E+00  0.00000E+00  9.000E+00
      25     1     1     2     0     0  1.457127198E+02 -3.280897889E+02 -4.144596553E+02  5.623850213E+02  1.250000000E+02  0.00000E+00  9.000E+00
      25     1     1     2     0     0 -8.347765282E+01  3.657775717E+02  3.700428163E+02  5.415888075E+02  1.250000000E+02  0.00000E+00  9.000E+00
      21     1     1     2   511   502 -6.223506694E+01 -3.768778289E+01  2.674830061E+00  7.280609351E+01  7.312204925E-07  0.00000E+00  9.000E+00
#rwgt            1           1   3.1622485988517551E-002           9      319928           0
</event>
<event>
      5   9999  3.19816E-02  2.18609E+01 -1.00000E+00  1.63243E-01
      21    -1     0     0   502   501  0.000000000E+00  0.000000000E+00  1.596969402E+03  1.596969402E+03  0.000000000E+00  0.00000E+00  9.000E+00
      21    -1     0     0   501   512  0.000000000E+00  0.000000000E+00 -2.024788335E+03  2.024788335E+03  0.000000000E+00  0.00000E+00  9.000E+00
      25     1     1     2     0     0 -1.339056438E+03 -8.825664444E+02 -2.063611392E+02  1.621790860E+03  1.250000000E+02  0.00000E+00  9.000E+00
      25     1     1     2     0     0  1.360619075E+03  8.861652594E+02  1.430283401E+02  1.634825752E+03  1.250000000E+02  0.00000E+00  9.000E+00
      21     1     1     2   502   512 -2.156263677E+01 -3.598814958E+00 -3.644861335E+02  3.651411238E+02  0.000000000E+00  0.00000E+00  9.000E+00
#rwgt            1           1   3.1167436523692690E-002           9      320050           0
</event>
<event>
      5   9999  3.19816E-02  7.74882E+01 -1.00000E+00  1.29024E-01
      21    -1     0     0   511   501  0.000000000E+00  0.000000000E+00  3.523186052E+02  3.523186052E+02  0.000000000E+00  0.00000E+00  9.000E+00
      21    -1     0     0   501   502  0.000000000E+00  0.000000000E+00 -3.039618470E+02  3.039618470E+02  0.000000000E+00  0.00000E+00  9.000E+00
      25     1     1     2     0     0  1.627860040E+02  1.790778394E+02  1.963503554E+01  2.730909927E+02  1.250000000E+02  0.00000E+00  9.000E+00
      25     1     1     2     0     0 -1.261507330E+02 -2.473587505E+02  1.911101682E+01  3.051075054E+02  1.250000000E+02  0.00000E+00  9.000E+00
      21     1     1     2   511   502 -3.663527105E+01  6.828091102E+01  9.610705908E+00  7.808195414E+01  1.311302185E-06  0.00000E+00  9.000E+00
#rwgt            1           1   2.8402829765794543E-002           9      320332           0
</event>
<event>
      5   9999  3.19816E-02  2.28476E+01 -1.00000E+00  1.61736E-01
      21    -1     0     0   512   501  0.000000000E+00  0.000000000E+00  9.768990741E+01  9.768990741E+01  0.000000000E+00  0.00000E+00  9.000E+00
      21    -1     0     0   501   502  0.000000000E+00  0.000000000E+00 -1.690107308E+03  1.690107308E+03  0.000000000E+00  0.00000E+00  9.000E+00
      25     1     1     2     0     0 -2.111954771E+02 -1.297576518E+02 -1.205750061E+03  1.237294948E+03  1.250000000E+02  0.00000E+00  9.000E+00
      25     1     1     2     0     0  2.256837774E+02  1.474240601E+02 -4.173042963E+02  5.122839999E+02  1.250000000E+02  0.00000E+00  9.000E+00
      21     1     1     2   512   502 -1.448830035E+01 -1.766640835E+01  3.063695708E+01  3.821826749E+01  1.877309769E-06  0.00000E+00  9.000E+00
#rwgt            1           1   2.1706556647692252E-002           9      320392           0
</event>
<event>
      5   9999  3.23246E-02  2.34214E+02 -1.00000E+00  1.09207E-01
      21    -1     0     0   502   501  0.000000000E+00  0.000000000E+00  1.826688704E+03  1.826688704E+03  0.000000000E+00  0.00000E+00  9.000E+00
      21    -1     0     0   511   502  0.000000000E+00  0.000000000E+00 -1.039371313E+03  1.039371313E+03  0.000000000E+00  0.00000E+00  9.000E+00
      25     1     1     2     0     0  1.002667765E+01  2.077588957E+02  1.695994642E+03  1.713267965E+03  1.250000000E+02  0.00000E+00  9.000E+00
      25     1     1     2     0     0 -4.821268479E+01 -4.388390291E+02 -7.115641077E+02  8.466715041E+02  1.250000000E+02  0.00000E+00  9.000E+00
      21     1     1     2   511   501  3.818600715E+01  2.310801334E+02 -1.971131427E+02  3.061205485E+02  4.672030912E-06  0.00000E+00  9.000E+00
#rwgt            1           1   7.4546290639944321E-002           9      320563           0
</event>
<event>
      5   9999  3.19816E-02  7.91203E+01 -1.00000E+00  1.28582E-01
       1    -1     0     0   502     0  0.000000000E+00  0.000000000E+00  2.333689342E+03  2.333689342E+03  0.000000000E+00  0.00000E+00  9.000E+00
      21    -1     0     0   501   502  0.000000000E+00  0.000000000E+00 -6.767309312E+02  6.767309312E+02  0.000000000E+00  0.00000E+00  9.000E+00
      25     1     1     2     0     0  6.744416063E+01 -2.952713609E+02 -5.156011292E+02  6.109037696E+02  1.250000000E+02  0.00000E+00  9.000E+00
      25     1     1     2     0     0 -1.210624031E+02  3.534530064E+02  2.317109917E+02  4.570559231E+02  1.250000000E+02  0.00000E+00  9.000E+00
       1     1     1     2   501     0  5.361824251E+01 -5.818164548E+01  1.940848548E+03  1.942460580E+03  2.157918644E-05  0.00000E+00  9.000E+00
#rwgt            1           1   2.9218397532028439E-002           9      320645           0
</event>
<event>
      5   9999  3.19816E-02  9.02249E+01 -1.00000E+00  1.25871E-01
      21    -1     0     0   502   501  0.000000000E+00  0.000000000E+00  1.037421124E+03  1.037421124E+03  0.000000000E+00  0.00000E+00  9.000E+00
      21    -1     0     0   511   502  0.000000000E+00  0.000000000E+00 -1.084439178E+03  1.084439178E+03  0.000000000E+00  0.00000E+00  9.000E+00
      25     1     1     2     0     0  7.539298696E+02 -4.773923843E+01 -5.342116440E+02  9.336468089E+02  1.250000000E+02  0.00000E+00  9.000E+00
      25     1     1     2     0     0 -6.989072479E+02 -2.376631748E+01  6.749475688E+02  9.799058117E+02  1.250000000E+02  0.00000E+00  9.000E+00
      21     1     1     2   511   501 -5.502262170E+01  7.150555591E+01 -1.877539795E+02  2.083076817E+02  3.814697266E-06  0.00000E+00  9.000E+00
#rwgt            1           1   3.9493813503765803E-002           9      320761           0
</event>
<event>
      5   9999  3.19816E-02  1.42407E+02 -1.00000E+00  1.17295E-01
      21    -1     0     0   502   501  0.000000000E+00  0.000000000E+00  2.297890476E+02  2.297890476E+02  0.000000000E+00  0.00000E+00  9.000E+00
      21    -1     0     0   512   502  0.000000000E+00  0.000000000E+00 -8.459837086E+02  8.459837086E+02  0.000000000E+00  0.00000E+00  9.000E+00
      25     1     1     2     0     0 -1.456002686E+01  8.202330675E+01  1.555379528E+02  2.162333739E+02  1.250000000E+02  0.00000E+00  9.000E+00
      25     1     1     2     0     0 -1.066006779E+02 -1.568551223E+02 -5.606223171E+02  6.048881023E+02  1.250000000E+02  0.00000E+00  9.000E+00
      21     1     1     2   512   501  1.211607048E+02  7.483181554E+01 -2.111102967E+02  2.546512800E+02  2.697398305E-06  0.00000E+00  9.000E+00
#rwgt            1           1   2.8708909417923329E-002           9      320901           0
</event>
<event>
      5   9999  3.19816E-02  1.30786E+02 -1.00000E+00  1.18803E-01
      21    -1     0     0   502   501  0.000000000E+00  0.000000000E+00  3.769638394E+02  3.769638394E+02  0.000000000E+00  0.00000E+00  9.000E+00
      21    -1     0     0   501   511  0.000000000E+00  0.000000000E+00 -2.381069387E+02  2.381069387E+02  0.000000000E+00  0.00000E+00  9.000E+00
      25     1     1     2     0     0  9.263076169E+01  2.969718396E+01 -8.719501394E+01  1.808047322E+02  1.250000000E+02  0.00000E+00  9.000E+00
      25     1     1     2     0     0 -1.463179783E+02  8.956173223E+01  2.164002770E+02  3.031242889E+02  1.250000000E+02  0.00000E+00  9.000E+00
      21     1     1     2   502   511  5.368721658E+01 -1.192589162E+02  9.651637597E+00  1.311417570E+02  9.386548846E-07  0.00000E+00  9.000E+00
#rwgt            2          11   3.0606529579110847E-003           9      321031           0
</event>
<event>
      5   9999  3.19816E-02  3.59855E+02 -1.00000E+00  1.03087E-01
      21    -1     0     0   512   501  0.000000000E+00  0.000000000E+00  1.043215518E+03  1.043215518E+03  0.000000000E+00  0.00000E+00  9.000E+00
      21    -1     0     0   501   502  0.000000000E+00  0.000000000E+00 -8.138999317E+02  8.138999317E+02  0.000000000E+00  0.00000E+00  9.000E+00
      25     1     1     2     0     0  1.316934653E+02 -4.780382938E+02 -4.862582278E+02  7.056456924E+02  1.250000000E+02  0.00000E+00  9.000E+00
      25     1     1     2     0     0 -4.378678321E+02  2.889532756E+02  4.744764935E+02  7.183141212E+02  1.250000000E+02  0.00000E+00  9.000E+00
      21     1     1     2   512   502  3.061743668E+02  1.890850182E+02  2.410973205E+02  4.331556359E+02  6.607249480E-06  0.00000E+00  9.000E+00
#rwgt            2          11   3.4465641820557963E-003           9      321141           0
</event>
<event>
      5   9999  3.19816E-02  2.17269E+01 -1.00000E+00  1.63455E-01
       1    -1     0     0   502     0  0.000000000E+00  0.000000000E+00  1.323799493E+03  1.323799493E+03  0.000000000E+00  0.00000E+00  9.000E+00
      21    -1     0     0   501   502  0.000000000E+00  0.000000000E+00 -2.939102992E+01  2.939102992E+01  0.000000000E+00  0.00000E+00  9.000E+00
      25     1     1     2     0     0  1.918899778E+01  1.288655325E+02  8.148645620E+02  8.346279396E+02  1.250000000E+02  0.00000E+00  9.000E+00
      25     1     1     2     0     0 -3.277545865E+01 -1.119106906E+02  3.800931212E+02  4.167661385E+02  1.250000000E+02  0.00000E+00  9.000E+00
       1     1     1     2   501     0  1.358646087E+01 -1.695484185E+01  9.945078015E+01  1.017964452E+02  1.907348633E-06  0.00000E+00  9.000E+00
#rwgt            1           1   2.7259757888310442E-002           9      321191           0
</event>
<event>
      5   9999  3.19816E-02  5.81900E+01 -1.00000E+00  1.35418E-01
      21    -1     0     0   511   501  0.000000000E+00  0.000000000E+00  2.166655855E+02  2.166655855E+02  0.000000000E+00  0.00000E+00  9.000E+00
      21    -1     0     0   501   502  0.000000000E+00  0.000000000E+00 -1.093006033E+03  1.093006033E+03  0.000000000E+00  0.00000E+00  9.000E+00
      25     1     1     2     0     0  1.297403899E+02 -3.421845435E+02 -7.401349343E+02  8.350733809E+02  1.250000000E+02  0.00000E+00  9.000E+00
      25     1     1     2     0     0 -1.404486112E+02  2.849883234E+02 -1.939121421E+02  3.926462476E+02  1.250000000E+02  0.00000E+00  9.000E+00
      21     1     1     2   511   502  1.070822125E+01  5.719622011E+01  5.770662905E+01  8.195198981E+01  1.348699152E-06  0.00000E+00  9.000E+00
#rwgt            1           1   2.8761467280727451E-002           9      321368           0
</event>
<event>
      5   9999  3.19816E-02  9.75770E+01 -1.00000E+00  1.24309E-01
      21    -1     0     0   502   501  0.000000000E+00  0.000000000E+00  4.012751097E+02  4.012751097E+02  0.000000000E+00  0.00000E+00  9.000E+00
      21    -1     0     0   512   502  0.000000000E+00  0.000000000E+00 -2.981437770E+02  2.981437770E+02  0.000000000E+00  0.00000E+00  9.000E+00
      25     1     1     2     0     0 -5.633275769E+01  1.971406098E+02  1.980727586E+02  3.112806086E+02  1.250000000E+02  0.00000E+00  9.000E+00
      25     1     1     2     0     0  1.534946597E+02 -1.881499021E+02 -9.895425910E+01  2.904788144E+02  1.250000000E+02  0.00000E+00  9.000E+00
      21     1     1     2   512   501 -9.716190196E+01 -8.990707677E+00  4.012833278E+00  9.765946369E+01  1.596024971E-06  0.00000E+00  9.000E+00
#rwgt            1           1   3.1444655358572472E-002           9      321508           0
</event>
<event>
      5   9999  3.19816E-02  5.13625E+01 -1.00000E+00  1.38413E-01
       2    -1     0     0   502     0  0.000000000E+00  0.000000000E+00  1.795546488E+03  1.795546488E+03  0.000000000E+00  0.00000E+00  9.000E+00
      21    -1     0     0   501   502  0.000000000E+00  0.000000000E+00 -9.013256251E+02  9.013256251E+02  0.000000000E+00  0.00000E+00  9.000E+00
      25     1     1     2     0     0 -2.030593976E+02  2.369441361E+02 -4.244718369E+02  5.414582006E+02  1.250000000E+02  0.00000E+00  9.000E+00
      25     1     1     2     0     0  2.543969699E+02 -2.385455478E+02 -3.358692407E+02  5.000549405E+02  1.250000000E+02  0.00000E+00  9.000E+00
       2     1     1     2   501     0 -5.133757230E+01  1.601411671E+00  1.654561941E+03  1.655358972E+03  2.157918644E-05  0.00000E+00  9.000E+00
#rwgt            1           1   2.8077016819155601E-002           9      321605           0
</event>
<event>
      5   9999  3.19816E-02  2.59975E+01 -1.00000E+00  1.57489E-01
      21    -1     0     0   502   501  0.000000000E+00  0.000000000E+00  6.019441109E+02  6.019441109E+02  0.000000000E+00  0.00000E+00  9.000E+00
       2    -1     0     0   501     0  0.000000000E+00  0.000000000E+00 -2.020395019E+02  2.020395019E+02  0.000000000E+00  0.00000E+00  9.000E+00
      25     1     1     2     0     0 -1.076309870E+02  1.716177284E+02  2.224109039E+02  3.257739772E+02  1.250000000E+02  0.00000E+00  9.000E+00
      25     1     1     2     0     0  9.722825880E+01 -1.477922484E+02  2.904339609E+02  3.623158410E+02  1.250000000E+02  0.00000E+00  9.000E+00
       2     1     1     2   502     0  1.040272824E+01 -2.382547994E+01 -1.129402557E+02  1.158937945E+02  1.348699152E-06  0.00000E+00  9.000E+00
#rwgt            1           1   2.6252109651479651E-002           9      321662           0
</event>
<event>
      5   9999  3.19816E-02  1.45209E+02 -1.00000E+00  1.16955E-01
      21    -1     0     0   502   501  0.000000000E+00  0.000000000E+00  1.734121865E+02  1.734121865E+02  0.000000000E+00  0.00000E+00  9.000E+00
       2    -1     0     0   501     0  0.000000000E+00  0.000000000E+00 -1.329015223E+03  1.329015223E+03  0.000000000E+00  0.00000E+00  9.000E+00
      25     1     1     2     0     0 -5.437561909E+01  1.540303603E+02 -3.190734344E+02  3.796247047E+02  1.250000000E+02  0.00000E+00  9.000E+00
      25     1     1     2     0     0 -7.957802856E+01 -9.797579215E+01  8.001146656E+01  1.948300625E+02  1.250000000E+02  0.00000E+00  9.000E+00
       2     1     1     2   502     0  1.339536477E+02 -5.605456815E+01 -9.165410683E+02  9.279726420E+02  1.525878906E-05  0.00000E+00  9.000E+00
#rwgt            1           1   2.7533457109706561E-002           9      321763           0
</event>
<event>
      5   9999  3.19816E-02  9.50298E+01 -1.00000E+00  1.24832E-01
      21    -1     0     0   511   501  0.000000000E+00  0.000000000E+00  1.642520888E+03  1.642520888E+03  0.000000000E+00  0.00000E+00  9.000E+00
      21    -1     0     0   501   502  0.000000000E+00  0.000000000E+00 -6.621834684E+02  6.621834684E+02  0.000000000E+00  0.00000E+00  9.000E+00
      25     1     1     2     0     0 -7.979615481E+02 -1.585351438E+02  4.872051552E+01  8.245451550E+02  1.250000000E+02  0.00000E+00  9.000E+00
      25     1     1     2     0     0  8.479165069E+02  2.393755012E+02  4.651634543E+02  1.004124032E+03  1.250000000E+02  0.00000E+00  9.000E+00
      21     1     1     2   511   502 -4.995495885E+01 -8.084035735E+01  4.664534492E+02  4.760351684E+02  0.000000000E+00  0.00000E+00  9.000E+00
#rwgt            1           1   2.1449329600127118E-002           9      321842           0
</event>
<event>
      5   9999  3.19816E-02  5.66127E+01 -1.00000E+00  1.36066E-01
      21    -1     0     0   502   501  0.000000000E+00  0.000000000E+00  8.117072663E+02  8.117072663E+02  0.000000000E+00  0.00000E+00  9.000E+00
      21    -1     0     0   512   502  0.000000000E+00  0.000000000E+00 -2.315215326E+02  2.315215326E+02  0.000000000E+00  0.00000E+00  9.000E+00
      25     1     1     2     0     0 -1.696318096E+02  3.245271092E+00  2.828085479E+02  3.526913061E+02  1.250000000E+02  0.00000E+00  9.000E+00
      25     1     1     2     0     0  1.146959677E+02  1.043155726E+01  4.747978787E+02  5.043034879E+02  1.250000000E+02  0.00000E+00  9.000E+00
      21     1     1     2   512   501  5.493584198E+01 -1.367682835E+01 -1.774206928E+02  1.862340050E+02  3.814697266E-06  0.00000E+00  9.000E+00
#rwgt            1           1   2.8061613276896987E-002           9      321964           0
</event>
<event>
      5   9999  3.19816E-02  1.27924E+02 -1.00000E+00  1.19201E-01
      21    -1     0     0   502   501  0.000000000E+00  0.000000000E+00  2.792906576E+02  2.792906576E+02  0.000000000E+00  0.00000E+00  9.000E+00
      21    -1     0     0   511   502  0.000000000E+00  0.000000000E+00 -2.336533908E+02  2.336533908E+02  0.000000000E+00  0.00000E+00  9.000E+00
      25     1     1     2     0     0  6.349015783E+01  3.811171193E+01  1.998115429E+01  1.466552053E+02  1.250000000E+02  0.00000E+00  9.000E+00
      25     1     1     2     0     0 -1.665903909E+02 -1.138407305E+02  2.097424741E+01  2.382792255E+02  1.250000000E+02  0.00000E+00  9.000E+00
      21     1     1     2   511   501  1.031002331E+02  7.572901855E+01  4.681865088E+00  1.280096175E+02  2.091265296E-06  0.00000E+00  9.000E+00
#rwgt            2          11   3.0302261852319361E-003           9      322008           0
</event>
<event>
      5   9999  3.19816E-02  4.67340E+01 -1.00000E+00  1.40770E-01
      21    -1     0     0   502   501  0.000000000E+00  0.000000000E+00  2.164765763E+02  2.164765763E+02  0.000000000E+00  0.00000E+00  9.000E+00
      21    -1     0     0   512   502  0.000000000E+00  0.000000000E+00 -7.290768466E+02  7.290768466E+02  0.000000000E+00  0.00000E+00  9.000E+00
      25     1     1     2     0     0 -3.198651859E+02  2.333245692E+01 -1.518591876E+02  3.762238078E+02  1.250000000E+02  0.00000E+00  9.000E+00
      25     1     1     2     0     0  3.624542252E+02 -4.257414550E+01 -2.822954720E+02  4.780181553E+02  1.250000000E+02  0.00000E+00  9.000E+00
      21     1     1     2   512   501 -4.258903937E+01  1.924168858E+01 -7.844561070E+01  9.131145980E+01  9.536743164E-07  0.00000E+00  9.000E+00
#rwgt            1           1   2.8319298346576191E-002           9      322028           0
</event>
<event>
      5   9999  3.19816E-02  6.79316E+01 -1.00000E+00  1.31884E-01
      21    -1     0     0   511   501  0.000000000E+00  0.000000000E+00  1.338532914E+03  1.338532914E+03  0.000000000E+00  0.00000E+00  9.000E+00
      21    -1     0     0   501   502  0.000000000E+00  0.000000000E+00 -3.208573276E+02  3.208573276E+02  0.000000000E+00  0.00000E+00  9.000E+00
      25     1     1     2     0     0  8.982607617E+01  2.275021644E+02 -2.379962532E+01  2.757124969E+02  1.250000000E+02  0.00000E+00  9.000E+00
      25     1     1     2     0     0 -3.206836422E+01 -1.917425475E+02 -9.156600867E+01  2.486019277E+02  1.250000000E+02  0.00000E+00  9.000E+00
      21     1     1     2   511   502 -5.775771196E+01 -3.575961691E+01  1.133041220E+03  1.135075817E+03  0.000000000E+00  0.00000E+00  9.000E+00
#rwgt            1           1   3.0528336223323193E-002           9      322189           0
</event>
<event>
      5   9999  3.19816E-02  2.62189E+01 -1.00000E+00  1.57218E-01
      21    -1     0     0   512   501  0.000000000E+00  0.000000000E+00  2.413489837E+02  2.413489837E+02  0.000000000E+00  0.00000E+00  9.000E+00
      21    -1     0     0   501   502  0.000000000E+00  0.000000000E+00 -5.558377246E+02  5.558377246E+02  0.000000000E+00  0.00000E+00  9.000E+00
      25     1     1     2     0     0 -5.314771319E+01  1.058762217E+02 -4.946155226E+02  5.237403641E+02  1.250000000E+02  0.00000E+00  9.000E+00
      25     1     1     2     0     0  3.309100370E+01 -1.227628813E+02  1.462423620E+02  2.306026192E+02  1.250000000E+02  0.00000E+00  9.000E+00
      21     1     1     2   512   502  2.005670949E+01  1.688665961E+01  3.388441985E+01  4.284372506E+01  4.768371582E-07  0.00000E+00  9.000E+00
#rwgt            1           1   2.7336583991111697E-002           9      322311           0
</event>
<event>
      5   9999  3.19816E-02  1.80112E+02 -1.00000E+00  1.13329E-01
      21    -1     0     0   502   501  0.000000000E+00  0.000000000E+00  4.434018526E+02  4.434018526E+02  0.000000000E+00  0.00000E+00  9.000E+00
      21    -1     0     0   501   511  0.000000000E+00  0.000000000E+00 -2.219766971E+03  2.219766971E+03  0.000000000E+00  0.00000E+00  9.000E+00
      25     1     1     2     0     0  6.860254149E+02  5.991348059E+02 -4.492834125E+02  1.023266324E+03  1.250000000E+02  0.00000E+00  9.000E+00
      25     1     1     2     0     0 -5.552015272E+02 -4.753391986E+02 -8.393047755E+02  1.119934639E+03  1.250000000E+02  0.00000E+00  9.000E+00
      21     1     1     2   502   511 -1.308238877E+02 -1.237956072E+02 -4.877769302E+02  5.199678601E+02  5.394796609E-06  0.00000E+00  9.000E+00
#rwgt            1           1   3.5452719175362656E-002           9      322431           0
</event>
<event>
      5   9999  3.19816E-02  1.24204E+01 -1.00000E+00  1.85469E-01
      21    -1     0     0   502   501  0.000000000E+00  0.000000000E+00  1.883718255E+02  1.883718255E+02  0.000000000E+00  0.00000E+00  9.000E+00
      21    -1     0     0   512   502  0.000000000E+00  0.000000000E+00 -1.654911444E+03  1.654911444E+03  0.000000000E+00  0.00000E+00  9.000E+00
      25     1     1     2     0     0 -2.440266318E+02  9.078983942E+01 -3.513805095E+02  4.548461877E+02  1.250000000E+02  0.00000E+00  9.000E+00
      25     1     1     2     0     0  2.339929763E+02 -9.811049407E+01 -9.810586241E+00  2.830187796E+02  1.250000000E+02  0.00000E+00  9.000E+00
      21     1     1     2   512   501  1.003365549E+01  7.320654657E+00 -1.105348523E+03  1.105418302E+03  0.000000000E+00  0.00000E+00  9.000E+00
#rwgt            1           1   2.8824433889378498E-002           9      322485           0
</event>
<event>
      5   9999  3.19816E-02  2.37490E+02 -1.00000E+00  1.08998E-01
      21    -1     0     0   511   501  0.000000000E+00  0.000000000E+00  1.666986363E+02  1.666986363E+02  0.000000000E+00  0.00000E+00  9.000E+00
      21    -1     0     0   501   502  0.000000000E+00  0.000000000E+00 -1.803469714E+03  1.803469714E+03  0.000000000E+00  0.00000E+00  9.000E+00
      25     1     1     2     0     0  3.645189939E+01  2.111049959E+02 -1.162467244E+03  1.188633313E+03  1.250000000E+02  0.00000E+00  9.000E+00
      25     1     1     2     0     0  1.772930790E+02 -3.146157211E+02 -3.187460152E+02  4.976343135E+02  1.250000000E+02  0.00000E+00  9.000E+00
      21     1     1     2   511   502 -2.137449784E+02  1.035107251E+02 -1.555578190E+02  2.839007239E+02  5.722045898E-06  0.00000E+00  9.000E+00
#rwgt            1           1   2.6244686803876011E-002           9      322715           0
</event>
<event>
      5   9999  3.19816E-02  6.49745E+00 -1.00000E+00  2.20230E-01
      21    -1     0     0   512   501  0.000000000E+00  0.000000000E+00  5.197227098E+01  5.197227098E+01  0.000000000E+00  0.00000E+00  9.000E+00
      21    -1     0     0   501   502  0.000000000E+00  0.000000000E+00 -8.309418794E+02  8.309418794E+02  0.000000000E+00  0.00000E+00  9.000E+00
      25     1     1     2     0     0  9.252172513E+01  5.853072044E+00 -1.059538340E+02  1.882703987E+02  1.250000000E+02  0.00000E+00  9.000E+00
      25     1     1     2     0     0 -9.738670977E+01 -1.546242616E+00 -6.677056517E+02  6.862524313E+02  1.250000000E+02  0.00000E+00  9.000E+00
      21     1     1     2   512   502  4.864984639E+00 -4.306829429E+00 -5.310122618E+00  8.391320366E+00  1.332800375E-07  0.00000E+00  9.000E+00
#rwgt            1           1   2.7842513364330752E-002           9      322804           0
</event>
<event>
      5   9999  3.19816E-02  3.41574E+02 -1.00000E+00  1.03792E-01
      21    -1     0     0   502   511  0.000000000E+00  0.000000000E+00  1.536359410E+03  1.536359410E+03  0.000000000E+00  0.00000E+00  9.000E+00
      21    -1     0     0   501   502  0.000000000E+00  0.000000000E+00 -2.052461685E+03  2.052461685E+03  0.000000000E+00  0.00000E+00  9.000E+00
      25     1     1     2     0     0 -3.210161268E+02 -1.560019135E+03  3.500172888E+00  1.597607056E+03  1.250000000E+02  0.00000E+00  9.000E+00
      25     1     1     2     0     0  6.135552995E+02  1.383685114E+03 -6.118825213E+02  1.637394217E+03  1.250000000E+02  0.00000E+00  9.000E+00
      21     1     1     2   501   511 -2.925391727E+02  1.763340206E+02  9.228007364E+01  3.538198219E+02  4.672030912E-06  0.00000E+00  9.000E+00
#rwgt            2          11   1.6907237983582731E-002           9      323079           0
</event>
<event>
      5   9999  3.19816E-02  4.17186E+01 -1.00000E+00  1.43716E-01
      21    -1     0     0   502   501  0.000000000E+00  0.000000000E+00  1.868433110E+03  1.868433110E+03  0.000000000E+00  0.00000E+00  9.000E+00
      21    -1     0     0   512   502  0.000000000E+00  0.000000000E+00 -8.467541271E+02  8.467541271E+02  0.000000000E+00  0.00000E+00  9.000E+00
      25     1     1     2     0     0  4.408329595E+02  5.405410552E+01  1.753075309E+03  1.812775105E+03  1.250000000E+02  0.00000E+00  9.000E+00
      25     1     1     2     0     0 -4.064434010E+02 -7.767197630E+01 -7.425699351E+02  8.592230692E+02  1.250000000E+02  0.00000E+00  9.000E+00
      21     1     1     2   512   501 -3.438955849E+01  2.361787078E+01  1.117360884E+01  4.318906213E+01  6.194296387E-07  0.00000E+00  9.000E+00
#rwgt            1           1   6.7914705480462065E-002           9      323129           0
</event>
<event>
      5   9999  3.19816E-02  6.83370E+01 -1.00000E+00  1.31752E-01
      21    -1     0     0   502   501  0.000000000E+00  0.000000000E+00  1.632248684E+02  1.632248684E+02  0.000000000E+00  0.00000E+00  9.000E+00
      21    -1     0     0   501   511  0.000000000E+00  0.000000000E+00 -1.090720778E+03  1.090720778E+03  0.000000000E+00  0.00000E+00  9.000E+00
      25     1     1     2     0     0 -2.742057340E+02 -2.154070665E+02 -2.557935936E+02  4.501603619E+02  1.250000000E+02  0.00000E+00  9.000E+00
      25     1     1     2     0     0  2.109483148E+02  2.412612667E+02 -4.195842552E+02  5.425699380E+02  1.250000000E+02  0.00000E+00  9.000E+00
      21     1     1     2   502   511  6.325741921E+01 -2.585420021E+01 -2.521180611E+02  2.612153470E+02  4.672030912E-06  0.00000E+00  9.000E+00
#rwgt            1           1   2.7445485214422728E-002           9      323357           0
</event>
<event>
      5   9999  3.19816E-02  3.55642E+01 -1.00000E+00  1.48079E-01
      21    -1     0     0   502   501  0.000000000E+00  0.000000000E+00  2.353931513E+02  2.353931513E+02  0.000000000E+00  0.00000E+00  9.000E+00
      21    -1     0     0   501   512  0.000000000E+00  0.000000000E+00 -1.834598963E+02  1.834598963E+02  0.000000000E+00  0.00000E+00  9.000E+00
      25     1     1     2     0     0  8.906669759E+01  1.114617599E+02 -3.984238630E+01  1.938272847E+02  1.250000000E+02  0.00000E+00  9.000E+00
      25     1     1     2     0     0 -5.831608882E+01 -9.359523343E+01  8.995687417E+01  1.894150816E+02  1.250000000E+02  0.00000E+00  9.000E+00
      21     1     1     2   502   512 -3.075060878E+01 -1.786652651E+01  1.818767167E+00  3.561068132E+01  7.571784267E-07  0.00000E+00  9.000E+00
#rwgt            1           1   2.3011251772625533E-002           9      323436           0
</event>
<event>
      5   9999  3.19816E-02  1.77023E+02 -1.00000E+00  1.13612E-01
      21    -1     0     0   502   501  0.000000000E+00  0.000000000E+00  1.553585760E+02  1.553585760E+02  0.000000000E+00  0.00000E+00  9.000E+00
      21    -1     0     0   501   511  0.000000000E+00  0.000000000E+00 -3.077359746E+03  3.077359746E+03  0.000000000E+00  0.00000E+00  9.000E+00
      25     1     1     2     0     0 -2.414649264E+02 -3.746428182E+02 -3.799839471E+02  5.988951093E+02  1.250000000E+02  0.00000E+00  9.000E+00
      25     1     1     2     0     0  3.815506825E+02  2.664154857E+02 -1.461054697E+03  1.538461556E+03  1.250000000E+02  0.00000E+00  9.000E+00
      21     1     1     2   502   511 -1.400857561E+02  1.082273325E+02 -1.080962526E+03  1.095361656E+03  1.525878906E-05  0.00000E+00  9.000E+00
#rwgt            1           1   2.8550796213726564E-002           9      323533           0
</event>
<event>
      5   9999  3.19816E-02  4.08118E+02 -1.00000E+00  1.01424E-01
       1    -1     0     0   502     0  0.000000000E+00  0.000000000E+00  1.186728318E+03  1.186728318E+03  0.000000000E+00  0.00000E+00  9.000E+00
      21    -1     0     0   501   502  0.000000000E+00  0.000000000E+00 -2.003092291E+02  2.003092291E+02  0.000000000E+00  0.00000E+00  9.000E+00
      25     1     1     2     0     0 -9.185468820E+01 -9.983464093E+00  3.145613401E+01  1.585920605E+02  1.250000000E+02  0.00000E+00  9.000E+00
      25     1     1     2     0     0 -2.902425023E+02  1.533791641E+02  3.295930987E+02  4.816871275E+02  1.250000000E+02  0.00000E+00  9.000E+00
       1     1     1     2   501     0  3.820971905E+02 -1.433957000E+02  6.253698563E+02  7.467583591E+02  0.000000000E+00  0.00000E+00  9.000E+00
#rwgt            1           1   2.8250722751041041E-002           9      323589           0
</event>
<event>
      5   9999  3.19816E-02  6.53267E+01 -1.00000E+00  1.32759E-01
      21    -1     0     0   502   501  0.000000000E+00  0.000000000E+00  3.685880670E+02  3.685880670E+02  0.000000000E+00  0.00000E+00  9.000E+00
      21    -1     0     0   501   511  0.000000000E+00  0.000000000E+00 -3.848137525E+02  3.848137525E+02  0.000000000E+00  0.00000E+00  9.000E+00
      25     1     1     2     0     0 -1.354438113E+02 -4.799080036E+01 -1.618321604E+00  1.904619697E+02  1.250000000E+02  0.00000E+00  9.000E+00
      25     1     1     2     0     0  2.001937368E+02  5.665252516E+01  2.149825670E+02  3.242368656E+02  1.250000000E+02  0.00000E+00  9.000E+00
      21     1     1     2   502   511 -6.474992553E+01 -8.661724797E+00 -2.295899308E+02  2.387029842E+02  0.000000000E+00  0.00000E+00  9.000E+00
#rwgt            1           1   2.4908211298693476E-002           9      323633           0
</event>
<event>
      5   9999  3.19816E-02  1.66120E+01 -1.00000E+00  1.73307E-01
      21    -1     0     0   502   501  0.000000000E+00  0.000000000E+00  1.076399633E+03  1.076399633E+03  0.000000000E+00  0.00000E+00  9.000E+00
      21    -1     0     0   501   512  0.000000000E+00  0.000000000E+00 -5.312905555E+01  5.312905555E+01  0.000000000E+00  0.00000E+00  9.000E+00
      25     1     1     2     0     0  9.170669838E+01 -1.036113436E+01  8.196019924E+02  8.342001544E+02  1.250000000E+02  0.00000E+00  9.000E+00
      25     1     1     2     0     0 -8.531489680E+01 -4.971914591E+00  2.231825710E+02  2.697013377E+02  1.250000000E+02  0.00000E+00  9.000E+00
      21     1     1     2   502   512 -6.391801575E+00  1.533304895E+01 -1.951398632E+01  2.562719610E+01  1.092571186E-06  0.00000E+00  9.000E+00
#rwgt            1           1   3.1101774604376631E-002           9      323705           0
</event>
<event>
      5   9999  3.19816E-02  4.39194E+01 -1.00000E+00  1.42367E-01
      21    -1     0     0   511   501  0.000000000E+00  0.000000000E+00  1.412514399E+02  1.412514399E+02  0.000000000E+00  0.00000E+00  9.000E+00
      21    -1     0     0   501   502  0.000000000E+00  0.000000000E+00 -1.054869299E+03  1.054869299E+03  0.000000000E+00  0.00000E+00  9.000E+00
      25     1     1     2     0     0  1.712929069E+02  2.482091718E+02 -7.305834968E+02  8.002039107E+02  1.250000000E+02  0.00000E+00  9.000E+00
      25     1     1     2     0     0 -1.875470625E+02 -2.074082388E+02 -1.505870249E+02  3.413114856E+02  1.250000000E+02  0.00000E+00  9.000E+00
      21     1     1     2   511   502  1.625415553E+01 -4.080093300E+01 -3.244733698E+01  5.460534207E+01  1.168007728E-06  0.00000E+00  9.000E+00
#rwgt            1           1   2.9423860911108046E-002           9      323819           0
</event>
<event>
      5   9999  3.19816E-02  1.51759E+01 -1.00000E+00  1.76908E-01
      21    -1     0     0   502   501  0.000000000E+00  0.000000000E+00  3.206685070E+02  3.206685070E+02  0.000000000E+00  0.00000E+00  9.000E+00
      21    -1     0     0   512   502  0.000000000E+00  0.000000000E+00 -2.033588271E+02  2.033588271E+02  0.000000000E+00  0.00000E+00  9.000E+00
      25     1     1     2     0     0  6.406011491E+01 -6.469609245E+01  2.605534363E+02  3.029890689E+02  1.250000000E+02  0.00000E+00  9.000E+00
      25     1     1     2     0     0 -4.959955039E+01  6.930059863E+01 -1.385754448E+02  2.051605281E+02  1.250000000E+02  0.00000E+00  9.000E+00
      21     1     1     2   512   501 -1.446056452E+01 -4.604506184E+00 -4.668311612E+00  1.587773714E+01  1.460009660E-07  0.00000E+00  9.000E+00
#rwgt            1           1   2.7930124475997430E-002           9      323955           0
</event>
<event>
      5   9999  3.19816E-02  2.49902E+00 -1.00000E+00  3.23228E-01
      21    -1     0     0   502   501  0.000000000E+00  0.000000000E+00  2.225616896E+02  2.225616896E+02  0.000000000E+00  0.00000E+00  9.000E+00
       2    -1     0     0   501     0  0.000000000E+00  0.000000000E+00 -5.038253906E+02  5.038253906E+02  0.000000000E+00  0.00000E+00  9.000E+00
      25     1     1     2     0     0 -1.266824078E+02 -1.166641740E+02  1.130152992E+02  2.409489983E+02  1.250000000E+02  0.00000E+00  9.000E+00
      25     1     1     2     0     0  1.264380974E+02  1.191512192E+02 -2.057307919E+02  2.968733135E+02  1.250000000E+02  0.00000E+00  9.000E+00
       2     1     1     2   502     0  2.443103979E-01 -2.487045263E+00 -1.885482083E+02  1.885647685E+02  3.814697266E-06  0.00000E+00  9.000E+00
#rwgt            1           1   2.8895676504091632E-002           9      324061           0
</event>
<event>
      5   9999  3.19816E-02  5.50464E+01 -1.00000E+00  1.36734E-01
      21    -1     0     0   502   511  0.000000000E+00  0.000000000E+00  8.699000161E+02  8.699000161E+02  0.000000000E+00  0.00000E+00  9.000E+00
      21    -1     0     0   501   502  0.000000000E+00  0.000000000E+00 -9.119085315E+02  9.119085315E+02  0.000000000E+00  0.00000E+00  9.000E+00
      25     1     1     2     0     0  3.014286936E+02 -4.332408197E+02 -2.800433275E+02  6.104147201E+02  1.250000000E+02  0.00000E+00  9.000E+00
      25     1     1     2     0     0 -3.509493922E+02  4.572783370E+02 -2.782636855E+02  6.521691744E+02  1.250000000E+02  0.00000E+00  9.000E+00
      21     1     1     2   501   511  4.952069857E+01 -2.403751730E+01  5.162984975E+02  5.192246531E+02  7.629394531E-06  0.00000E+00  9.000E+00
#rwgt            1           1   2.9527268788069123E-002           9      324524           0
</event>
<event>
      5   9999  3.19816E-02  7.85941E+01 -1.00000E+00  1.28723E-01
      21    -1     0     0   502   512  0.000000000E+00  0.000000000E+00  1.150154751E+03  1.150154751E+03  0.000000000E+00  0.00000E+00  9.000E+00
      21    -1     0     0   501   502  0.000000000E+00  0.000000000E+00 -1.911940927E+02  1.911940927E+02  0.000000000E+00  0.00000E+00  9.000E+00
      25     1     1     2     0     0  3.030365952E+02 -2.903920642E+02  3.581591395E+02  5.657399564E+02  1.250000000E+02  0.00000E+00  9.000E+00
      25     1     1     2     0     0 -2.271201046E+02  3.107320862E+02  4.475359520E+02  6.033667207E+02  1.250000000E+02  0.00000E+00  9.000E+00
      21     1     1     2   501   512 -7.591649066E+01 -2.034002197E+01  1.532655671E+02  1.722421671E+02  0.000000000E+00  0.00000E+00  9.000E+00
#rwgt            1           1   2.5759486860565315E-002           9      324636           0
</event>
<event>
      5   9999  3.19816E-02  3.01297E+02 -1.00000E+00  1.05531E-01
      21    -1     0     0   502   501  0.000000000E+00  0.000000000E+00  1.130203138E+03  1.130203138E+03  0.000000000E+00  0.00000E+00  9.000E+00
      21    -1     0     0   501   511  0.000000000E+00  0.000000000E+00 -2.388575779E+02  2.388575779E+02  0.000000000E+00  0.00000E+00  9.000E+00
      25     1     1     2     0     0  2.056014017E+02 -9.212010513E+01  5.536076330E+02  6.106262862E+02  1.250000000E+02  0.00000E+00  9.000E+00
      25     1     1     2     0     0 -2.678438464E+02 -2.026776155E+02  9.299036000E+01  3.702576791E+02  1.250000000E+02  0.00000E+00  9.000E+00
      21     1     1     2   502   511  6.224244468E+01  2.947977206E+02  2.447475667E+02  3.881767502E+02  0.000000000E+00  0.00000E+00  9.000E+00
#rwgt            1           1   3.1065721713573111E-002           9      324703           0
</event>
<event>
      5   9999  3.19816E-02  3.84090E+01 -1.00000E+00  1.45942E-01
      21    -1     0     0   502   501  0.000000000E+00  0.000000000E+00  1.365771111E+03  1.365771111E+03  0.000000000E+00  0.00000E+00  9.000E+00
      21    -1     0     0   501   512  0.000000000E+00  0.000000000E+00 -6.376293811E+02  6.376293811E+02  0.000000000E+00  0.00000E+00  9.000E+00
      25     1     1     2     0     0 -1.849513943E+02 -7.633719711E+02 -6.012017744E+01  7.976109454E+02  1.250000000E+02  0.00000E+00  9.000E+00
      25     1     1     2     0     0  1.818502237E+02  7.250883979E+02  8.463733882E+02  1.136131859E+03  1.250000000E+02  0.00000E+00  9.000E+00
      21     1     1     2   502   512  3.101170623E+00  3.828357318E+01 -5.811148092E+01  6.965768765E+01  0.000000000E+00  0.00000E+00  9.000E+00
#rwgt            1           1   3.1207692053188227E-002           9      324737           0
</event>
<event>
      5   9999  3.19816E-02  8.40764E+01 -1.00000E+00  1.27313E-01
      21    -1     0     0   502   511  0.000000000E+00  0.000000000E+00  9.702680855E+02  9.702680855E+02  0.000000000E+00  0.00000E+00  9.000E+00
      21    -1     0     0   501   502  0.000000000E+00  0.000000000E+00 -1.524528145E+03  1.524528145E+03  0.000000000E+00  0.00000E+00  9.000E+00
      25     1     1     2     0     0  4.201428129E+02  4.163794666E+02 -6.886693717E+02  9.163963918E+02  1.250000000E+02  0.00000E+00  9.000E+00
      25     1     1     2     0     0 -3.386223661E+02 -4.369526911E+02 -6.080301285E+02  8.312150132E+02  1.250000000E+02  0.00000E+00  9.000E+00
      21     1     1     2   501   511 -8.152044678E+01  2.057322446E+01  7.424394405E+02  7.471848256E+02  1.078959322E-05  0.00000E+00  9.000E+00
#rwgt            1           1   2.9662837537367811E-002           9      324929           0
</event>
<event>
      5   9999  3.19816E-02  1.10089E+02 -1.00000E+00  1.21979E-01
      21    -1     0     0   502   512  0.000000000E+00  0.000000000E+00  1.445403032E+03  1.445403032E+03  0.000000000E+00  0.00000E+00  9.000E+00
      21    -1     0     0   501   502  0.000000000E+00  0.000000000E+00 -6.569371640E+02  6.569371640E+02  0.000000000E+00  0.00000E+00  9.000E+00
      25     1     1     2     0     0  1.627177958E+02 -1.983345821E+02 -4.963970467E+02  5.725807502E+02  1.250000000E+02  0.00000E+00  9.000E+00
      25     1     1     2     0     0 -9.156521551E+01  2.823400950E+02  9.636199637E+01  3.361707190E+02  1.250000000E+02  0.00000E+00  9.000E+00
      21     1     1     2   501   512 -7.115258033E+01 -8.400551298E+01  1.188500918E+03  1.193588727E+03  0.000000000E+00  0.00000E+00  9.000E+00
#rwgt            1           1   2.8553746930465817E-002           9      325012           0
</event>
<event>
      5   9999  3.19816E-02  7.69946E+01 -1.00000E+00  1.29160E-01
      21    -1     0     0   502   501  0.000000000E+00  0.000000000E+00  2.509450007E+02  2.509450007E+02  0.000000000E+00  0.00000E+00  9.000E+00
      21    -1     0     0   501   511  0.000000000E+00  0.000000000E+00 -2.737058607E+02  2.737058607E+02  0.000000000E+00  0.00000E+00  9.000E+00
      25     1     1     2     0     0 -6.473293678E+01 -1.873229486E+02  6.948464560E+01  2.444040837E+02  1.250000000E+02  0.00000E+00  9.000E+00
      25     1     1     2     0     0  4.409155773E+00  1.394772100E+02 -5.937561324E+01  1.965293775E+02  1.250000000E+02  0.00000E+00  9.000E+00
      21     1     1     2   502   511  6.032378101E+01  4.784573859E+01 -3.286989236E+01  8.371740010E+01  1.507891493E-06  0.00000E+00  9.000E+00
#rwgt            1           1   2.9115663668961015E-002           9      325146           0
</event>
<event>
      5   9999  3.19816E-02  9.76966E+01 -1.00000E+00  1.24285E-01
      21    -1     0     0   512   501  0.000000000E+00  0.000000000E+00  1.410478919E+03  1.410478919E+03  0.000000000E+00  0.00000E+00  9.000E+00
      21    -1     0     0   501   502  0.000000000E+00  0.000000000E+00 -3.975175848E+02  3.975175848E+02  0.000000000E+00  0.00000E+00  9.000E+00
      25     1     1     2     0     0  1.465354112E+02  6.825828789E+02  3.162701014E+02  7.765589420E+02  1.250000000E+02  0.00000E+00  9.000E+00
      25     1     1     2     0     0 -5.519903426E+01 -6.479088672E+02  5.915477877E+02  8.879113800E+02  1.250000000E+02  0.00000E+00  9.000E+00
      21     1     1     2   512   502 -9.133637692E+01 -3.467401171E+01  1.051434456E+02  1.435261822E+02  2.697398305E-06  0.00000E+00  9.000E+00
#rwgt            1           1   3.0369724852595904E-002           9      325228           0
</event>
<event>
      5   9999  3.19816E-02  9.83992E+01 -1.00000E+00  1.24144E-01
      21    -1     0     0   502   511  0.000000000E+00  0.000000000E+00  4.417610218E+02  4.417610218E+02  0.000000000E+00  0.00000E+00  9.000E+00
      21    -1     0     0   501   502  0.000000000E+00  0.000000000E+00 -7.498691674E+02  7.498691674E+02  0.000000000E+00  0.00000E+00  9.000E+00
      25     1     1     2     0     0 -7.647964303E-01  2.312738872E+02  3.005400771E+02  3.992962982E+02  1.250000000E+02  0.00000E+00  9.000E+00
      25     1     1     2     0     0  9.442234444E+01 -2.010966869E+02 -6.401320044E+02  6.890206381E+02  1.250000000E+02  0.00000E+00  9.000E+00
      21     1     1     2   501   511 -9.365754801E+01 -3.017720031E+01  3.148378168E+01  1.033132529E+02  2.654916936E-06  0.00000E+00  9.000E+00
#rwgt            2          11   5.1553190565945340E-003           9      325387           0
</event>
<event>
      5   9999  3.19816E-02  1.52635E+01 -1.00000E+00  1.76674E-01
      21    -1     0     0   512   501  0.000000000E+00  0.000000000E+00  3.329982884E+02  3.329982884E+02  0.000000000E+00  0.00000E+00  9.000E+00
      21    -1     0     0   501   502  0.000000000E+00  0.000000000E+00 -4.677640350E+02  4.677640350E+02  0.000000000E+00  0.00000E+00  9.000E+00
      25     1     1     2     0     0  6.414290962E+01  2.729269196E+02 -2.659381354E+02  4.061422265E+02  1.250000000E+02  0.00000E+00  9.000E+00
      25     1     1     2     0     0 -5.407327308E+01 -2.614562100E+02  3.457320530E+01  2.968224640E+02  1.250000000E+02  0.00000E+00  9.000E+00
      21     1     1     2   512   502 -1.006963653E+01 -1.147070959E+01  9.659918350E+01  9.779763295E+01  1.907348633E-06  0.00000E+00  9.000E+00
#rwgt            1           1   3.1063594575899571E-002           9      325407           0
</event>
<event>
      5   9999  3.19816E-02  2.31796E+02 -1.00000E+00  1.09364E-01
      21    -1     0     0   502   501  0.000000000E+00  0.000000000E+00  9.016683814E+01  9.016683814E+01  0.000000000E+00  0.00000E+00  9.000E+00
       2    -1     0     0   501     0  0.000000000E+00  0.000000000E+00 -2.672134861E+03  2.672134861E+03  0.000000000E+00  0.00000E+00  9.000E+00
      25     1     1     2     0     0  2.942017438E+01 -1.204712041E+02 -3.031469433E+02  3.505737111E+02  1.250000000E+02  0.00000E+00  9.000E+00
      25     1     1     2     0     0  1.138061517E+02  3.027228907E+02 -4.490358768E+02  5.673193170E+02  1.250000000E+02  0.00000E+00  9.000E+00
       2     1     1     2   502     0 -1.432263261E+02 -1.822516866E+02 -1.829785202E+03  1.844408671E+03  2.157918644E-05  0.00000E+00  9.000E+00
#rwgt            1           1   3.3295084189316697E-002           9      325699           0
</event>
<event>
      5   9999  3.56429E-02  9.29861E+01 -1.00000E+00  1.25265E-01
      21    -1     0     0   511   501  0.000000000E+00  0.000000000E+00  2.822273120E+02  2.822273120E+02  0.000000000E+00  0.00000E+00  9.000E+00
      21    -1     0     0   501   502  0.000000000E+00  0.000000000E+00 -2.291262826E+03  2.291262826E+03  0.000000000E+00  0.00000E+00  9.000E+00
      25     1     1     2     0     0  6.755684405E+01  2.594260397E+02 -5.140217698E+02  5.930507374E+02  1.250000000E+02  0.00000E+00  9.000E+00
      25     1     1     2     0     0 -1.604300726E+02 -2.640063731E+02 -1.712122975E+03  1.744255501E+03  1.250000000E+02  0.00000E+00  9.000E+00
      21     1     1     2   511   502  9.287322854E+01  4.580333347E+00  2.171092308E+02  2.361838990E+02  2.697398305E-06  0.00000E+00  9.000E+00
#rwgt            1           1  0.11025123909320377                9      325728           0
</event>
<event>
      5   9999  3.19816E-02  5.30999E+01 -1.00000E+00  1.37601E-01
      21    -1     0     0   502   501  0.000000000E+00  0.000000000E+00  3.880794434E+02  3.880794434E+02  0.000000000E+00  0.00000E+00  9.000E+00
      21    -1     0     0   512   502  0.000000000E+00  0.000000000E+00 -2.704432266E+02  2.704432266E+02  0.000000000E+00  0.00000E+00  9.000E+00
      25     1     1     2     0     0 -1.990708726E+02 -1.414969527E+02  2.458358653E+01  2.754631603E+02  1.250000000E+02  0.00000E+00  9.000E+00
      25     1     1     2     0     0  1.668544258E+02  9.928676653E+01  1.719858415E+02  2.879277532E+02  1.250000000E+02  0.00000E+00  9.000E+00
      21     1     1     2   512   501  3.221644688E+01  4.221018614E+01 -7.893321124E+01  9.513175653E+01  1.651812370E-06  0.00000E+00  9.000E+00
#rwgt            1           1   2.3985047315227950E-002           9      325797           0
</event>
<event>
      5   9999  3.19816E-02  1.34894E+02 -1.00000E+00  1.18250E-01
      21    -1     0     0   502   511  0.000000000E+00  0.000000000E+00  1.598275799E+02  1.598275799E+02  0.000000000E+00  0.00000E+00  9.000E+00
      21    -1     0     0   501   502  0.000000000E+00  0.000000000E+00 -7.892254618E+02  7.892254618E+02  0.000000000E+00  0.00000E+00  9.000E+00
      25     1     1     2     0     0  1.924777253E+02  8.212223025E+01 -9.036044273E+01  2.599648920E+02  1.250000000E+02  0.00000E+00  9.000E+00
      25     1     1     2     0     0 -8.472008853E+01 -1.632675784E+02 -5.022245621E+02  5.492616010E+02  1.250000000E+02  0.00000E+00  9.000E+00
      21     1     1     2   501   511 -1.077576368E+02  8.114534813E+01 -3.681287705E+01  1.398265487E+02  1.784161275E-06  0.00000E+00  9.000E+00
#rwgt            1           1   2.5945013528280172E-002           9      325869           0
</event>
<event>
      5   9999  3.19816E-02  5.70474E+01 -1.00000E+00  1.35885E-01
      21    -1     0     0   502   501  0.000000000E+00  0.000000000E+00  5.207835626E+02  5.207835626E+02  0.000000000E+00  0.00000E+00  9.000E+00
      21    -1     0     0   501   512  0.000000000E+00  0.000000000E+00 -9.344281608E+02  9.344281608E+02  0.000000000E+00  0.00000E+00  9.000E+00
      25     1     1     2     0     0  1.340970175E+02 -3.948535424E+02  1.243743262E+02  4.527530266E+02  1.250000000E+02  0.00000E+00  9.000E+00
      25     1     1     2     0     0 -1.384509104E+02  3.379725745E+02  6.952630402E+01  3.922410262E+02  1.250000000E+02  0.00000E+00  9.000E+00
      21     1     1     2   502   512  4.353892911E+00  5.688096797E+01 -6.075452285E+02  6.102176706E+02  7.629394531E-06  0.00000E+00  9.000E+00
#rwgt            1           1   2.9883992999313873E-002           9      325939           0
</event>
<event>
      5   9999  3.19816E-02  9.32738E+01 -1.00000E+00  1.25204E-01
      21    -1     0     0   502   501  0.000000000E+00  0.000000000E+00  4.151619007E+02  4.151619007E+02  0.000000000E+00  0.00000E+00  9.000E+00
       4    -1     0     0   501     0  0.000000000E+00  0.000000000E+00 -2.003836589E+03  2.003836589E+03  0.000000000E+00  0.00000E+00  9.000E+00
      25     1     1     2     0     0  5.614941233E+02 -5.759261038E+01  1.132663741E+02  5.891068076E+02  1.250000000E+02  0.00000E+00  9.000E+00
      25     1     1     2     0     0 -4.682325155E+02  5.909769906E+01 -9.119550865E+02  1.034418342E+03  1.250000000E+02  0.00000E+00  9.000E+00
       4     1     1     2   502     0 -9.326160775E+01 -1.505088674E+00 -7.899859757E+02  7.954733400E+02  1.525878906E-05  0.00000E+00  9.000E+00
#rwgt            1           1   2.9357433726580506E-002           9      326099           0
</event>
<event>
      5   9999  3.19816E-02  6.02325E+01 -1.00000E+00  1.34614E-01
      21    -1     0     0   502   511  0.000000000E+00  0.000000000E+00  2.257040664E+02  2.257040664E+02  0.000000000E+00  0.00000E+00  9.000E+00
      21    -1     0     0   501   502  0.000000000E+00  0.000000000E+00 -3.048069134E+02  3.048069134E+02  0.000000000E+00  0.00000E+00  9.000E+00
      25     1     1     2     0     0 -1.156476968E+02  7.383947080E+01  7.457586093E+01  2.000330379E+02  1.250000000E+02  0.00000E+00  9.000E+00
      25     1     1     2     0     0  1.358677268E+02 -1.305765768E+02 -1.473760763E+02  2.699166343E+02  1.250000000E+02  0.00000E+00  9.000E+00
      21     1     1     2   501   511 -2.022002996E+01  5.673710602E+01 -6.302631671E+00  6.056130759E+01  4.298152060E-07  0.00000E+00  9.000E+00
#rwgt            1           1   2.3751278675236395E-002           9      326253           0
</event>
<event>
      5   9999  3.19816E-02  1.88053E+02 -1.00000E+00  1.12631E-01
      21    -1     0     0   502   501  0.000000000E+00  0.000000000E+00  1.266722637E+02  1.266722637E+02  0.000000000E+00  0.00000E+00  9.000E+00
      -2    -1     0     0     0   502  0.000000000E+00  0.000000000E+00 -6.441187080E+02  6.441187080E+02  0.000000000E+00  0.00000E+00  9.000E+00
      25     1     1     2     0     0  1.580406818E+02  3.173188565E+01 -5.845766199E+01  2.121934682E+02  1.250000000E+02  0.00000E+00  9.000E+00
      25     1     1     2     0     0  1.913135402E+01  3.130717957E+01 -1.832107103E+02  2.248050546E+02  1.250000000E+02  0.00000E+00  9.000E+00
      -2     1     1     2     0   501 -1.771720359E+02 -6.303906523E+01 -2.757780720E+02  3.337924490E+02  3.814697266E-06  0.00000E+00  9.000E+00
#rwgt            2           9   1.2604440795831827E-004           9      326398           0
</event>
<event>
      5   9999  3.19816E-02  8.85477E+01 -1.00000E+00  1.26251E-01
       2    -1     0     0   502     0  0.000000000E+00  0.000000000E+00  3.338180764E+03  3.338180764E+03  0.000000000E+00  0.00000E+00  9.000E+00
      21    -1     0     0   501   502  0.000000000E+00  0.000000000E+00 -2.508300700E+02  2.508300700E+02  0.000000000E+00  0.00000E+00  9.000E+00
      25     1     1     2     0     0 -1.332030347E+02  1.868426451E+02 -1.507845547E+02  3.016856053E+02  1.250000000E+02  0.00000E+00  9.000E+00
      25     1     1     2     0     0  2.214684911E+02 -1.939069676E+02  1.055252981E+03  1.102647749E+03  1.250000000E+02  0.00000E+00  9.000E+00
       2     1     1     2   501     0 -8.826545632E+01  7.064322486E+00  2.182882268E+03  2.184677480E+03  3.051757812E-05  0.00000E+00  9.000E+00
#rwgt            1           1   3.0152550565748216E-002           9      326417           0
</event>
<event>
      5   9999  3.19816E-02  3.75073E+01 -1.00000E+00  1.46595E-01
      21    -1     0     0   502   511  0.000000000E+00  0.000000000E+00  2.061948174E+02  2.061948174E+02  0.000000000E+00  0.00000E+00  9.000E+00
      21    -1     0     0   501   502  0.000000000E+00  0.000000000E+00 -2.755158487E+02  2.755158487E+02  0.000000000E+00  0.00000E+00  9.000E+00
      25     1     1     2     0     0  3.626059250E+01  8.580968902E+00  2.731696817E+01  1.332654507E+02  1.250000000E+02  0.00000E+00  9.000E+00
      25     1     1     2     0     0 -3.231972501E+01 -4.588071064E+01 -1.977606699E+02  2.405907039E+02  1.250000000E+02  0.00000E+00  9.000E+00
      21     1     1     2   501   511 -3.940867486E+00  3.729974173E+01  1.011226705E+02  1.078545115E+02  2.336015456E-06  0.00000E+00  9.000E+00
#rwgt            1           1   2.7178678376087208E-002           9      326486           0
</event>
<event>
      5   9999  3.19816E-02  5.18847E+01 -1.00000E+00  1.38165E-01
      21    -1     0     0   502   501  0.000000000E+00  0.000000000E+00  1.172905362E+02  1.172905362E+02  0.000000000E+00  0.00000E+00  9.000E+00
      21    -1     0     0   501   512  0.000000000E+00  0.000000000E+00 -7.462768181E+02  7.462768181E+02  0.000000000E+00  0.00000E+00  9.000E+00
      25     1     1     2     0     0  1.711345140E+00  1.330869421E+02 -3.002725306E+02  3.514308687E+02  1.250000000E+02  0.00000E+00  9.000E+00
      25     1     1     2     0     0 -5.331120799E+01 -1.385162535E+02 -1.551063111E+01  1.946648840E+02  1.250000000E+02  0.00000E+00  9.000E+00
      21     1     1     2   502   512  5.159986285E+01  5.429311329E+00 -3.132031203E+02  3.174716016E+02  5.394796609E-06  0.00000E+00  9.000E+00
#rwgt            1           1   3.3265070280615108E-002           9      326566           0
</event>
<event>
      5   9999  3.19816E-02  2.93660E+01 -1.00000E+00  1.53687E-01
      21    -1     0     0   502   501  0.000000000E+00  0.000000000E+00  1.919143912E+03  1.919143912E+03  0.000000000E+00  0.00000E+00  9.000E+00
      21    -1     0     0   511   502  0.000000000E+00  0.000000000E+00 -3.234161429E+02  3.234161429E+02  0.000000000E+00  0.00000E+00  9.000E+00
      25     1     1     2     0     0 -1.890532639E+02 -4.856701477E+01 -2.328126495E+02  3.285218734E+02  1.250000000E+02  0.00000E+00  9.000E+00
      25     1     1     2     0     0  1.863472912E+02  7.780805270E+01  1.857602347E+03  1.872722853E+03  1.250000000E+02  0.00000E+00  9.000E+00
      21     1     1     2   511   501  2.705972719E+00 -2.924103794E+01 -2.906192888E+01  4.131532764E+01  5.840038640E-07  0.00000E+00  9.000E+00
#rwgt            1           1   2.8290773994058608E-002           9      326646           0
</event>
<event>
      5   9999  3.19816E-02  2.44582E+02 -1.00000E+00  1.08556E-01
      21    -1     0     0   502   501  0.000000000E+00  0.000000000E+00  9.284708818E+02  9.284708818E+02  0.000000000E+00  0.00000E+00  9.000E+00
      21    -1     0     0   501   512  0.000000000E+00  0.000000000E+00 -3.157749825E+02  3.157749825E+02  0.000000000E+00  0.00000E+00  9.000E+00
      25     1     1     2     0     0  4.396132341E+02 -1.137499939E+02  4.046088300E+02  6.209123626E+02  1.250000000E+02  0.00000E+00  9.000E+00
      25     1     1     2     0     0 -2.206653450E+02  2.227555573E+02  1.621531868E+02  3.744754849E+02  1.250000000E+02  0.00000E+00  9.000E+00
      21     1     1     2   502   512 -2.189478891E+02 -1.090055634E+02  4.593388247E+01  2.488580168E+02  1.507891493E-06  0.00000E+00  9.000E+00
#rwgt            1           1   2.6616984893826693E-002           9      326801           0
</event>
<event>
      5   9999  3.19816E-02  4.06609E+02 -1.00000E+00  1.01472E-01
      21    -1     0     0   502   501  0.000000000E+00  0.000000000E+00  4.633168513E+02  4.633168513E+02  0.000000000E+00  0.00000E+00  9.000E+00
      21    -1     0     0   511   502  0.000000000E+00  0.000000000E+00 -3.343363257E+03  3.343363257E+03  0.000000000E+00  0.00000E+00  9.000E+00
      25     1     1     2     0     0  4.967945750E+02  3.812197962E+02 -2.355081758E+03  2.440116487E+03  1.250000000E+02  0.00000E+00  9.000E+00
      25     1     1     2     0     0 -9.130320176E+01 -4.113479542E+02  2.396186929E+02  5.005851896E+02  1.250000000E+02  0.00000E+00  9.000E+00
      21     1     1     2   511   501 -4.054913732E+02  3.012815795E+01 -7.645833406E+02  8.659784318E+02  0.000000000E+00  0.00000E+00  9.000E+00
#rwgt            2          11   1.4094611345898146E-003           9      327098           0
</event>
<event>
      5   9999  3.19816E-02  9.94399E+01 -1.00000E+00  1.23938E-01
      21    -1     0     0   502   512  0.000000000E+00  0.000000000E+00  3.897296619E+02  3.897296619E+02  0.000000000E+00  0.00000E+00  9.000E+00
      21    -1     0     0   501   502  0.000000000E+00  0.000000000E+00 -5.873741526E+02  5.873741526E+02  0.000000000E+00  0.00000E+00  9.000E+00
      25     1     1     2     0     0 -1.555113331E+02  1.689775362E+02 -4.294200681E+02  5.027561808E+02  1.250000000E+02  0.00000E+00  9.000E+00
      25     1     1     2     0     0  2.506900296E+02 -1.401797177E+02  1.602309944E+02  3.518448745E+02  1.250000000E+02  0.00000E+00  9.000E+00
      21     1     1     2   501   512 -9.517869649E+01 -2.879781853E+01  7.154458309E+01  1.225027591E+02  9.536743164E-07  0.00000E+00  9.000E+00
#rwgt            1           1   3.1323948596874984E-002           9      327133           0
</event>
<event>
      5   9999  3.19816E-02  3.67591E+01 -1.00000E+00  1.47153E-01
      21    -1     0     0   502   501  0.000000000E+00  0.000000000E+00  1.070102789E+02  1.070102789E+02  0.000000000E+00  0.00000E+00  9.000E+00
      21    -1     0     0   501   511  0.000000000E+00  0.000000000E+00 -6.256028956E+02  6.256028956E+02  0.000000000E+00  0.00000E+00  9.000E+00
      25     1     1     2     0     0 -8.222193705E+01 -3.709325852E+01  2.798334088E+01  1.566666018E+02  1.250000000E+02  0.00000E+00  9.000E+00
      25     1     1     2     0     0  4.705840487E+01  4.780572448E+01 -4.710840068E+02  4.919807133E+02  1.250000000E+02  0.00000E+00  9.000E+00
      21     1     1     2   502   511  3.516353218E+01 -1.071246596E+01 -7.549195066E+01  8.396585935E+01  0.000000000E+00  0.00000E+00  9.000E+00
#rwgt            1           1   2.8185926878934363E-002           9      327197           0
</event>
<event>
      5   9999  3.19816E-02  1.15058E+01 -1.00000E+00  1.88969E-01
      21    -1     0     0   512   501  0.000000000E+00  0.000000000E+00  2.648493278E+02  2.648493278E+02  0.000000000E+00  0.00000E+00  9.000E+00
      21    -1     0     0   501   502  0.000000000E+00  0.000000000E+00 -5.573839523E+02  5.573839523E+02  0.000000000E+00  0.00000E+00  9.000E+00
      25     1     1     2     0     0  6.015523847E+01 -6.037147134E+01 -1.499741896E+02  2.130272865E+02  1.250000000E+02  0.00000E+00  9.000E+00
      25     1     1     2     0     0 -5.389014081E+01  7.002200303E+01 -3.601401260E+02  3.913222949E+02  1.250000000E+02  0.00000E+00  9.000E+00
      21     1     1     2   512   502 -6.265097659E+00 -9.650531691E+00  2.175796910E+02  2.178836986E+02  2.697398305E-06  0.00000E+00  9.000E+00
#rwgt            1           1   2.8985569745411215E-002           9      327273           0
</event>
<event>
      5   9999  3.19816E-02  5.74418E+01 -1.00000E+00  1.35722E-01
       1    -1     0     0   502     0  0.000000000E+00  0.000000000E+00  1.270572335E+03  1.270572335E+03  0.000000000E+00  0.00000E+00  9.000E+00
      21    -1     0     0   501   502  0.000000000E+00  0.000000000E+00 -9.319664993E+01  9.319664993E+01  0.000000000E+00  0.00000E+00  9.000E+00
      25     1     1     2     0     0  2.290236339E+02 -7.598389560E+01  3.977433356E+02  4.817158273E+02  1.250000000E+02  0.00000E+00  9.000E+00
      25     1     1     2     0     0 -2.220847632E+02  1.330050732E+02  3.706728239E+02  4.690792406E+02  1.250000000E+02  0.00000E+00  9.000E+00
       1     1     1     2   501     0 -6.938870688E+00 -5.702117764E+01  4.089595257E+02  4.129739172E+02  5.394796609E-06  0.00000E+00  9.000E+00
#rwgt            1           1   2.9374119333675244E-002           9      327423           0
</event>
<event>
      5   9999  3.19816E-02  4.05677E+02 -1.00000E+00  1.01502E-01
      21    -1     0     0   502   501  0.000000000E+00  0.000000000E+00  1.153521400E+03  1.153521400E+03  0.000000000E+00  0.00000E+00  9.000E+00
       2    -1     0     0   501     0  0.000000000E+00  0.000000000E+00 -7.219901353E+02  7.219901353E+02  0.000000000E+00  0.00000E+00  9.000E+00
      25     1     1     2     0     0  1.374085161E+02  4.192826992E+01  1.844764068E+02  2.651332208E+02  1.250000000E+02  0.00000E+00  9.000E+00
      25     1     1     2     0     0 -6.448631538E+01  3.571412278E+02  8.217192529E+02  9.069486601E+02  1.250000000E+02  0.00000E+00  9.000E+00
       2     1     1     2   502     0 -7.292220073E+01 -3.990694977E+02 -5.746643952E+02  7.034296542E+02  1.078959322E-05  0.00000E+00  9.000E+00
#rwgt            2          13   4.7880785398364207E-003           9      327495           0
</event>
<event>
      5   9999  3.19816E-02  2.47631E+01 -1.00000E+00  1.59061E-01
      21    -1     0     0   502   501  0.000000000E+00  0.000000000E+00  3.155158645E+02  3.155158645E+02  0.000000000E+00  0.00000E+00  9.000E+00
       2    -1     0     0   501     0  0.000000000E+00  0.000000000E+00 -2.915913392E+03  2.915913392E+03  0.000000000E+00  0.00000E+00  9.000E+00
      25     1     1     2     0     0  1.267444415E+02 -4.202749668E+02 -1.110227311E+03  1.200385306E+03  1.250000000E+02  0.00000E+00  9.000E+00
      25     1     1     2     0     0 -1.433077642E+02  4.386833404E+02  5.893102021E+01  4.817448013E+02  1.250000000E+02  0.00000E+00  9.000E+00
       2     1     1     2   502     0  1.656332262E+01 -1.840837358E+01 -1.549101237E+03  1.549299149E+03  0.000000000E+00  0.00000E+00  9.000E+00
#rwgt            1           1   3.0199898643010991E-002           9      327514           0
</event>
<event>
      5   9999  3.77395E-02  5.97521E+01 -1.00000E+00  1.34800E-01
      21    -1     0     0   511   501  0.000000000E+00  0.000000000E+00  1.581796160E+03  1.581796160E+03  0.000000000E+00  0.00000E+00  9.000E+00
      21    -1     0     0   501   502  0.000000000E+00  0.000000000E+00 -1.216834206E+03  1.216834206E+03  0.000000000E+00  0.00000E+00  9.000E+00
      25     1     1     2     0     0  9.341783277E+02  4.893959634E+01 -7.094667192E+02  1.180699902E+03  1.250000000E+02  0.00000E+00  9.000E+00
      25     1     1     2     0     0 -9.930694203E+02 -3.883252257E+01  6.607589323E+02  1.199967585E+03  1.250000000E+02  0.00000E+00  9.000E+00
      21     1     1     2   511   502  5.889109263E+01 -1.010707377E+01  4.136697413E+02  4.179628795E+02  5.394796609E-06  0.00000E+00  9.000E+00
#rwgt            1           1   9.1923692954180403E-002           9      327730           0
</event>
<event>
      5   9999  3.19816E-02  9.70385E+01 -1.00000E+00  1.24418E-01
      21    -1     0     0   502   501  0.000000000E+00  0.000000000E+00  5.189027552E+02  5.189027552E+02  0.000000000E+00  0.00000E+00  9.000E+00
      21    -1     0     0   512   502  0.000000000E+00  0.000000000E+00 -2.871308384E+02  2.871308384E+02  0.000000000E+00  0.00000E+00  9.000E+00
      25     1     1     2     0     0 -1.711819577E+02  2.519492197E+02  3.022153947E+02  4.469237258E+02  1.250000000E+02  0.00000E+00  9.000E+00
      25     1     1     2     0     0  1.334636741E+02 -1.625411605E+02 -8.894446215E+01  2.603234498E+02  1.250000000E+02  0.00000E+00  9.000E+00
      21     1     1     2   512   501  3.771828358E+01 -8.940805914E+01  1.850098434E+01  9.878641798E+01  8.259061849E-07  0.00000E+00  9.000E+00
#rwgt            1           1   2.2354614594247001E-002           9      327870           0
</event>
<event>
      5   9999  3.19816E-02  2.03557E+01 -1.00000E+00  1.65740E-01
      21    -1     0     0   511   501  0.000000000E+00  0.000000000E+00  6.949846404E+02  6.949846404E+02  0.000000000E+00  0.00000E+00  9.000E+00
      21    -1     0     0   501   502  0.000000000E+00  0.000000000E+00 -1.390599829E+02  1.390599829E+02  0.000000000E+00  0.00000E+00  9.000E+00
      25     1     1     2     0     0 -1.845738381E+02 -6.521352612E+01  4.568114624E+02  5.124666017E+02  1.250000000E+02  0.00000E+00  9.000E+00
      25     1     1     2     0     0  2.048270733E+02  6.725372934E+01  3.176334049E+01  2.512192347E+02  1.250000000E+02  0.00000E+00  9.000E+00
      21     1     1     2   511   502 -2.025323519E+01 -2.040203218E+00  6.734985468E+01  7.035878687E+01  9.536743164E-07  0.00000E+00  9.000E+00
#rwgt            1           1   2.6917009731664741E-002           9      327957           0
</event>
<event>
      5   9999  3.19816E-02  8.46817E+00 -1.00000E+00  2.04493E-01
      21    -1     0     0   502   501  0.000000000E+00  0.000000000E+00  3.466928574E+02  3.466928574E+02  0.000000000E+00  0.00000E+00  9.000E+00
      21    -1     0     0   501   512  0.000000000E+00  0.000000000E+00 -1.488638736E+03  1.488638736E+03  0.000000000E+00  0.00000E+00  9.000E+00
      25     1     1     2     0     0 -4.895210425E+02  1.433824153E+02 -6.705788130E+02  8.517571911E+02  1.250000000E+02  0.00000E+00  9.000E+00
      25     1     1     2     0     0  4.867415268E+02 -1.513814304E+02 -1.287018435E+01  5.249993267E+02  1.250000000E+02  0.00000E+00  9.000E+00
      21     1     1     2   502   512  2.779515682E+00  7.999015103E+00 -4.584968814E+02  4.585750758E+02  7.629394531E-06  0.00000E+00  9.000E+00
#rwgt            1           1   2.9817943654379911E-002           9      328116           0
</event>
<event>
      5   9999  3.19816E-02  9.15771E+01 -1.00000E+00  1.25571E-01
      21    -1     0     0   511   501  0.000000000E+00  0.000000000E+00  7.097331380E+02  7.097331380E+02  0.000000000E+00  0.00000E+00  9.000E+00
      21    -1     0     0   501   502  0.000000000E+00  0.000000000E+00 -1.945711442E+02  1.945711442E+02  0.000000000E+00  0.00000E+00  9.000E+00
      25     1     1     2     0     0 -1.076417830E+02  1.000786229E+02 -2.831107082E+01  1.950102586E+02  1.250000000E+02  0.00000E+00  9.000E+00
      25     1     1     2     0     0  1.719941963E+02 -3.492389342E+01  6.927019597E+01  2.263294986E+02  1.250000000E+02  0.00000E+00  9.000E+00
      21     1     1     2   511   502 -6.435241329E+01 -6.515472945E+01  4.742028686E+02  4.829645250E+02  0.000000000E+00  0.00000E+00  9.000E+00
#rwgt            1           1   2.8912185407458726E-002           9      328471           0
</event>
<event>
      5   9999  3.19816E-02  1.18479E+02 -1.00000E+00  1.20604E-01
      21    -1     0     0   502   501  0.000000000E+00  0.000000000E+00  1.878436125E+03  1.878436125E+03  0.000000000E+00  0.00000E+00  9.000E+00
       2    -1     0     0   501     0  0.000000000E+00  0.000000000E+00 -2.976207574E+02  2.976207574E+02  0.000000000E+00  0.00000E+00  9.000E+00
      25     1     1     2     0     0 -6.247561585E+01  4.257281284E+02  6.019017010E+01  4.521012038E+02  1.250000000E+02  0.00000E+00  9.000E+00
      25     1     1     2     0     0 -5.504680297E+01 -4.407497814E+02  1.536617230E+03  1.604402703E+03  1.250000000E+02  0.00000E+00  9.000E+00
       2     1     1     2   502     0  1.175224188E+02  1.502165299E+01 -1.599203249E+01  1.195529761E+02  1.929570920E-06  0.00000E+00  9.000E+00
#rwgt            2          13   1.1671406569028640E-004           9      328651           0
</event>
<event>
      5   9999  3.19816E-02  1.20164E+02 -1.00000E+00  1.20343E-01
      21    -1     0     0   502   511  0.000000000E+00  0.000000000E+00  1.806195889E+03  1.806195889E+03  0.000000000E+00  0.00000E+00  9.000E+00
      21    -1     0     0   501   502  0.000000000E+00  0.000000000E+00 -4.831794302E+02  4.831794302E+02  0.000000000E+00  0.00000E+00  9.000E+00
      25     1     1     2     0     0 -4.270456258E+02  1.062384877E+02 -2.934877558E+02  5.435206027E+02  1.250000000E+02  0.00000E+00  9.000E+00
      25     1     1     2     0     0  4.648297467E+02  7.830850955E+00  9.128281833E+02  1.031992397E+03  1.250000000E+02  0.00000E+00  9.000E+00
      21     1     1     2   501   511 -3.778412092E+01 -1.140693386E+02  7.036760309E+02  7.138623188E+02  0.000000000E+00  0.00000E+00  9.000E+00
#rwgt            1           1   2.7955191573917824E-002           9      328700           0
</event>
<event>
      5   9999  3.19816E-02  1.99389E+02 -1.00000E+00  1.11696E-01
      21    -1     0     0   512   501  0.000000000E+00  0.000000000E+00  2.710819874E+02  2.710819874E+02  0.000000000E+00  0.00000E+00  9.000E+00
      21    -1     0     0   501   502  0.000000000E+00  0.000000000E+00 -2.944007795E+03  2.944007795E+03  0.000000000E+00  0.00000E+00  9.000E+00
      25     1     1     2     0     0 -2.178617874E+02  1.734079210E+01 -2.445671289E+02  3.510021966E+02  1.250000000E+02  0.00000E+00  9.000E+00
      25     1     1     2     0     0  3.613126233E+01  6.469689971E+01 -2.598143437E+03  2.602203966E+03  1.250000000E+02  0.00000E+00  9.000E+00
      21     1     1     2   512   502  1.817305250E+02 -8.203769181E+01  1.697847583E+02  2.618836206E+02  8.946258087E-06  0.00000E+00  9.000E+00
#rwgt            2          11   1.7176406876832962E-002           9      328879           0
</event>
<event>
      5   9999  3.19816E-02  5.91654E+01 -1.00000E+00  1.35029E-01
      21    -1     0     0   502   501  0.000000000E+00  0.000000000E+00  6.391253331E+02  6.391253331E+02  0.000000000E+00  0.00000E+00  9.000E+00
      21    -1     0     0   511   502  0.000000000E+00  0.000000000E+00 -4.097526826E+02  4.097526826E+02  0.000000000E+00  0.00000E+00  9.000E+00
      25     1     1     2     0     0 -1.344945363E+02  3.342353137E+02 -1.667074878E+02  4.161951606E+02  1.250000000E+02  0.00000E+00  9.000E+00
      25     1     1     2     0     0  1.603363515E+02 -2.810118041E+02  4.390774258E+02  5.595438906E+02  1.250000000E+02  0.00000E+00  9.000E+00
      21     1     1     2   511   501 -2.584181521E+01 -5.322350962E+01 -4.299728760E+01  7.313896451E+01  1.168007728E-06  0.00000E+00  9.000E+00
#rwgt            1           1   2.5287979541731682E-002           9      328899           0
</event>
<event>
      5   9999  3.19816E-02  3.49391E+01 -1.00000E+00  1.48580E-01
      21    -1     0     0   502   501  0.000000000E+00  0.000000000E+00  1.938223077E+02  1.938223077E+02  0.000000000E+00  0.00000E+00  9.000E+00
      21    -1     0     0   501   512  0.000000000E+00  0.000000000E+00 -9.018257680E+02  9.018257680E+02  0.000000000E+00  0.00000E+00  9.000E+00
      25     1     1     2     0     0 -1.427321897E+02 -3.203222664E+00  1.273370677E+02  2.285223565E+02  1.250000000E+02  0.00000E+00  9.000E+00
      25     1     1     2     0     0  1.083696838E+02 -3.118215506E+00 -8.017927508E+02  8.186881744E+02  1.250000000E+02  0.00000E+00  9.000E+00
      21     1     1     2   502   512  3.436250597E+01  6.321438170E+00 -3.354777714E+01  4.843754482E+01  1.066240300E-06  0.00000E+00  9.000E+00
#rwgt            1           1   2.7153860222424449E-002           9      329007           0
</event>
<event>
      5   9999  3.19816E-02  2.10199E+01 -1.00000E+00  1.64606E-01
      21    -1     0     0   502   501  0.000000000E+00  0.000000000E+00  2.416833959E+01  2.416833959E+01  0.000000000E+00  0.00000E+00  9.000E+00
       2    -1     0     0   501     0  0.000000000E+00  0.000000000E+00 -1.450194253E+03  1.450194253E+03  0.000000000E+00  0.00000E+00  9.000E+00
      25     1     1     2     0     0  1.279714041E+00  1.168289251E+02 -7.044073334E+02  7.248898721E+02  1.250000000E+02  0.00000E+00  9.000E+00
      25     1     1     2     0     0  4.842987506E+00 -9.672047233E+01 -4.487167993E+02  4.757626196E+02  1.250000000E+02  0.00000E+00  9.000E+00
       2     1     1     2   502     0 -6.122701546E+00 -2.010845278E+01 -2.729017810E+02  2.737101010E+02  0.000000000E+00  0.00000E+00  9.000E+00
#rwgt            1           1   2.5500217116174638E-002           9      329119           0
</event>
<event>
      5   9999  3.19816E-02  1.09218E+02 -1.00000E+00  1.22130E-01
      21    -1     0     0   502   501  0.000000000E+00  0.000000000E+00  4.528513209E+02  4.528513209E+02  0.000000000E+00  0.00000E+00  9.000E+00
      21    -1     0     0   501   511  0.000000000E+00  0.000000000E+00 -5.032384060E+02  5.032384060E+02  0.000000000E+00  0.00000E+00  9.000E+00
      25     1     1     2     0     0  3.167909897E+02 -2.639367150E+02  1.686799579E+02  4.627062231E+02  1.250000000E+02  0.00000E+00  9.000E+00
      25     1     1     2     0     0 -2.174380061E+02  2.185772501E+02 -1.709245885E+02  3.740260896E+02  1.250000000E+02  0.00000E+00  9.000E+00
      21     1     1     2   502   511 -9.935298363E+01  4.535946487E+01 -4.814245441E+01  1.193574142E+02  2.132480600E-06  0.00000E+00  9.000E+00
#rwgt            1           1   2.8698535599190007E-002           9      329262           0
</event>
<event>
      5   9999  3.19816E-02  5.17947E+01 -1.00000E+00  1.38207E-01
      21    -1     0     0   502   501  0.000000000E+00  0.000000000E+00  1.342527667E+03  1.342527667E+03  0.000000000E+00  0.00000E+00  9.000E+00
      21    -1     0     0   501   512  0.000000000E+00  0.000000000E+00 -4.726653313E+02  4.726653313E+02  0.000000000E+00  0.00000E+00  9.000E+00
      25     1     1     2     0     0 -4.141184072E+02  1.044962309E+02  9.827150433E+02  1.078780503E+03  1.250000000E+02  0.00000E+00  9.000E+00
      25     1     1     2     0     0  3.688940031E+02 -7.924858083E+01  1.819153695E+02  4.371284991E+02  1.250000000E+02  0.00000E+00  9.000E+00
      21     1     1     2   502   512  4.522440410E+01 -2.524765009E+01 -2.947680775E+02  2.992839957E+02  0.000000000E+00  0.00000E+00  9.000E+00
#rwgt            1           1   2.9926770367883923E-002           9      329338           0
</event>
<event>
      5   9999  3.19816E-02  1.09749E+02 -1.00000E+00  1.22038E-01
      21    -1     0     0   502   501  0.000000000E+00  0.000000000E+00  3.852739034E+02  3.852739034E+02  0.000000000E+00  0.00000E+00  9.000E+00
       2    -1     0     0   501     0  0.000000000E+00  0.000000000E+00 -4.459971040E+02  4.459971040E+02  0.000000000E+00  0.00000E+00  9.000E+00
      25     1     1     2     0     0  2.408538593E+02  1.144373760E+02 -1.401562929E+01  2.948354328E+02  1.250000000E+02  0.00000E+00  9.000E+00
      25     1     1     2     0     0 -1.606260228E+02 -1.893267610E+02  1.465114777E+02  3.142227788E+02  1.250000000E+02  0.00000E+00  9.000E+00
       2     1     1     2   502     0 -8.022783648E+01  7.488938498E+01 -1.932190490E+02  2.222127958E+02  2.697398305E-06  0.00000E+00  9.000E+00
#rwgt            1           1   3.0847202851921406E-002           9      329431           0
</event>
<event>
      5   9999  3.19816E-02  2.85645E+01 -1.00000E+00  1.54534E-01
      21    -1     0     0   511   501  0.000000000E+00  0.000000000E+00  3.287712719E+02  3.287712719E+02  0.000000000E+00  0.00000E+00  9.000E+00
      21    -1     0     0   501   502  0.000000000E+00  0.000000000E+00 -1.703974125E+02  1.703974125E+02  0.000000000E+00  0.00000E+00  9.000E+00
      25     1     1     2     0     0 -1.650139698E+02  4.309788054E+01  5.952208612E+01  2.196700168E+02  1.250000000E+02  0.00000E+00  9.000E+00
      25     1     1     2     0     0  1.890762477E+02 -2.770511116E+01  6.984904058E+01  2.387913086E+02  1.250000000E+02  0.00000E+00  9.000E+00
      21     1     1     2   511   502 -2.406227783E+01 -1.539276938E+01  2.900273277E+01  4.070735894E+01  8.920806376E-07  0.00000E+00  9.000E+00
#rwgt            1           1   2.5589974685875337E-002           9      329484           0
</event>
<event>
      5   9999  3.19816E-02  2.05697E+01 -1.00000E+00  1.65369E-01
      21    -1     0     0   512   501  0.000000000E+00  0.000000000E+00  1.968521026E+03  1.968521026E+03  0.000000000E+00  0.00000E+00  9.000E+00
      21    -1     0     0   501   502  0.000000000E+00  0.000000000E+00 -6.737942103E+01  6.737942103E+01  0.000000000E+00  0.00000E+00  9.000E+00
      25     1     1     2     0     0  2.641640600E+02 -1.009099601E+02  1.200342315E+03  1.239520933E+03  1.250000000E+02  0.00000E+00  9.000E+00
      25     1     1     2     0     0 -2.683025070E+02  1.210590337E+02  4.934543890E+02  5.880168016E+02  1.250000000E+02  0.00000E+00  9.000E+00
      21     1     1     2   512   502  4.138447050E+00 -2.014907359E+01  2.073449014E+02  2.083627127E+02  2.697398305E-06  0.00000E+00  9.000E+00
#rwgt            1           1   4.6452017714139669E-002           9      329561           0
</event>
<event>
      5   9999  3.19816E-02  3.27618E+01 -1.00000E+00  1.50430E-01
      21    -1     0     0   502   501  0.000000000E+00  0.000000000E+00  1.117230763E+03  1.117230763E+03  0.000000000E+00  0.00000E+00  9.000E+00
      21    -1     0     0   511   502  0.000000000E+00  0.000000000E+00 -1.626418756E+03  1.626418756E+03  0.000000000E+00  0.00000E+00  9.000E+00
      25     1     1     2     0     0 -6.181390748E+02  2.646433290E+02 -8.681008836E+02  1.105149832E+03  1.250000000E+02  0.00000E+00  9.000E+00
      25     1     1     2     0     0  6.507820618E+02 -2.618556625E+02  8.710241107E+02  1.125341584E+03  1.250000000E+02  0.00000E+00  9.000E+00
      21     1     1     2   511   501 -3.264298704E+01 -2.787666472E+00 -5.121112208E+02  5.131581025E+02  7.629394531E-06  0.00000E+00  9.000E+00
#rwgt            1           1   2.6100518297651320E-002           9      329753           0
</event>
<event>
      5   9999  3.19816E-02  2.45520E+01 -1.00000E+00  1.59341E-01
      21    -1     0     0   502   501  0.000000000E+00  0.000000000E+00  4.865175228E+01  4.865175228E+01  0.000000000E+00  0.00000E+00  9.000E+00
      21    -1     0     0   501   512  0.000000000E+00  0.000000000E+00 -5.237019887E+02  5.237019887E+02  0.000000000E+00  0.00000E+00  9.000E+00
      25     1     1     2     0     0 -8.716542480E+00 -8.337141700E+01 -1.803951489E+02  2.349344186E+02  1.250000000E+02  0.00000E+00  9.000E+00
      25     1     1     2     0     0  1.239441458E+01  5.909645386E+01 -2.354791525E+02  2.733522337E+02  1.250000000E+02  0.00000E+00  9.000E+00
      21     1     1     2   502   512 -3.677872100E+00  2.427496314E+01 -5.917593502E+01  6.406708877E+01  9.536743164E-07  0.00000E+00  9.000E+00
#rwgt            1           1   3.3504262524223567E-002           9      329921           0
</event>
<event>
      5   9999  3.19816E-02  6.45042E+01 -1.00000E+00  1.33045E-01
      21    -1     0     0   502   501  0.000000000E+00  0.000000000E+00  1.523558825E+02  1.523558825E+02  0.000000000E+00  0.00000E+00  9.000E+00
       1    -1     0     0   501     0  0.000000000E+00  0.000000000E+00 -1.707948399E+03  1.707948399E+03  0.000000000E+00  0.00000E+00  9.000E+00
      25     1     1     2     0     0 -3.234952785E+02 -1.818820141E+02 -6.742118125E+02  7.796902144E+02  1.250000000E+02  0.00000E+00  9.000E+00
      25     1     1     2     0     0  2.607586317E+02  1.968787235E+02 -2.139385436E+02  4.100621858E+02  1.250000000E+02  0.00000E+00  9.000E+00
       1     1     1     2   502     0  6.273664680E+01 -1.499670941E+01 -6.674421603E+02  6.705518813E+02  1.078959322E-05  0.00000E+00  9.000E+00
#rwgt            1           1   2.7399157980232798E-002           9      330021           0
</event>
<event>
      5   9999  3.19816E-02  4.52503E+01 -1.00000E+00  1.41595E-01
      21    -1     0     0   511   501  0.000000000E+00  0.000000000E+00  2.644526421E+02  2.644526421E+02  0.000000000E+00  0.00000E+00  9.000E+00
      21    -1     0     0   501   502  0.000000000E+00  0.000000000E+00 -1.381217972E+02  1.381217972E+02  0.000000000E+00  0.00000E+00  9.000E+00
      25     1     1     2     0     0 -6.085136318E+01  2.893530425E+01 -5.487883601E+01  1.522393736E+02  1.250000000E+02  0.00000E+00  9.000E+00
      25     1     1     2     0     0  2.462761237E+01 -1.816464959E+00  1.363288414E+02  1.866021753E+02  1.250000000E+02  0.00000E+00  9.000E+00
      21     1     1     2   511   502  3.622375081E+01 -2.711883929E+01  4.488083945E+01  6.373289038E+01  4.768371582E-07  0.00000E+00  9.000E+00
#rwgt            1           1   2.6943069421475722E-002           9      330086           0
</event>
<event>
      5   9999  3.19816E-02  9.73780E+01 -1.00000E+00  1.24349E-01
      21    -1     0     0   502   501  0.000000000E+00  0.000000000E+00  9.567390999E+02  9.567390999E+02  0.000000000E+00  0.00000E+00  9.000E+00
       1    -1     0     0   501     0  0.000000000E+00  0.000000000E+00 -3.088641942E+03  3.088641942E+03  0.000000000E+00  0.00000E+00  9.000E+00
      25     1     1     2     0     0  3.459844795E+01 -2.591598787E+02  5.266310069E+02  6.011040782E+02  1.250000000E+02  0.00000E+00  9.000E+00
      25     1     1     2     0     0 -3.795840474E+01  3.564798980E+02  3.001586568E+02  4.839824143E+02  1.250000000E+02  0.00000E+00  9.000E+00
       1     1     1     2   502     0  3.359956793E+00 -9.732001928E+01 -2.958692506E+03  2.960294550E+03  0.000000000E+00  0.00000E+00  9.000E+00
#rwgt            1           1   2.8359551378015591E-002           9      330146           0
</event>
<event>
      5   9999  3.19816E-02  6.87191E+01 -1.00000E+00  1.31628E-01
      21    -1     0     0   502   501  0.000000000E+00  0.000000000E+00  1.272486135E+03  1.272486135E+03  0.000000000E+00  0.00000E+00  9.000E+00
      21    -1     0     0   501   511  0.000000000E+00  0.000000000E+00 -1.409876327E+02  1.409876327E+02  0.000000000E+00  0.00000E+00  9.000E+00
      25     1     1     2     0     0 -2.017716014E+02 -2.147874849E+02  3.285146702E+02  4.586854384E+02  1.250000000E+02  0.00000E+00  9.000E+00
      25     1     1     2     0     0  2.173671668E+02  2.817134710E+02  8.017882229E+02  8.860588690E+02  1.250000000E+02  0.00000E+00  9.000E+00
      21     1     1     2   502   511 -1.559556534E+01 -6.692598605E+01  1.195609345E+00  6.872946056E+01  6.369265995E-07  0.00000E+00  9.000E+00
#rwgt            1           1   3.0906773467826391E-002           9      330191           0
</event>
<event>
      5   9999  3.19816E-02  6.08272E+01 -1.00000E+00  1.34386E-01
      21    -1     0     0   502   501  0.000000000E+00  0.000000000E+00  1.500016566E+02  1.500016566E+02  0.000000000E+00  0.00000E+00  9.000E+00
      21    -1     0     0   512   502  0.000000000E+00  0.000000000E+00 -5.630139994E+02  5.630139994E+02  0.000000000E+00  0.00000E+00  9.000E+00
      25     1     1     2     0     0  6.459266655E+01  9.302016612E+01 -2.065841573E+02  2.666964153E+02  1.250000000E+02  0.00000E+00  9.000E+00
      25     1     1     2     0     0 -4.780149133E+00 -1.040838573E+02  5.969398034E+01  1.733339853E+02  1.250000000E+02  0.00000E+00  9.000E+00
      21     1     1     2   512   501 -5.981251742E+01  1.106369113E+01 -2.661221659E+02  2.729852555E+02  3.814697266E-06  0.00000E+00  9.000E+00
#rwgt            1           1   2.6249920995130824E-002           9      330336           0
</event>
<event>
      5   9999  3.19816E-02  2.43874E+01 -1.00000E+00  1.59562E-01
      21    -1     0     0   502   501  0.000000000E+00  0.000000000E+00  1.799965172E+02  1.799965172E+02  0.000000000E+00  0.00000E+00  9.000E+00
      21    -1     0     0   501   511  0.000000000E+00  0.000000000E+00 -6.433930645E+02  6.433930645E+02  0.000000000E+00  0.00000E+00  9.000E+00
      25     1     1     2     0     0  8.324941620E+01 -1.273217733E+02  8.614652018E+01  2.149128246E+02  1.250000000E+02  0.00000E+00  9.000E+00
      25     1     1     2     0     0 -1.048103278E+02  1.387178256E+02 -3.716906534E+02  4.289601168E+02  1.250000000E+02  0.00000E+00  9.000E+00
      21     1     1     2   502   511  2.156091163E+01 -1.139605232E+01 -1.778524141E+02  1.795166402E+02  3.303624740E-06  0.00000E+00  9.000E+00
#rwgt            1           1   2.9909717792815333E-002           9      330427           0
</event>
<event>
      5   9999  3.19816E-02  1.72268E+02 -1.00000E+00  1.14060E-01
      21    -1     0     0   512   501  0.000000000E+00  0.000000000E+00  6.618184155E+02  6.618184155E+02  0.000000000E+00  0.00000E+00  9.000E+00
      21    -1     0     0   501   502  0.000000000E+00  0.000000000E+00 -1.576748461E+03  1.576748461E+03  0.000000000E+00  0.00000E+00  9.000E+00
      25     1     1     2     0     0  5.701218597E+02 -3.843982990E+02 -9.350071328E+02  1.167332140E+03  1.250000000E+02  0.00000E+00  9.000E+00
      25     1     1     2     0     0 -6.335936072E+02  5.445472532E+02 -1.147132027E+02  8.525002575E+02  1.250000000E+02  0.00000E+00  9.000E+00
      21     1     1     2   512   502  6.347174757E+01 -1.601489542E+02  1.347902896E+02  2.187344793E+02  3.814697266E-06  0.00000E+00  9.000E+00
#rwgt            1           1   3.4671530078062285E-002           9      330607           0
</event>
<event>
      5   9999  3.19816E-02  8.86553E+00 -1.00000E+00  2.02003E-01
      21    -1     0     0   502   501  0.000000000E+00  0.000000000E+00  2.669841067E+03  2.669841067E+03  0.000000000E+00  0.00000E+00  9.000E+00
      21    -1     0     0   501   511  0.000000000E+00  0.000000000E+00 -9.691530149E+01  9.691530149E+01  0.000000000E+00  0.00000E+00  9.000E+00
      25     1     1     2     0     0  1.092995761E+02 -6.258798484E+01  4.793697119E+01  1.838113337E+02  1.250000000E+02  0.00000E+00  9.000E+00
      25     1     1     2     0     0 -1.170464267E+02  5.827707567E+01  2.550000624E+03  2.556408470E+03  1.250000000E+02  0.00000E+00  9.000E+00
      21     1     1     2   502   511  7.746850560E+00  4.310909168E+00 -2.501182979E+01  2.653656461E+01  0.000000000E+00  0.00000E+00  9.000E+00
#rwgt            1           1   6.4619365630842709E-002           9      330724           0
</event>
<event>
      5   9999  3.19816E-02  6.36696E+01 -1.00000E+00  1.33340E-01
      21    -1     0     0   502   501  0.000000000E+00  0.000000000E+00  1.517618469E+02  1.517618469E+02  0.000000000E+00  0.00000E+00  9.000E+00
      -5    -1     0     0     0   502  0.000000000E+00  0.000000000E+00 -1.524537767E+03  1.524537767E+03  0.000000000E+00  0.00000E+00  9.000E+00
      25     1     1     2     0     0 -1.272827585E+02 -2.345524328E+02 -5.145918788E+02  5.929970878E+02  1.250000000E+02  0.00000E+00  9.000E+00
      25     1     1     2     0     0  1.875574892E+02  2.550650759E+02 -1.495060757E+02  3.717701862E+02  1.250000000E+02  0.00000E+00  9.000E+00
      -5     1     1     2     0   501 -6.027473070E+01 -2.051264312E+01 -7.086779659E+02  7.115323401E+02  7.629394531E-06  0.00000E+00  9.000E+00
#rwgt            1           1   2.8729967055024973E-002           9      330987           0
</event>
<event>
      5   9999  3.19816E-02  8.25742E+01 -1.00000E+00  1.27687E-01
      21    -1     0     0   502   501  0.000000000E+00  0.000000000E+00  6.712346995E+02  6.712346995E+02  0.000000000E+00  0.00000E+00  9.000E+00
      21    -1     0     0   511   502  0.000000000E+00  0.000000000E+00 -2.267635956E+02  2.267635956E+02  0.000000000E+00  0.00000E+00  9.000E+00
      25     1     1     2     0     0 -6.003247260E+01 -5.229426894E+00  8.349944280E+01  1.619518497E+02  1.250000000E+02  0.00000E+00  9.000E+00
      25     1     1     2     0     0  1.203346078E+02 -5.118110398E+01  5.234291789E+02  5.538077541E+02  1.250000000E+02  0.00000E+00  9.000E+00
      21     1     1     2   511   501 -6.030213519E+01  5.641053088E+01 -1.624575178E+02  1.822386913E+02  3.814697266E-06  0.00000E+00  9.000E+00
#rwgt            1           1   2.9957099828808436E-002           9      331052           0
</event>
<event>
      5   9999  3.19816E-02  1.97329E+02 -1.00000E+00  1.11861E-01
      21    -1     0     0   512   501  0.000000000E+00  0.000000000E+00  1.592593663E+02  1.592593663E+02  0.000000000E+00  0.00000E+00  9.000E+00
      21    -1     0     0   501   502  0.000000000E+00  0.000000000E+00 -7.889357423E+02  7.889357423E+02  0.000000000E+00  0.00000E+00  9.000E+00
      25     1     1     2     0     0 -2.214958167E+02  9.225897844E+00 -2.614777659E+02  3.648850999E+02  1.250000000E+02  0.00000E+00  9.000E+00
      25     1     1     2     0     0  1.412817736E+02  1.710643109E+02 -1.947483873E+02  3.205861388E+02  1.250000000E+02  0.00000E+00  9.000E+00
      21     1     1     2   512   502  8.021404310E+01 -1.802902087E+02 -1.734502228E+02  2.627238700E+02  2.697398305E-06  0.00000E+00  9.000E+00
#rwgt            1           1   2.6537245246960845E-002           9      331102           0
</event>
<event>
      5   9999  3.19816E-02  9.44703E+01 -1.00000E+00  1.24949E-01
      21    -1     0     0   502   501  0.000000000E+00  0.000000000E+00  4.635510858E+02  4.635510858E+02  0.000000000E+00  0.00000E+00  9.000E+00
      21    -1     0     0   511   502  0.000000000E+00  0.000000000E+00 -3.838035975E+02  3.838035975E+02  0.000000000E+00  0.00000E+00  9.000E+00
      25     1     1     2     0     0  2.410459179E+02  9.477891818E+01  2.278497409E+02  3.669150887E+02  1.250000000E+02  0.00000E+00  9.000E+00
      25     1     1     2     0     0 -1.940875837E+02 -1.767517716E+02  1.588779256E+01  2.911848225E+02  1.250000000E+02  0.00000E+00  9.000E+00
      21     1     1     2   511   501 -4.695833418E+01  8.197285340E+01 -1.639900451E+02  1.892547721E+02  1.907348633E-06  0.00000E+00  9.000E+00
#rwgt            1           1   2.7838360370040678E-002           9      331148           0
</event>
<event>
      5   9999  3.19816E-02  2.48580E+02 -1.00000E+00  1.08315E-01
      21    -1     0     0   502   501  0.000000000E+00  0.000000000E+00  1.145868763E+03  1.145868763E+03  0.000000000E+00  0.00000E+00  9.000E+00
      21    -1     0     0   512   502  0.000000000E+00  0.000000000E+00 -5.127990544E+02  5.127990544E+02  0.000000000E+00  0.00000E+00  9.000E+00
      25     1     1     2     0     0 -4.441941054E+01 -3.527026459E+02 -2.289771718E+02  4.409396622E+02  1.250000000E+02  0.00000E+00  9.000E+00
      25     1     1     2     0     0  2.677768600E+02  4.618048197E+02  7.849537925E+02  9.574683256E+02  1.250000000E+02  0.00000E+00  9.000E+00
      21     1     1     2   512   501 -2.233574495E+02 -1.091021738E+02  7.709308758E+01  2.602598292E+02  3.814697266E-06  0.00000E+00  9.000E+00
#rwgt            2          11   5.0802464765929483E-003           9      331431           0
</event>
<event>
      5   9999  3.19816E-02  5.54334E+01 -1.00000E+00  1.36567E-01
      21    -1     0     0   502   501  0.000000000E+00  0.000000000E+00  9.905783560E+02  9.905783560E+02  0.000000000E+00  0.00000E+00  9.000E+00
      21    -1     0     0   501   511  0.000000000E+00  0.000000000E+00 -1.458307249E+02  1.458307249E+02  0.000000000E+00  0.00000E+00  9.000E+00
      25     1     1     2     0     0  5.782862034E+01  1.097933028E+02  4.141865651E+01  1.809398347E+02  1.250000000E+02  0.00000E+00  9.000E+00
      25     1     1     2     0     0 -5.202785951E+01 -1.649223826E+02  8.540683420E+02  8.803204094E+02  1.250000000E+02  0.00000E+00  9.000E+00
      21     1     1     2   502   511 -5.800760826E+00  5.512907981E+01 -5.073936739E+01  7.514883679E+01  6.743495762E-07  0.00000E+00  9.000E+00
#rwgt            1           1   2.9242445742402621E-002           9      331466           0
</event>
<event>
      5   9999  3.19816E-02  6.66132E+01 -1.00000E+00  1.32321E-01
      21    -1     0     0   502   512  0.000000000E+00  0.000000000E+00  9.738578562E+02  9.738578562E+02  0.000000000E+00  0.00000E+00  9.000E+00
      21    -1     0     0   501   502  0.000000000E+00  0.000000000E+00 -7.729619876E+02  7.729619876E+02  0.000000000E+00  0.00000E+00  9.000E+00
      25     1     1     2     0     0  4.482571750E+02 -3.963287532E+02 -4.913117224E+02  7.842341386E+02  1.250000000E+02  0.00000E+00  9.000E+00
      25     1     1     2     0     0 -3.877625219E+02  3.684412303E+02  4.461198295E+02  7.076415872E+02  1.250000000E+02  0.00000E+00  9.000E+00
      21     1     1     2   501   512 -6.049465311E+01  2.788752289E+01  2.460877614E+02  2.549441180E+02  2.697398305E-06  0.00000E+00  9.000E+00
#rwgt            1           1   2.7851860199124577E-002           9      331567           0
</event>
<event>
      5   9999  3.19816E-02  1.28699E+02 -1.00000E+00  1.19092E-01
      21    -1     0     0   502   511  0.000000000E+00  0.000000000E+00  2.005446928E+02  2.005446928E+02  0.000000000E+00  0.00000E+00  9.000E+00
      21    -1     0     0   501   502  0.000000000E+00  0.000000000E+00 -6.771667838E+02  6.771667838E+02  0.000000000E+00  0.00000E+00  9.000E+00
      25     1     1     2     0     0 -8.616705830E+01  3.687040398E+01 -4.453568626E+02  4.719660196E+02  1.250000000E+02  0.00000E+00  9.000E+00
      25     1     1     2     0     0  1.701057302E+02 -1.344293782E+02 -8.774215879E+01  2.651997429E+02  1.250000000E+02  0.00000E+00  9.000E+00
      21     1     1     2   501   511 -8.393867190E+01  9.755897426E+01  5.647693030E+01  1.405457141E+02  9.536743164E-07  0.00000E+00  9.000E+00
#rwgt            1           1   2.6706455786576551E-002           9      331657           0
</event>
<event>
      5   9999  3.19816E-02  2.77434E+01 -1.00000E+00  1.55437E-01
      21    -1     0     0   502   501  0.000000000E+00  0.000000000E+00  1.455338967E+02  1.455338967E+02  0.000000000E+00  0.00000E+00  9.000E+00
       2    -1     0     0   501     0  0.000000000E+00  0.000000000E+00 -2.045280555E+03  2.045280555E+03  0.000000000E+00  0.00000E+00  9.000E+00
      25     1     1     2     0     0  9.112427452E+01 -1.927571936E+01 -2.757847438E+02  3.167923794E+02  1.250000000E+02  0.00000E+00  9.000E+00
      25     1     1     2     0     0 -1.093652092E+02  4.017938837E+01  6.647683975E+01  1.833556720E+02  1.250000000E+02  0.00000E+00  9.000E+00
       2     1     1     2   502     0  1.824093466E+01 -2.090366901E+01 -1.690438754E+03  1.690666400E+03  0.000000000E+00  0.00000E+00  9.000E+00
#rwgt            1           1   2.7093025162166544E-002           9      331714           0
</event>
<event>
      5   9999  3.19816E-02  8.56500E+00 -1.00000E+00  2.03869E-01
      21    -1     0     0   502   501  0.000000000E+00  0.000000000E+00  1.714561405E+02  1.714561405E+02  0.000000000E+00  0.00000E+00  9.000E+00
      21    -1     0     0   501   511  0.000000000E+00  0.000000000E+00 -5.025138619E+02  5.025138619E+02  0.000000000E+00  0.00000E+00  9.000E+00
      25     1     1     2     0     0  7.383245978E+01 -1.630387376E+01  1.254851816E+02  1.925839537E+02  1.250000000E+02  0.00000E+00  9.000E+00
      25     1     1     2     0     0 -6.985603144E+01  8.717879248E+00 -4.393318182E+02  4.621615660E+02  1.250000000E+02  0.00000E+00  9.000E+00
      21     1     1     2   502   511 -3.976428335E+00  7.585994511E+00 -1.721108482E+01  1.922448272E+01  3.371747881E-07  0.00000E+00  9.000E+00
#rwgt            1           1   2.4484605396372740E-002           9      331815           0
</event>
<event>
      5   9999  3.19816E-02  1.62527E+02 -1.00000E+00  1.15030E-01
      21    -1     0     0   512   501  0.000000000E+00  0.000000000E+00  7.021178339E+02  7.021178339E+02  0.000000000E+00  0.00000E+00  9.000E+00
      21    -1     0     0   501   502  0.000000000E+00  0.000000000E+00 -3.653522802E+02  3.653522802E+02  0.000000000E+00  0.00000E+00  9.000E+00
      25     1     1     2     0     0 -3.395735327E+01  1.121008255E+02 -2.749354173E+02  3.239354575E+02  1.250000000E+02  0.00000E+00  9.000E+00
      25     1     1     2     0     0 -9.901911812E+01 -2.055481807E+02  3.742939909E+02  4.558243433E+02  1.250000000E+02  0.00000E+00  9.000E+00
      21     1     1     2   512   502  1.329764714E+02  9.344735521E+01  2.374069801E+02  2.877103132E+02  2.697398305E-06  0.00000E+00  9.000E+00
#rwgt            1           1   3.1060810326127508E-002           9      332060           0
</event>
<event>
      5   9999  3.19816E-02  1.30233E+02 -1.00000E+00  1.18879E-01
      21    -1     0     0   502   511  0.000000000E+00  0.000000000E+00  1.106381385E+03  1.106381385E+03  0.000000000E+00  0.00000E+00  9.000E+00
      21    -1     0     0   501   502  0.000000000E+00  0.000000000E+00 -3.662836986E+02  3.662836986E+02  0.000000000E+00  0.00000E+00  9.000E+00
      25     1     1     2     0     0  3.918925386E+02  2.502053945E+02 -2.794935350E+01  4.822744733E+02  1.250000000E+02  0.00000E+00  9.000E+00
      25     1     1     2     0     0 -3.696322756E+02 -1.218885548E+02  3.068061684E+02  5.111162920E+02  1.250000000E+02  0.00000E+00  9.000E+00
      21     1     1     2   501   511 -2.226026298E+01 -1.283168397E+02  4.612408718E+02  4.792743186E+02  0.000000000E+00  0.00000E+00  9.000E+00
#rwgt            1           1   2.9986439055823953E-002           9      332098           0
</event>
<event>
      5   9999  3.19816E-02  3.44632E+01 -1.00000E+00  1.48971E-01
      21    -1     0     0   512   501  0.000000000E+00  0.000000000E+00  8.450214730E+02  8.450214730E+02  0.000000000E+00  0.00000E+00  9.000E+00
      21    -1     0     0   501   502  0.000000000E+00  0.000000000E+00 -3.879921304E+02  3.879921304E+02  0.000000000E+00  0.00000E+00  9.000E+00
      25     1     1     2     0     0 -3.260328404E+01 -4.080502823E+02 -8.978339345E+01  4.373260394E+02  1.250000000E+02  0.00000E+00  9.000E+00
      25     1     1     2     0     0  4.561767820E+01  3.761389023E+02  1.984252145E+02  4.455996097E+02  1.250000000E+02  0.00000E+00  9.000E+00
      21     1     1     2   512   502 -1.301439416E+01  3.191138000E+01  3.483875215E+02  3.500879543E+02  0.000000000E+00  0.00000E+00  9.000E+00
#rwgt            1           1   2.5377637423499227E-002           9      332169           0
</event>
<event>
      5   9999  3.19816E-02  1.25621E+02 -1.00000E+00  1.19530E-01
      21    -1     0     0   511   501  0.000000000E+00  0.000000000E+00  7.639759037E+01  7.639759037E+01  0.000000000E+00  0.00000E+00  9.000E+00
      21    -1     0     0   501   502  0.000000000E+00  0.000000000E+00 -1.328146469E+03  1.328146469E+03  0.000000000E+00  0.00000E+00  9.000E+00
      25     1     1     2     0     0  1.004475547E+02 -1.237525632E+02 -2.526695799E+02  3.238384238E+02  1.250000000E+02  0.00000E+00  9.000E+00
      25     1     1     2     0     0 -2.254356468E+02  1.111568257E+02 -7.678735064E+02  8.175767808E+02  1.250000000E+02  0.00000E+00  9.000E+00
      21     1     1     2   511   502  1.249880922E+02  1.259573744E+01 -2.312057928E+02  2.631288551E+02  5.394796609E-06  0.00000E+00  9.000E+00
#rwgt            2          11   2.9912485965138081E-003           9      332368           0
</event>
<event>
      5   9999  3.19816E-02  9.91614E+01 -1.00000E+00  1.23993E-01
      21    -1     0     0   502   501  0.000000000E+00  0.000000000E+00  4.061810874E+02  4.061810874E+02  0.000000000E+00  0.00000E+00  9.000E+00
      21    -1     0     0   512   502  0.000000000E+00  0.000000000E+00 -2.055934266E+03  2.055934266E+03  0.000000000E+00  0.00000E+00  9.000E+00
      25     1     1     2     0     0  5.022870391E+02  5.887267354E+02 -1.158423539E+03  1.398735692E+03  1.250000000E+02  0.00000E+00  9.000E+00
      25     1     1     2     0     0 -5.778891758E+02 -5.245605496E+02 -2.954340266E+02  8.438162914E+02  1.250000000E+02  0.00000E+00  9.000E+00
      21     1     1     2   512   501  7.560213669E+01 -6.416618577E+01 -1.958956125E+02  2.195633700E+02  0.000000000E+00  0.00000E+00  9.000E+00
#rwgt            1           1   3.7338350172525465E-002           9      332388           0
</event>
<event>
      5   9999  3.19816E-02  2.51843E+02 -1.00000E+00  1.08121E-01
      21    -1     0     0   511   501  0.000000000E+00  0.000000000E+00  4.744831730E+02  4.744831730E+02  0.000000000E+00  0.00000E+00  9.000E+00
      21    -1     0     0   501   502  0.000000000E+00  0.000000000E+00 -8.801677166E+02  8.801677166E+02  0.000000000E+00  0.00000E+00  9.000E+00
      25     1     1     2     0     0 -4.496563371E+02 -3.383911046E+02 -4.687258723E+02  7.429860729E+02  1.250000000E+02  0.00000E+00  9.000E+00
      25     1     1     2     0     0  2.605109650E+02  1.721118018E+02 -4.172108512E+01  3.389012897E+02  1.250000000E+02  0.00000E+00  9.000E+00
      21     1     1     2   511   502  1.891453721E+02  1.662793027E+02  1.047624138E+02  2.727635270E+02  4.046097457E-06  0.00000E+00  9.000E+00
#rwgt            2          11   3.8211256738231655E-003           9      332542           0
</event>
<event>
      5   9999  3.19816E-02  8.21851E+01 -1.00000E+00  1.27786E-01
       2    -1     0     0   502     0  0.000000000E+00  0.000000000E+00  4.017367222E+03  4.017367222E+03  0.000000000E+00  0.00000E+00  9.000E+00
      21    -1     0     0   501   502  0.000000000E+00  0.000000000E+00 -3.509462963E+01  3.509462963E+01  0.000000000E+00  0.00000E+00  9.000E+00
      25     1     1     2     0     0  6.933930294E+01  5.478187499E+01  1.597188680E+02  2.212331566E+02  1.250000000E+02  0.00000E+00  9.000E+00
      25     1     1     2     0     0 -1.142748625E+01 -1.130966525E+02  2.942162097E+03  2.947009373E+03  1.250000000E+02  0.00000E+00  9.000E+00
       2     1     1     2   501     0 -5.791181669E+01  5.831477754E+01  8.803916271E+02  8.842193217E+02  1.078959322E-05  0.00000E+00  9.000E+00
#rwgt            1           1   3.0003154517596699E-002           9      332562           0
</event>
<event>
      5   9999  3.19816E-02  2.54494E+01 -1.00000E+00  1.58174E-01
      21    -1     0     0   502   501  0.000000000E+00  0.000000000E+00  3.015722035E+03  3.015722035E+03  0.000000000E+00  0.00000E+00  9.000E+00
      21    -1     0     0   511   502  0.000000000E+00  0.000000000E+00 -9.397658354E+02  9.397658354E+02  0.000000000E+00  0.00000E+00  9.000E+00
      25     1     1     2     0     0  3.710160418E+02 -2.085243286E+01  1.090870327E+03  1.159185403E+03  1.250000000E+02  0.00000E+00  9.000E+00
      25     1     1     2     0     0 -3.600580234E+02  4.382181275E+01  1.871047518E+03  1.909975379E+03  1.250000000E+02  0.00000E+00  9.000E+00
      21     1     1     2   511   501 -1.095801840E+01 -2.296937989E+01 -8.859616459E+02  8.863270890E+02  0.000000000E+00  0.00000E+00  9.000E+00
#rwgt            1           1   3.7476792391913885E-002           9      332628           0
</event>
<event>
      5   9999  3.19816E-02  5.35427E+01 -1.00000E+00  1.37400E-01
      21    -1     0     0   512   501  0.000000000E+00  0.000000000E+00  3.480197182E+02  3.480197182E+02  0.000000000E+00  0.00000E+00  9.000E+00
      21    -1     0     0   501   502  0.000000000E+00  0.000000000E+00 -1.468046576E+03  1.468046576E+03  0.000000000E+00  0.00000E+00  9.000E+00
      25     1     1     2     0     0 -1.845596785E+02  5.224002796E+02 -5.312125476E+02  7.776735162E+02  1.250000000E+02  0.00000E+00  9.000E+00
      25     1     1     2     0     0  2.377779454E+02 -5.165146277E+02 -7.027022286E+02  9.125465106E+02  1.250000000E+02  0.00000E+00  9.000E+00
      21     1     1     2   512   502 -5.321826692E+01 -5.885651856E+00  1.138879189E+02  1.258462670E+02  0.000000000E+00  0.00000E+00  9.000E+00
#rwgt            1           1   3.7315256664169731E-002           9      332822           0
</event>
<event>
      5   9999  3.19816E-02  7.89546E+00 -1.00000E+00  2.08420E-01
      21    -1     0     0   502   511  0.000000000E+00  0.000000000E+00  9.830639345E+01  9.830639345E+01  0.000000000E+00  0.00000E+00  9.000E+00
      21    -1     0     0   501   502  0.000000000E+00  0.000000000E+00 -2.891127784E+02  2.891127784E+02  0.000000000E+00  0.00000E+00  9.000E+00
      25     1     1     2     0     0  1.284997826E+00 -4.104138174E+00 -2.178640729E+02  2.512135535E+02  1.250000000E+02  0.00000E+00  9.000E+00
      25     1     1     2     0     0  1.793623903E+00 -3.166380657E+00  2.241392916E+01  1.270457684E+02  1.250000000E+02  0.00000E+00  9.000E+00
      21     1     1     2   501   511 -3.078621730E+00  7.270518831E+00  4.643758809E+00  9.159849982E+00  8.429369702E-08  0.00000E+00  9.000E+00
#rwgt            1           1   2.1693127878986376E-002           9      332891           0
</event>
<event>
      5   9999  3.19816E-02  1.49842E+02 -1.00000E+00  1.16412E-01
      21    -1     0     0   502   501  0.000000000E+00  0.000000000E+00  5.716032883E+02  5.716032883E+02  0.000000000E+00  0.00000E+00  9.000E+00
      -2    -1     0     0     0   502  0.000000000E+00  0.000000000E+00 -5.064623429E+02  5.064623429E+02  0.000000000E+00  0.00000E+00  9.000E+00
      25     1     1     2     0     0  2.734868970E+01  9.625703519E+01  2.946756720E+02  3.353686320E+02  1.250000000E+02  0.00000E+00  9.000E+00
      25     1     1     2     0     0 -1.761163178E+02 -1.141715431E+02  1.820644124E+02  3.046712145E+02  1.250000000E+02  0.00000E+00  9.000E+00
      -2     1     1     2     0   501  1.487676281E+02  1.791450787E+01 -4.115991391E+02  4.380257847E+02  5.394796609E-06  0.00000E+00  9.000E+00
#rwgt            1           1   2.6461506801250728E-002           9      333097           0
</event>
<event>
      5   9999  3.19816E-02  4.20499E+02 -1.00000E+00  1.01037E-01
       1    -1     0     0   502     0  0.000000000E+00  0.000000000E+00  2.730238572E+03  2.730238572E+03  0.000000000E+00  0.00000E+00  9.000E+00
      21    -1     0     0   501   502  0.000000000E+00  0.000000000E+00 -1.197400423E+02  1.197400423E+02  0.000000000E+00  0.00000E+00  9.000E+00
      25     1     1     2     0     0  1.006002211E+01  9.087249507E+00  5.188941887E+02  5.339100685E+02  1.250000000E+02  0.00000E+00  9.000E+00
      25     1     1     2     0     0  1.237796496E+02 -4.077177534E+02  4.948479373E+02  6.648719043E+02  1.250000000E+02  0.00000E+00  9.000E+00
       1     1     1     2   501     0 -1.338396717E+02  3.986305039E+02  1.596756403E+03  1.651196641E+03  2.157918644E-05  0.00000E+00  9.000E+00
#rwgt            1           1   2.7243202260760695E-002           9      333154           0
</event>
<event>
      5   9999  3.19816E-02  6.60323E+01 -1.00000E+00  1.32517E-01
      21    -1     0     0   502   511  0.000000000E+00  0.000000000E+00  7.456469034E+02  7.456469034E+02  0.000000000E+00  0.00000E+00  9.000E+00
      21    -1     0     0   501   502  0.000000000E+00  0.000000000E+00 -9.913461997E+02  9.913461997E+02  0.000000000E+00  0.00000E+00  9.000E+00
      25     1     1     2     0     0 -1.757769697E+02  6.207807770E+02 -3.337167591E+02  7.370605073E+02  1.250000000E+02  0.00000E+00  9.000E+00
      25     1     1     2     0     0  1.264086158E+02 -5.769283924E+02 -2.515465438E+02  6.540077765E+02  1.250000000E+02  0.00000E+00  9.000E+00
      21     1     1     2   501   511  4.936835396E+01 -4.385238464E+01  3.395640065E+02  3.459248192E+02  0.000000000E+00  0.00000E+00  9.000E+00
#rwgt            1           1   3.0843595597866588E-002           9      333191           0
</event>
<event>
      5   9999  3.19816E-02  1.08581E+02 -1.00000E+00  1.22241E-01
      21    -1     0     0   502   501  0.000000000E+00  0.000000000E+00  3.329772508E+02  3.329772508E+02  0.000000000E+00  0.00000E+00  9.000E+00
       2    -1     0     0   501     0  0.000000000E+00  0.000000000E+00 -1.418321563E+03  1.418321563E+03  0.000000000E+00  0.00000E+00  9.000E+00
      25     1     1     2     0     0  1.371918525E+02 -9.167916032E+01 -4.374808448E+02  4.839846716E+02  1.250000000E+02  0.00000E+00  9.000E+00
      25     1     1     2     0     0 -5.549826738E+01  2.015287962E+01  2.910130648E+02  3.221797637E+02  1.250000000E+02  0.00000E+00  9.000E+00
       2     1     1     2   502     0 -8.169358512E+01  7.152628070E+01 -9.388765325E+02  9.451343788E+02  0.000000000E+00  0.00000E+00  9.000E+00
#rwgt            1           1   2.9345459580469659E-002           9      333268           0
</event>
<event>
      5   9999  3.19816E-02  5.29460E+01 -1.00000E+00  1.37672E-01
       2    -1     0     0   502     0  0.000000000E+00  0.000000000E+00  3.336922190E+03  3.336922190E+03  0.000000000E+00  0.00000E+00  9.000E+00
      21    -1     0     0   501   502  0.000000000E+00  0.000000000E+00 -4.075101542E+02  4.075101542E+02  0.000000000E+00  0.00000E+00  9.000E+00
      25     1     1     2     0     0  7.963180255E+01  3.831228933E+01 -2.967963158E+02  3.339492605E+02  1.250000000E+02  0.00000E+00  9.000E+00
      25     1     1     2     0     0 -1.323764856E+02 -3.369922603E+01  1.324463119E+00  1.851645916E+02  1.250000000E+02  0.00000E+00  9.000E+00
       2     1     1     2   501     0  5.274468301E+01 -4.613063303E+00  3.224883888E+03  3.225318492E+03  4.315837288E-05  0.00000E+00  9.000E+00
#rwgt            1           1   2.5670544797136294E-002           9      333366           0
</event>
<event>
      5   9999  3.19816E-02  3.31208E+01 -1.00000E+00  1.50113E-01
      21    -1     0     0   511   501  0.000000000E+00  0.000000000E+00  8.374915999E+02  8.374915999E+02  0.000000000E+00  0.00000E+00  9.000E+00
      21    -1     0     0   501   502  0.000000000E+00  0.000000000E+00 -1.056732302E+03  1.056732302E+03  0.000000000E+00  0.00000E+00  9.000E+00
      25     1     1     2     0     0 -2.940981275E+02 -7.907326455E+02 -7.179548170E+00  8.528941149E+02  1.250000000E+02  0.00000E+00  9.000E+00
      25     1     1     2     0     0  2.740789209E+02  7.643466715E+02 -3.547231679E+02  8.948735189E+02  1.250000000E+02  0.00000E+00  9.000E+00
      21     1     1     2   511   502  2.001920664E+01  2.638597407E+01  1.426620140E+02  1.464562682E+02  1.907348633E-06  0.00000E+00  9.000E+00
#rwgt            1           1   3.4506473383828409E-002           9      333498           0
</event>
<event>
      5   9999  3.19816E-02  6.35028E+01 -1.00000E+00  1.33400E-01
      21    -1     0     0   502   501  0.000000000E+00  0.000000000E+00  5.223392502E+02  5.223392502E+02  0.000000000E+00  0.00000E+00  9.000E+00
      21    -1     0     0   512   502  0.000000000E+00  0.000000000E+00 -2.099689485E+02  2.099689485E+02  0.000000000E+00  0.00000E+00  9.000E+00
      25     1     1     2     0     0  1.902335856E+02 -3.803921756E+01  3.825873383E+02  4.468040628E+02  1.250000000E+02  0.00000E+00  9.000E+00
      25     1     1     2     0     0 -1.337137943E+02  6.698940145E+01 -5.730667303E+00  1.949994853E+02  1.250000000E+02  0.00000E+00  9.000E+00
      21     1     1     2   512   501 -5.651979126E+01 -2.895018388E+01 -6.448636924E+01  9.050465054E+01  1.348699152E-06  0.00000E+00  9.000E+00
#rwgt            1           1   2.6974139763635836E-002           9      333639           0
</event>
<event>
      5   9999  3.19816E-02  3.04948E+01 -1.00000E+00  1.52548E-01
      21    -1     0     0   502   501  0.000000000E+00  0.000000000E+00  3.399830139E+03  3.399830139E+03  0.000000000E+00  0.00000E+00  9.000E+00
      21    -1     0     0   511   502  0.000000000E+00  0.000000000E+00 -1.054716801E+02  1.054716801E+02  0.000000000E+00  0.00000E+00  9.000E+00
      25     1     1     2     0     0 -3.943147631E+01  5.745462789E+01  2.695374554E+03  2.699171144E+03  1.250000000E+02  0.00000E+00  9.000E+00
      25     1     1     2     0     0  6.975935991E+01 -5.426837277E+01  6.917465856E+02  7.084841306E+02  1.250000000E+02  0.00000E+00  9.000E+00
      21     1     1     2   511   501 -3.032788359E+01 -3.186255126E+00 -9.276268091E+01  9.764654482E+01  6.743495762E-06  0.00000E+00  9.000E+00
#rwgt            1           1   1.0817666503727799E-002           9      333748           0
</event>
<event>
      5   9999  3.19816E-02  4.45614E+01 -1.00000E+00  1.41990E-01
      21    -1     0     0   512   501  0.000000000E+00  0.000000000E+00  4.018008069E+02  4.018008069E+02  0.000000000E+00  0.00000E+00  9.000E+00
      21    -1     0     0   501   502  0.000000000E+00  0.000000000E+00 -7.610056485E+01  7.610056485E+01  0.000000000E+00  0.00000E+00  9.000E+00
      25     1     1     2     0     0 -6.977725840E+01  6.347031786E+00  6.312693529E+01  1.565859526E+02  1.250000000E+02  0.00000E+00  9.000E+00
      25     1     1     2     0     0  4.667160327E+01 -4.445018551E+01  1.993132932E+02  2.439361523E+02  1.250000000E+02  0.00000E+00  9.000E+00
      21     1     1     2   512   502  2.310565513E+01  3.810315373E+01  6.326001356E+01  7.737926686E+01  1.168007728E-06  0.00000E+00  9.000E+00
#rwgt            1           1   4.4720409133989100E-002           9      333927           0
</event>
<event>
      5   9999  3.19816E-02  6.82314E+01 -1.00000E+00  1.31786E-01
       2    -1     0     0   502     0  0.000000000E+00  0.000000000E+00  1.562944542E+03  1.562944542E+03  0.000000000E+00  0.00000E+00  9.000E+00
      21    -1     0     0   501   502  0.000000000E+00  0.000000000E+00 -7.952937497E+01  7.952937497E+01  0.000000000E+00  0.00000E+00  9.000E+00
      25     1     1     2     0     0 -2.223433465E+02  1.145738335E+02  2.483708034E+02  3.740010468E+02  1.250000000E+02  0.00000E+00  9.000E+00
      25     1     1     2     0     0  1.591777389E+02 -8.877402537E+01  9.332220026E+02  9.590342466E+02  1.250000000E+02  0.00000E+00  9.000E+00
       2     1     1     2   501     0  6.316560756E+01 -2.579980816E+01  3.018223611E+02  3.094386235E+02  5.394796609E-06  0.00000E+00  9.000E+00
#rwgt            1           1   3.4775943795151740E-002           9      334009           0
</event>
<event>
      5   9999  3.19816E-02  9.02058E+00 -1.00000E+00  2.01078E-01
      21    -1     0     0   502   501  0.000000000E+00  0.000000000E+00  1.452002206E+03  1.452002206E+03  0.000000000E+00  0.00000E+00  9.000E+00
      21    -1     0     0   501   511  0.000000000E+00  0.000000000E+00 -1.591332723E+02  1.591332723E+02  0.000000000E+00  0.00000E+00  9.000E+00
      25     1     1     2     0     0  2.612060135E+02  2.138676273E+02  1.140676148E+03  1.196133361E+03  1.250000000E+02  0.00000E+00  9.000E+00
      25     1     1     2     0     0 -2.661434809E+02 -2.214169556E+02  1.615795801E+02  4.019835585E+02  1.250000000E+02  0.00000E+00  9.000E+00
      21     1     1     2   502   511  4.937467411E+00  7.549328303E+00 -9.386794604E+00  1.301855811E+01  1.192092896E-07  0.00000E+00  9.000E+00
#rwgt            1           1   3.2128341579233610E-002           9      334142           0
</event>
<event>
      5   9999  3.19816E-02  1.40602E+02 -1.00000E+00  1.17518E-01
      21    -1     0     0   512   501  0.000000000E+00  0.000000000E+00  1.107186221E+03  1.107186221E+03  0.000000000E+00  0.00000E+00  9.000E+00
      21    -1     0     0   501   502  0.000000000E+00  0.000000000E+00 -1.600042018E+03  1.600042018E+03  0.000000000E+00  0.00000E+00  9.000E+00
      25     1     1     2     0     0  5.214546198E+02 -1.063212313E+02 -1.396011418E+03  1.499230471E+03  1.250000000E+02  0.00000E+00  9.000E+00
      25     1     1     2     0     0 -5.284598172E+02  2.467481726E+02  4.911532250E+02  7.726648235E+02  1.250000000E+02  0.00000E+00  9.000E+00
      21     1     1     2   512   502  7.005197366E+00 -1.404269413E+02  4.120023958E+02  4.353329447E+02  0.000000000E+00  0.00000E+00  9.000E+00
#rwgt            1           1   3.0106263469075457E-002           9      334371           0
</event>
<event>
      5   9999  3.19816E-02  6.08950E+01 -1.00000E+00  1.34361E-01
      21    -1     0     0   502   511  0.000000000E+00  0.000000000E+00  5.578965162E+02  5.578965162E+02  0.000000000E+00  0.00000E+00  9.000E+00
      21    -1     0     0   501   502  0.000000000E+00  0.000000000E+00 -2.210956720E+02  2.210956720E+02  0.000000000E+00  0.00000E+00  9.000E+00
      25     1     1     2     0     0 -5.660368708E+00  2.402594400E+02  1.918090512E+02  3.319222054E+02  1.250000000E+02  0.00000E+00  9.000E+00
      25     1     1     2     0     0 -4.912356623E+01 -2.136714476E+02 -3.707942470E+01  2.550852721E+02  1.250000000E+02  0.00000E+00  9.000E+00
      21     1     1     2   501   511  5.478393494E+01 -2.658799234E+01  1.820712177E+02  1.919847108E+02  0.000000000E+00  0.00000E+00  9.000E+00
#rwgt            1           1   2.7405393172200750E-002           9      334433           0
</event>
<event>
      5   9999  3.19816E-02  4.17524E+01 -1.00000E+00  1.43695E-01
       2    -1     0     0   502     0  0.000000000E+00  0.000000000E+00  3.053123079E+03  3.053123079E+03  0.000000000E+00  0.00000E+00  9.000E+00
      21    -1     0     0   501   502  0.000000000E+00  0.000000000E+00 -3.872508531E+02  3.872508531E+02  0.000000000E+00  0.00000E+00  9.000E+00
      25     1     1     2     0     0 -1.729724236E+02 -6.353395540E+02  1.918338423E+02  6.971377420E+02  1.250000000E+02  0.00000E+00  9.000E+00
      25     1     1     2     0     0  1.320792589E+02  6.269126992E+02  6.584607245E+02  9.271785097E+02  1.250000000E+02  0.00000E+00  9.000E+00
       2     1     1     2   501     0  4.089316465E+01  8.426854801E+00  1.815577659E+03  1.816057680E+03  3.051757812E-05  0.00000E+00  9.000E+00
#rwgt            1           1   3.4675061639362466E-002           9      334512           0
</event>
<event>
      5   9999  3.19816E-02  5.65525E+01 -1.00000E+00  1.36091E-01
      21    -1     0     0   511   501  0.000000000E+00  0.000000000E+00  4.867652105E+01  4.867652105E+01  0.000000000E+00  0.00000E+00  9.000E+00
      21    -1     0     0   501   502  0.000000000E+00  0.000000000E+00 -2.234900628E+03  2.234900628E+03  0.000000000E+00  0.00000E+00  9.000E+00
      25     1     1     2     0     0  1.362508961E+02 -4.439125580E+01 -1.799717572E+03  1.809735680E+03  1.250000000E+02  0.00000E+00  9.000E+00
      25     1     1     2     0     0 -1.728204006E+02  1.253620815E+00 -2.678638479E+02  3.424098472E+02  1.250000000E+02  0.00000E+00  9.000E+00
      21     1     1     2   511   502  3.656950448E+01  4.313763499E+01 -1.186426871E+02  1.314316225E+02  1.907348633E-06  0.00000E+00  9.000E+00
#rwgt            1           1   9.2396199401780787E-002           9      334703           0
</event>
<event>
      5   9999  3.19816E-02  2.31398E+01 -1.00000E+00  1.61308E-01
      21    -1     0     0   502   501  0.000000000E+00  0.000000000E+00  5.599865846E+02  5.599865846E+02  0.000000000E+00  0.00000E+00  9.000E+00
      21    -1     0     0   501   512  0.000000000E+00  0.000000000E+00 -1.537814195E+02  1.537814195E+02  0.000000000E+00  0.00000E+00  9.000E+00
      25     1     1     2     0     0 -4.138495599E+01 -1.671168199E+02  8.794369737E+01  2.302169411E+02  1.250000000E+02  0.00000E+00  9.000E+00
      25     1     1     2     0     0  1.842769468E+01  1.642160367E+02  3.715705565E+02  4.254364407E+02  1.250000000E+02  0.00000E+00  9.000E+00
      21     1     1     2   502   512  2.295726131E+01  2.900783167E+00 -5.330908868E+01  5.811462230E+01  9.536743164E-07  0.00000E+00  9.000E+00
#rwgt            1           1   2.7827327362420492E-002           9      334770           0
</event>
<event>
      5   9999  3.19816E-02  4.00271E+01 -1.00000E+00  1.44822E-01
      21    -1     0     0   502   511  0.000000000E+00  0.000000000E+00  9.001867573E+02  9.001867573E+02  0.000000000E+00  0.00000E+00  9.000E+00
      21    -1     0     0   501   502  0.000000000E+00  0.000000000E+00 -1.109666189E+03  1.109666189E+03  0.000000000E+00  0.00000E+00  9.000E+00
      25     1     1     2     0     0 -1.875396549E+02 -9.183168091E+02 -3.497480402E+02  1.008179337E+03  1.250000000E+02  0.00000E+00  9.000E+00
      25     1     1     2     0     0  2.274769668E+02  9.156371844E+02  1.367911205E+02  9.614957278E+02  1.250000000E+02  0.00000E+00  9.000E+00
      21     1     1     2   501   511 -3.993731200E+01  2.679624786E+00  3.477487397E+00  4.017788194E+01  6.019774043E-07  0.00000E+00  9.000E+00
#rwgt            1           1   3.1175497339658874E-002           9      334881           0
</event>
<event>
      5   9999  3.19816E-02  4.93658E+01 -1.00000E+00  1.39393E-01
      21    -1     0     0   502   501  0.000000000E+00  0.000000000E+00  4.786776526E+01  4.786776526E+01  0.000000000E+00  0.00000E+00  9.000E+00
      21    -1     0     0   501   512  0.000000000E+00  0.000000000E+00 -1.818161997E+03  1.818161997E+03  0.000000000E+00  0.00000E+00  9.000E+00
      25     1     1     2     0     0  1.227645399E+02  1.679738014E+01 -1.110958701E+03  1.124814438E+03  1.250000000E+02  0.00000E+00  9.000E+00
      25     1     1     2     0     0 -7.403693825E+01 -8.885367115E+00 -9.298709786E+01  1.727194788E+02  1.250000000E+02  0.00000E+00  9.000E+00
      21     1     1     2   502   512 -4.872760167E+01 -7.912013023E+00 -5.663484324E+02  5.684958452E+02  7.629394531E-06  0.00000E+00  9.000E+00
#rwgt            1           1   3.2729401599487062E-002           9      335059           0
</event>
<event>
      5   9999  3.19816E-02  4.76613E+02 -1.00000E+00  9.94466E-02
       2    -1     0     0   502     0  0.000000000E+00  0.000000000E+00  1.374990841E+03  1.374990841E+03  0.000000000E+00  0.00000E+00  9.000E+00
      21    -1     0     0   501   502  0.000000000E+00  0.000000000E+00 -8.612756898E+02  8.612756898E+02  0.000000000E+00  0.00000E+00  9.000E+00
      25     1     1     2     0     0  3.677736477E+01 -7.753290496E+02 -3.257618392E+02  8.510190865E+02  1.250000000E+02  0.00000E+00  9.000E+00
      25     1     1     2     0     0 -1.013097417E+02  3.031048883E+02 -7.749749126E+01  3.518054835E+02  1.250000000E+02  0.00000E+00  9.000E+00
       2     1     1     2   501     0  6.453237688E+01  4.722241612E+02  9.169744815E+02  1.033441961E+03  1.868812365E-05  0.00000E+00  9.000E+00
#rwgt            2          18   1.6213437577302329E-003           9      335116           0
</event>
<event>
      5   9999  3.19816E-02  3.88674E+02 -1.00000E+00  1.02062E-01
       2    -1     0     0   502     0  0.000000000E+00  0.000000000E+00  3.379975963E+03  3.379975963E+03  0.000000000E+00  0.00000E+00  9.000E+00
      21    -1     0     0   501   502  0.000000000E+00  0.000000000E+00 -1.704209104E+02  1.704209104E+02  0.000000000E+00  0.00000E+00  9.000E+00
      25     1     1     2     0     0 -6.109215874E+02  3.004985332E+01  1.720024172E+03  1.829818661E+03  1.250000000E+02  0.00000E+00  9.000E+00
      25     1     1     2     0     0  2.444566736E+02 -1.595519922E+02  1.184998245E+03  1.226809580E+03  1.250000000E+02  0.00000E+00  9.000E+00
       2     1     1     2   501     0  3.664649138E+02  1.295021389E+02  3.045326362E+02  4.937686336E+02  8.529922400E-06  0.00000E+00  9.000E+00
#rwgt            2          18   2.7292259987463366E-003           9      335300           0
</event>
<event>
      5   9999  3.19816E-02  4.45729E+01 -1.00000E+00  1.41984E-01
      21    -1     0     0   502   501  0.000000000E+00  0.000000000E+00  3.460177689E+02  3.460177689E+02  0.000000000E+00  0.00000E+00  9.000E+00
      21    -1     0     0   511   502  0.000000000E+00  0.000000000E+00 -7.670290049E+02  7.670290049E+02  0.000000000E+00  0.00000E+00  9.000E+00
      25     1     1     2     0     0  5.921888768E+01  3.359620665E+02 -2.354440115E+02  4.329391058E+02  1.250000000E+02  0.00000E+00  9.000E+00
      25     1     1     2     0     0 -9.822146673E+01 -3.143856345E+02  1.193412438E+02  3.719584872E+02  1.250000000E+02  0.00000E+00  9.000E+00
      21     1     1     2   511   501  3.900257905E+01 -2.157643199E+01 -3.049084682E+02  3.081491807E+02  3.814697266E-06  0.00000E+00  9.000E+00
#rwgt            1           1   2.8825232653025661E-002           9      335364           0
</event>
<event>
      5   9999  3.19816E-02  1.68182E+02 -1.00000E+00  1.14458E-01
      21    -1     0     0   502   501  0.000000000E+00  0.000000000E+00  4.984340172E+02  4.984340172E+02  0.000000000E+00  0.00000E+00  9.000E+00
       1    -1     0     0   501     0  0.000000000E+00  0.000000000E+00 -2.346383228E+03  2.346383228E+03  0.000000000E+00  0.00000E+00  9.000E+00
      25     1     1     2     0     0  5.781269518E+02 -7.117410283E+02 -4.246706719E+02  1.018222099E+03  1.250000000E+02  0.00000E+00  9.000E+00
      25     1     1     2     0     0 -6.919995576E+02  5.879744404E+02 -9.315462847E+02  1.306897399E+03  1.250000000E+02  0.00000E+00  9.000E+00
       1     1     1     2   502     0  1.138726058E+02  1.237665879E+02 -4.917322544E+02  5.196977474E+02  5.394796609E-06  0.00000E+00  9.000E+00
#rwgt            1           1   2.9874912663539789E-002           9      335509           0
</event>
<event>
      5   9999  3.19816E-02  1.41125E+02 -1.00000E+00  1.17453E-01
      21    -1     0     0   502   501  0.000000000E+00  0.000000000E+00  3.216591070E+03  3.216591070E+03  0.000000000E+00  0.00000E+00  9.000E+00
      21    -1     0     0   511   502  0.000000000E+00  0.000000000E+00 -6.161445876E+02  6.161445876E+02  0.000000000E+00  0.00000E+00  9.000E+00
      25     1     1     2     0     0 -4.521445651E+02 -7.087602249E+02  2.275963064E+03  2.429487319E+03  1.250000000E+02  0.00000E+00  9.000E+00
      25     1     1     2     0     0  5.829197992E+02  7.618084159E+02  5.680081287E+02  1.121786873E+03  1.250000000E+02  0.00000E+00  9.000E+00
      21     1     1     2   511   501 -1.307752340E+02 -5.304819105E+01 -2.435247099E+02  2.814614658E+02  8.946258087E-06  0.00000E+00  9.000E+00
#rwgt            1           1   2.3979061633708432E-002           9      335610           0
</event>
<event>
      5   9999  3.19816E-02  9.98684E+01 -1.00000E+00  1.23854E-01
      21    -1     0     0   502   501  0.000000000E+00  0.000000000E+00  1.413796904E+03  1.413796904E+03  0.000000000E+00  0.00000E+00  9.000E+00
      21    -1     0     0   501   512  0.000000000E+00  0.000000000E+00 -3.388396307E+02  3.388396307E+02  0.000000000E+00  0.00000E+00  9.000E+00
      25     1     1     2     0     0  3.853608323E+02 -5.129292241E+02  5.921145345E+02  8.819432986E+02  1.250000000E+02  0.00000E+00  9.000E+00
      25     1     1     2     0     0 -3.550305751E+02  4.177779531E+02  5.182660735E+02  7.647286121E+02  1.250000000E+02  0.00000E+00  9.000E+00
      21     1     1     2   502   512 -3.033025723E+01  9.515127097E+01 -3.542333480E+01  1.059646239E+02  2.567846683E-06  0.00000E+00  9.000E+00
#rwgt            2          11   5.2547028538529050E-003           9      335776           0
</event>
<event>
      5   9999  3.19816E-02  2.60396E+01 -1.00000E+00  1.57437E-01
      21    -1     0     0   502   501  0.000000000E+00  0.000000000E+00  1.956380778E+03  1.956380778E+03  0.000000000E+00  0.00000E+00  9.000E+00
      21    -1     0     0   501   511  0.000000000E+00  0.000000000E+00 -4.517602311E+02  4.517602311E+02  0.000000000E+00  0.00000E+00  9.000E+00
      25     1     1     2     0     0  4.647415602E+02 -7.861450344E+02  6.731119534E+02  1.141364725E+03  1.250000000E+02  0.00000E+00  9.000E+00
      25     1     1     2     0     0 -4.653524643E+02  7.601126078E+02  8.475102168E+02  1.236213032E+03  1.250000000E+02  0.00000E+00  9.000E+00
      21     1     1     2   502   511  6.109040986E-01  2.603242654E+01 -1.600162350E+01  3.056325228E+01  4.768371582E-07  0.00000E+00  9.000E+00
#rwgt            1           1   2.6799594306803658E-002           9      335796           0
</event>
<event>
      5   9999  3.33101E-02  4.39430E+01 -1.00000E+00  1.42353E-01
      21    -1     0     0   502   501  0.000000000E+00  0.000000000E+00  7.363217985E+02  7.363217985E+02  0.000000000E+00  0.00000E+00  9.000E+00
      21    -1     0     0   512   502  0.000000000E+00  0.000000000E+00 -5.452244112E+02  5.452244112E+02  0.000000000E+00  0.00000E+00  9.000E+00
      25     1     1     2     0     0 -4.026123920E+02 -2.276711400E+01 -2.884129935E+02  5.112945673E+02  1.250000000E+02  0.00000E+00  9.000E+00
      25     1     1     2     0     0  3.609855422E+02  3.684527480E+01  5.597984113E+02  6.787248318E+02  1.250000000E+02  0.00000E+00  9.000E+00
      21     1     1     2   512   501  4.162684982E+01 -1.407816080E+01 -8.028803050E+01  9.152681071E+01  9.536743164E-07  0.00000E+00  9.000E+00
#rwgt            1           1   3.2862371374746492E-002           9      336045           0
</event>
<event>
      5   9999  3.19816E-02  2.66371E+01 -1.00000E+00  1.56715E-01
      21    -1     0     0   502   511  0.000000000E+00  0.000000000E+00  1.532993725E+02  1.532993725E+02  0.000000000E+00  0.00000E+00  9.000E+00
      21    -1     0     0   501   502  0.000000000E+00  0.000000000E+00 -1.157694932E+03  1.157694932E+03  0.000000000E+00  0.00000E+00  9.000E+00
      25     1     1     2     0     0  8.539164541E+01 -6.359180148E+01 -6.706606380E+02  6.904682047E+02  1.250000000E+02  0.00000E+00  9.000E+00
      25     1     1     2     0     0 -7.797576189E+01  8.917576009E+01 -4.601577864E+02  4.913275120E+02  1.250000000E+02  0.00000E+00  9.000E+00
      21     1     1     2   501   511 -7.415883515E+00 -2.558395861E+01  1.264228650E+02  1.291985877E+02  3.015782986E-06  0.00000E+00  9.000E+00
#rwgt            2          11   6.8300430561625235E-003           9      336168           0
</event>
<event>
      5   9999  3.19816E-02  1.62640E+01 -1.00000E+00  1.74136E-01
      21    -1     0     0   502   501  0.000000000E+00  0.000000000E+00  6.849028094E+02  6.849028094E+02  0.000000000E+00  0.00000E+00  9.000E+00
      21    -1     0     0   501   512  0.000000000E+00  0.000000000E+00 -2.140392222E+02  2.140392222E+02  0.000000000E+00  0.00000E+00  9.000E+00
      25     1     1     2     0     0  6.737762001E+01 -2.571023622E+02  4.975717870E+02  5.777923948E+02  1.250000000E+02  0.00000E+00  9.000E+00
      25     1     1     2     0     0 -8.202062804E+01  2.641805179E+02 -2.796414310E+01  3.048372070E+02  1.250000000E+02  0.00000E+00  9.000E+00
      21     1     1     2   502   512  1.464300802E+01 -7.078155672E+00  1.255943386E+00  1.631242978E+01  2.541947679E-07  0.00000E+00  9.000E+00
#rwgt            1           1   1.5012145547148241E-002           9      336218           0
</event>
<event>
      5   9999  3.19816E-02  3.96594E+01 -1.00000E+00  1.45071E-01
      21    -1     0     0   502   501  0.000000000E+00  0.000000000E+00  1.749101619E+02  1.749101619E+02  0.000000000E+00  0.00000E+00  9.000E+00
      21    -1     0     0   511   502  0.000000000E+00  0.000000000E+00 -4.314822671E+02  4.314822671E+02  0.000000000E+00  0.00000E+00  9.000E+00
      25     1     1     2     0     0  5.357792201E+01  1.012125105E+02  8.244762369E+01  1.885130676E+02  1.250000000E+02  0.00000E+00  9.000E+00
      25     1     1     2     0     0 -3.742235268E+01 -1.374322377E+02 -2.098317645E+02  2.827409093E+02  1.250000000E+02  0.00000E+00  9.000E+00
      21     1     1     2   511   501 -1.615556933E+01  3.621972712E+01 -1.291879644E+02  1.351384520E+02  1.907348633E-06  0.00000E+00  9.000E+00
#rwgt            1           1   2.8615365031043595E-002           9      336393           0
</event>
<event>
      5   9999  3.57663E-02  4.21867E+01 -1.00000E+00  1.43421E-01
      21    -1     0     0   502   512  0.000000000E+00  0.000000000E+00  6.669113983E+02  6.669113983E+02  0.000000000E+00  0.00000E+00  9.000E+00
      21    -1     0     0   501   502  0.000000000E+00  0.000000000E+00 -5.146762982E+02  5.146762982E+02  0.000000000E+00  0.00000E+00  9.000E+00
      25     1     1     2     0     0 -8.373076434E+01  9.963734249E+01 -4.423415384E+02  4.777336889E+02  1.250000000E+02  0.00000E+00  9.000E+00
      25     1     1     2     0     0  5.200052004E+01 -1.274385881E+02  1.071284368E+02  2.145836662E+02  1.250000000E+02  0.00000E+00  9.000E+00
      21     1     1     2   501   512  3.173024431E+01  2.780124560E+01  4.874482017E+02  4.892703415E+02  5.394796609E-06  0.00000E+00  9.000E+00
#rwgt            1           1   3.3587316260711882E-002           9      336463           0
</event>
<event>
      5   9999  3.19816E-02  2.70882E+02 -1.00000E+00  1.07053E-01
      21    -1     0     0   502   501  0.000000000E+00  0.000000000E+00  2.229983962E+02  2.229983962E+02  0.000000000E+00  0.00000E+00  9.000E+00
      -2    -1     0     0     0   502  0.000000000E+00  0.000000000E+00 -1.070879878E+03  1.070879878E+03  0.000000000E+00  0.00000E+00  9.000E+00
      25     1     1     2     0     0  1.083433652E+02  1.504392721E+02 -2.356665266E+02  3.248599255E+02  1.250000000E+02  0.00000E+00  9.000E+00
      25     1     1     2     0     0 -3.136824676E+02 -3.271102735E+02 -3.098141067E+02  5.630342816E+02  1.250000000E+02  0.00000E+00  9.000E+00
      -2     1     1     2     0   501  2.053391024E+02  1.766710013E+02 -3.024008486E+02  4.059840673E+02  3.814697266E-06  0.00000E+00  9.000E+00
#rwgt            2           9   5.3128412737049260E-005           9      336613           0
</event>
<event>
      5   9999  3.19816E-02  4.56511E+01 -1.00000E+00  1.41368E-01
      21    -1     0     0   511   501  0.000000000E+00  0.000000000E+00  7.011503275E+02  7.011503275E+02  0.000000000E+00  0.00000E+00  9.000E+00
      21    -1     0     0   501   502  0.000000000E+00  0.000000000E+00 -2.475811201E+02  2.475811201E+02  0.000000000E+00  0.00000E+00  9.000E+00
      25     1     1     2     0     0  7.956383779E+01 -2.657514745E+02  6.903375132E+01  3.120014572E+02  1.250000000E+02  0.00000E+00  9.000E+00
      25     1     1     2     0     0 -8.920374305E+01  3.103731722E+02  1.172849295E+02  3.656084907E+02  1.250000000E+02  0.00000E+00  9.000E+00
      21     1     1     2   511   502  9.639905259E+00 -4.462169767E+01  2.672505265E+02  2.711214997E+02  0.000000000E+00  0.00000E+00  9.000E+00
#rwgt            1           1   2.7530265658425028E-002           9      336632           0
</event>
<event>
      5   9999  3.39975E-02  8.71147E+00 -1.00000E+00  2.02947E-01
      21    -1     0     0   502   512  0.000000000E+00  0.000000000E+00  1.450342199E+01  1.450342199E+01  0.000000000E+00  0.00000E+00  9.000E+00
      21    -1     0     0   501   502  0.000000000E+00  0.000000000E+00 -2.113045566E+03  2.113045566E+03  0.000000000E+00  0.00000E+00  9.000E+00
      25     1     1     2     0     0  4.241458154E+00  8.711617997E+01 -7.181030765E+02  7.341009790E+02  1.250000000E+02  0.00000E+00  9.000E+00
      25     1     1     2     0     0 -1.648749630E+00 -7.879948014E+01 -1.375537261E+03  1.383452143E+03  1.250000000E+02  0.00000E+00  9.000E+00
      21     1     1     2   501   512 -2.592708524E+00 -8.316699825E+00 -4.901807344E+00  9.995866581E+00  3.153981341E-07  0.00000E+00  9.000E+00
#rwgt            1           1  0.18718986075759303                9      336746           0
</event>
<event>
      5   9999  3.19816E-02  8.94019E+01  7.55638E-03  1.26056E-01
       1    -1     0     0   501     0  0.000000000E+00  0.000000000E+00  4.530066987E+02  4.530066987E+02  0.000000000E+00  0.00000E+00  9.000E+00
      -1    -1     0     0     0   502  0.000000000E+00  0.000000000E+00 -1.818325400E+02  1.818325400E+02  0.000000000E+00  0.00000E+00  9.000E+00
      25     1     1     2     0     0 -1.550917169E+02  1.118740076E+02  6.547406089E+01  2.376574991E+02  1.250000000E+02  0.00000E+00  9.000E+00
      25     1     1     2     0     0  1.697454780E+02 -2.368123073E+01  5.047665823E+01  2.180532527E+02  1.250000000E+02  0.00000E+00  9.000E+00
      21     1     1     2   501   502 -1.465376113E+01 -8.819277685E+01  1.552234396E+02  1.791284869E+02  2.697398305E-06  0.00000E+00  9.000E+00
#rwgt            3           6   1.7059960291996295E-006           9      336930           0
</event>
<event>
      5   9999  3.19816E-02  5.97350E+01 -1.00000E+00  1.34806E-01
      21    -1     0     0   502   501  0.000000000E+00  0.000000000E+00  7.453267752E+02  7.453267752E+02  0.000000000E+00  0.00000E+00  9.000E+00
      21    -1     0     0   501   511  0.000000000E+00  0.000000000E+00 -1.210986894E+03  1.210986894E+03  0.000000000E+00  0.00000E+00  9.000E+00
      25     1     1     2     0     0  1.663118678E+02  1.154012142E+01  8.483102627E+01  2.249758093E+02  1.250000000E+02  0.00000E+00  9.000E+00
      25     1     1     2     0     0 -1.086168903E+02 -2.701791993E+01  5.776967146E+02  6.015696892E+02  1.250000000E+02  0.00000E+00  9.000E+00
      21     1     1     2   502   511 -5.769497748E+01  1.547779851E+01 -1.128187860E+03  1.129768171E+03  1.525878906E-05  0.00000E+00  9.000E+00
#rwgt            1           1   3.0669568592093063E-002           9      336949           0
</event>
<event>
      5   9999  3.19816E-02  3.10408E+01 -1.00000E+00  1.52018E-01
      21    -1     0     0   502   512  0.000000000E+00  0.000000000E+00  2.051756673E+02  2.051756673E+02  0.000000000E+00  0.00000E+00  9.000E+00
      21    -1     0     0   501   502  0.000000000E+00  0.000000000E+00 -9.171532918E+02  9.171532918E+02  0.000000000E+00  0.00000E+00  9.000E+00
      25     1     1     2     0     0  7.211099512E+01 -1.982038563E+02 -2.451923991E+02  3.467406478E+02  1.250000000E+02  0.00000E+00  9.000E+00
      25     1     1     2     0     0 -7.471995543E+01  2.291348455E+02 -5.894962803E+02  6.490121059E+02  1.250000000E+02  0.00000E+00  9.000E+00
      21     1     1     2   501   512  2.608960308E+00 -3.093098916E+01  1.227110550E+02  1.265762054E+02  1.348699152E-06  0.00000E+00  9.000E+00
#rwgt            1           1   2.4988789218153316E-002           9      337003           0
</event>
<event>
      5   9999  3.19816E-02  9.89907E+01 -1.00000E+00  1.24026E-01
      21    -1     0     0   502   501  0.000000000E+00  0.000000000E+00  1.349917818E+02  1.349917818E+02  0.000000000E+00  0.00000E+00  9.000E+00
      21    -1     0     0   511   502  0.000000000E+00  0.000000000E+00 -1.448105271E+03  1.448105271E+03  0.000000000E+00  0.00000E+00  9.000E+00
      25     1     1     2     0     0  2.394115714E+02  5.058926388E+01 -1.986837469E+02  3.390831836E+02  1.250000000E+02  0.00000E+00  9.000E+00
      25     1     1     2     0     0 -1.687357657E+02  1.872231243E+01 -1.158873255E+02  2.405767150E+02  1.250000000E+02  0.00000E+00  9.000E+00
      21     1     1     2   511   501 -7.067580573E+01 -6.931157631E+01 -9.985424166E+02  1.003437154E+03  1.868812365E-05  0.00000E+00  9.000E+00
#rwgt            1           1   2.9030441626891001E-002           9      337178           0
</event>
<event>
      5   9999  3.19816E-02  3.32411E+01 -1.00000E+00  1.50008E-01
      21    -1     0     0   512   501  0.000000000E+00  0.000000000E+00  1.928324553E+03  1.928324553E+03  0.000000000E+00  0.00000E+00  9.000E+00
      21    -1     0     0   501   502  0.000000000E+00  0.000000000E+00 -1.438548804E+02  1.438548804E+02  0.000000000E+00  0.00000E+00  9.000E+00
      25     1     1     2     0     0 -2.808958979E+02  2.620898156E+02  3.127257522E+02  5.108972235E+02  1.250000000E+02  0.00000E+00  9.000E+00
      25     1     1     2     0     0  3.141314306E+02 -2.614805301E+02  9.890947285E+02  1.077489678E+03  1.250000000E+02  0.00000E+00  9.000E+00
      21     1     1     2   512   502 -3.323553270E+01 -6.092854972E-01  4.826491920E+02  4.837925324E+02  5.394796609E-06  0.00000E+00  9.000E+00
#rwgt            1           1   2.7602190912416065E-002           9      337258           0
</event>
<event>
      5   9999  3.19816E-02  4.37656E+01 -1.00000E+00  1.42458E-01
      21    -1     0     0   502   501  0.000000000E+00  0.000000000E+00  7.494998033E+02  7.494998033E+02  0.000000000E+00  0.00000E+00  9.000E+00
      21    -1     0     0   511   502  0.000000000E+00  0.000000000E+00 -1.227448129E+02  1.227448129E+02  0.000000000E+00  0.00000E+00  9.000E+00
      25     1     1     2     0     0  2.125645461E+02  8.246997947E+01  2.176220628E+02  3.390712992E+02  1.250000000E+02  0.00000E+00  9.000E+00
      25     1     1     2     0     0 -1.902702960E+02 -1.201315342E+02  4.156741165E+02  4.889216115E+02  1.250000000E+02  0.00000E+00  9.000E+00
      21     1     1     2   511   501 -2.229425009E+01  3.766155473E+01 -6.541188822E+00  4.425170554E+01  1.481747972E-06  0.00000E+00  9.000E+00
#rwgt            2          11   2.0234488334398273E-003           9      337495           0
</event>
<event>
      5   9999  3.19816E-02  9.37393E+01 -1.00000E+00  1.25104E-01
      21    -1     0     0   502   512  0.000000000E+00  0.000000000E+00  1.213974849E+02  1.213974849E+02  0.000000000E+00  0.00000E+00  9.000E+00
      21    -1     0     0   501   502  0.000000000E+00  0.000000000E+00 -1.093940183E+03  1.093940183E+03  0.000000000E+00  0.00000E+00  9.000E+00
      25     1     1     2     0     0 -1.800865443E+02 -4.902287639E+00 -6.994987806E+02  7.330612116E+02  1.250000000E+02  0.00000E+00  9.000E+00
      25     1     1     2     0     0  2.733986010E+02 -4.037624438E+00 -2.328989549E+02  3.803025383E+02  1.250000000E+02  0.00000E+00  9.000E+00
      21     1     1     2   501   512 -9.331205670E+01  8.939912078E+00 -4.014496286E+01  1.019739182E+02  1.168007728E-06  0.00000E+00  9.000E+00
#rwgt            1           1   2.9833688058171076E-002           9      337545           0
</event>
<event>
      5   9999  3.19816E-02  7.10884E+00 -1.00000E+00  2.14611E-01
      21    -1     0     0   502   511  0.000000000E+00  0.000000000E+00  3.310327652E+02  3.310327652E+02  0.000000000E+00  0.00000E+00  9.000E+00
      21    -1     0     0   501   502  0.000000000E+00  0.000000000E+00 -5.863084361E+02  5.863084361E+02  0.000000000E+00  0.00000E+00  9.000E+00
      25     1     1     2     0     0 -2.933936413E+02 -1.234677959E+02  1.546208025E+02  3.753088301E+02  1.250000000E+02  0.00000E+00  9.000E+00
      25     1     1     2     0     0  2.959862929E+02  1.168485947E+02 -4.112436648E+02  5.347970003E+02  1.250000000E+02  0.00000E+00  9.000E+00
      21     1     1     2   501   511 -2.592651662E+00  6.619201208E+00  1.347191405E+00  7.235370893E+00  1.569934749E-07  0.00000E+00  9.000E+00
#rwgt            1           1   2.8195686764339031E-002           9      337638           0
</event>
<event>
      5   9999  3.19816E-02  1.06794E+02 -1.00000E+00  1.22557E-01
      21    -1     0     0   502   501  0.000000000E+00  0.000000000E+00  4.917713533E+02  4.917713533E+02  0.000000000E+00  0.00000E+00  9.000E+00
      21    -1     0     0   512   502  0.000000000E+00  0.000000000E+00 -4.777948690E+02  4.777948690E+02  0.000000000E+00  0.00000E+00  9.000E+00
      25     1     1     2     0     0  1.654372593E+01  7.146113901E+00 -3.245396745E+02  3.482466972E+02  1.250000000E+02  0.00000E+00  9.000E+00
      25     1     1     2     0     0 -1.194646240E+02 -3.564573987E+01  4.399385436E+02  4.740393837E+02  1.250000000E+02  0.00000E+00  9.000E+00
      21     1     1     2   512   501  1.029208981E+02  2.849962597E+01 -1.014223847E+02  1.472801414E+02  2.697398305E-06  0.00000E+00  9.000E+00
#rwgt            1           1   2.5542042208880060E-002           9      338015           0
</event>
<event>
      5   9999  3.19816E-02  2.35928E+02 -1.00000E+00  1.09097E-01
      21    -1     0     0   502   501  0.000000000E+00  0.000000000E+00  1.337798623E+02  1.337798623E+02  0.000000000E+00  0.00000E+00  9.000E+00
      21    -1     0     0   511   502  0.000000000E+00  0.000000000E+00 -3.377686732E+03  3.377686732E+03  0.000000000E+00  0.00000E+00  9.000E+00
      25     1     1     2     0     0 -4.908453764E+01 -6.128144090E+02 -2.099416532E+03  2.191147089E+03  1.250000000E+02  0.00000E+00  9.000E+00
      25     1     1     2     0     0  2.024303504E+01  3.786563400E+02 -5.412333364E+02  6.725689026E+02  1.250000000E+02  0.00000E+00  9.000E+00
      21     1     1     2   511   501  2.884150261E+01  2.341580690E+02 -6.032570016E+02  6.477506029E+02  1.078959322E-05  0.00000E+00  9.000E+00
#rwgt            1           1   6.4100179685955411E-002           9      338078           0
</event>
<event>
      5   9999  3.19816E-02  4.23116E+01 -1.00000E+00  1.43343E-01
      21    -1     0     0   502   501  0.000000000E+00  0.000000000E+00  1.371497777E+03  1.371497777E+03  0.000000000E+00  0.00000E+00  9.000E+00
      21    -1     0     0   512   502  0.000000000E+00  0.000000000E+00 -3.064284319E+01  3.064284319E+01  0.000000000E+00  0.00000E+00  9.000E+00
      25     1     1     2     0     0  8.976586419E+01 -7.585833487E+01  3.344923945E+02  3.759289285E+02  1.250000000E+02  0.00000E+00  9.000E+00
      25     1     1     2     0     0 -7.730961877E+01  3.542181114E+01  8.816135972E+02  8.944825413E+02  1.250000000E+02  0.00000E+00  9.000E+00
      21     1     1     2   512   501 -1.245624543E+01  4.043652373E+01  1.247489424E+02  1.317291507E+02  2.697398305E-06  0.00000E+00  9.000E+00
#rwgt            1           1   2.9335352931725348E-002           9      338132           0
</event>
<event>
      5   9999  3.19816E-02  1.91281E+02 -1.00000E+00  1.12357E-01
      21    -1     0     0   502   501  0.000000000E+00  0.000000000E+00  1.257711326E+03  1.257711326E+03  0.000000000E+00  0.00000E+00  9.000E+00
      -1    -1     0     0     0   502  0.000000000E+00  0.000000000E+00 -5.449960962E+02  5.449960962E+02  0.000000000E+00  0.00000E+00  9.000E+00
      25     1     1     2     0     0  4.566425674E+02 -4.232676139E+02  4.167864458E+02  7.596142763E+02  1.250000000E+02  0.00000E+00  9.000E+00
      25     1     1     2     0     0 -3.285526293E+02  2.812068368E+02  5.590670312E+02  7.177778631E+02  1.250000000E+02  0.00000E+00  9.000E+00
      -1     1     1     2     0   501 -1.280899381E+02  1.420607771E+02 -2.631382468E+02  3.253152833E+02  0.000000000E+00  0.00000E+00  9.000E+00
#rwgt            1           1   3.2895642492333309E-002           9      338206           0
</event>
<event>
      5   9999  3.19816E-02  2.28992E+01 -1.00000E+00  1.61660E-01
      21    -1     0     0   502   501  0.000000000E+00  0.000000000E+00  3.123594192E+02  3.123594192E+02  0.000000000E+00  0.00000E+00  9.000E+00
      -4    -1     0     0     0   502  0.000000000E+00  0.000000000E+00 -8.002639799E+02  8.002639799E+02  0.000000000E+00  0.00000E+00  9.000E+00
      25     1     1     2     0     0 -1.307067202E+01 -5.213321298E+01  2.876973056E+02  3.182506151E+02  1.250000000E+02  0.00000E+00  9.000E+00
      25     1     1     2     0     0  3.590949434E+01  5.379515291E+01 -5.542828581E+02  5.718722733E+02  1.250000000E+02  0.00000E+00  9.000E+00
      -4     1     1     2     0   501 -2.283882233E+01 -1.661939936E+00 -2.213190082E+02  2.225005106E+02  0.000000000E+00  0.00000E+00  9.000E+00
#rwgt            1           1   2.6053269491636326E-002           9      338258           0
</event>
<event>
      5   9999  3.19816E-02  2.14434E+02 -1.00000E+00  1.10557E-01
      21    -1     0     0   502   511  0.000000000E+00  0.000000000E+00  3.322577812E+02  3.322577812E+02  0.000000000E+00  0.00000E+00  9.000E+00
      21    -1     0     0   501   502  0.000000000E+00  0.000000000E+00 -7.523466027E+02  7.523466027E+02  0.000000000E+00  0.00000E+00  9.000E+00
      25     1     1     2     0     0  2.957061258E+02 -1.854658589E+02 -2.422243855E+02  4.428739669E+02  1.250000000E+02  0.00000E+00  9.000E+00
      25     1     1     2     0     0 -1.332283618E+02  4.552650436E+01 -3.292246726E+02  3.792576222E+02  1.250000000E+02  0.00000E+00  9.000E+00
      21     1     1     2   501   511 -1.624777640E+02  1.399393546E+02  1.513602366E+02  2.624727947E+02  3.814697266E-06  0.00000E+00  9.000E+00
#rwgt            1           1   2.9950401181248525E-002           9      338429           0
</event>
<event>
      5   9999  3.19816E-02  3.36979E+02 -1.00000E+00  1.03977E-01
      21    -1     0     0   502   512  0.000000000E+00  0.000000000E+00  6.977722236E+02  6.977722236E+02  0.000000000E+00  0.00000E+00  9.000E+00
      21    -1     0     0   501   502  0.000000000E+00  0.000000000E+00 -8.914661531E+02  8.914661531E+02  0.000000000E+00  0.00000E+00  9.000E+00
      25     1     1     2     0     0 -4.130104573E+02  3.265812207E+00 -1.802043430E+02  4.676397210E+02  1.250000000E+02  0.00000E+00  9.000E+00
      25     1     1     2     0     0  7.171314430E+02 -1.484048893E+02 -1.501915483E+02  7.579472402E+02  1.250000000E+02  0.00000E+00  9.000E+00
      21     1     1     2   501   512 -3.041209857E+02  1.451390771E+02  1.367019619E+02  3.636514155E+02  6.325959759E-06  0.00000E+00  9.000E+00
#rwgt            2          11   3.3640404981596069E-003           9      338469           0
</event>
<event>
      5   9999  3.19816E-02  6.30538E+01 -1.00000E+00  1.33561E-01
      21    -1     0     0   502   501  0.000000000E+00  0.000000000E+00  4.703380050E+02  4.703380050E+02  0.000000000E+00  0.00000E+00  9.000E+00
       2    -1     0     0   501     0  0.000000000E+00  0.000000000E+00 -8.279493179E+02  8.279493179E+02  0.000000000E+00  0.00000E+00  9.000E+00
      25     1     1     2     0     0  2.376187827E+02 -8.190533279E+00 -1.465155327E+02  3.059764240E+02  1.250000000E+02  0.00000E+00  9.000E+00
      25     1     1     2     0     0 -2.874629190E+02 -3.042737131E+01  3.249763597E+02  4.525432455E+02  1.250000000E+02  0.00000E+00  9.000E+00
       2     1     1     2   502     0  4.984413627E+01  3.861790459E+01 -5.360721399E+02  5.397676533E+02  1.078959322E-05  0.00000E+00  9.000E+00
#rwgt            1           1   2.9723109188250139E-002           9      338489           0
</event>
<event>
      5   9999  3.19816E-02  4.19539E+02 -1.00000E+00  1.01066E-01
       2    -1     0     0   502     0  0.000000000E+00  0.000000000E+00  3.614209602E+03  3.614209602E+03  0.000000000E+00  0.00000E+00  9.000E+00
      21    -1     0     0   501   502  0.000000000E+00  0.000000000E+00 -8.407337414E+02  8.407337414E+02  0.000000000E+00  0.00000E+00  9.000E+00
      25     1     1     2     0     0 -1.026538729E+03 -4.078940704E+02 -1.287231067E+01  1.111732896E+03  1.250000000E+02  0.00000E+00  9.000E+00
      25     1     1     2     0     0  1.038535153E+03  8.272614645E+02  1.588946538E+03  2.074437971E+03  1.250000000E+02  0.00000E+00  9.000E+00
       2     1     1     2   501     0 -1.199642420E+01 -4.193673941E+02  1.197401633E+03  1.268772476E+03  2.642899792E-05  0.00000E+00  9.000E+00
#rwgt            2          18   4.3427272109283713E-003           9      338790           0
</event>
<event>
      5   9999  3.19816E-02  3.08152E+02 -1.00000E+00  1.05215E-01
      21    -1     0     0   502   511  0.000000000E+00  0.000000000E+00  2.420082177E+02  2.420082177E+02  0.000000000E+00  0.00000E+00  9.000E+00
      21    -1     0     0   501   502  0.000000000E+00  0.000000000E+00 -6.698858162E+02  6.698858162E+02  0.000000000E+00  0.00000E+00  9.000E+00
      25     1     1     2     0     0  1.232560885E+02 -2.876243499E+01 -1.138627252E+02  2.112085727E+02  1.250000000E+02  0.00000E+00  9.000E+00
      25     1     1     2     0     0  4.114081625E+01  2.893987941E+02 -1.705861523E+02  3.607892240E+02  1.250000000E+02  0.00000E+00  9.000E+00
      21     1     1     2   501   511 -1.643969047E+02 -2.606363592E+02 -1.434287209E+02  3.398962371E+02  1.907348633E-06  0.00000E+00  9.000E+00
#rwgt            2          11   3.8006413739554838E-003           9      338839           0
</event>
<event>
      5   9999  3.19816E-02  1.15610E+02 -1.00000E+00  1.21059E-01
       1    -1     0     0   502     0  0.000000000E+00  0.000000000E+00  1.908866438E+03  1.908866438E+03  0.000000000E+00  0.00000E+00  9.000E+00
      21    -1     0     0   501   502  0.000000000E+00  0.000000000E+00 -8.285397679E+01  8.285397679E+01  0.000000000E+00  0.00000E+00  9.000E+00
      25     1     1     2     0     0 -1.791242614E+02 -5.295583731E+01  3.196174065E+02  3.907302244E+02  1.250000000E+02  0.00000E+00  9.000E+00
      25     1     1     2     0     0  2.866839760E+02  9.534234292E+01  5.670684482E+02  6.545758087E+02  1.250000000E+02  0.00000E+00  9.000E+00
       1     1     1     2   501     0 -1.075597146E+02 -4.238650561E+01  9.393266070E+02  9.464143821E+02  0.000000000E+00  0.00000E+00  9.000E+00
#rwgt            2          17   3.8981614349984685E-004           9      339204           0
</event>
<event>
      5   9999  3.19816E-02  1.52248E+02 -1.00000E+00  1.16138E-01
      21    -1     0     0   511   501  0.000000000E+00  0.000000000E+00  1.103092099E+03  1.103092099E+03  0.000000000E+00  0.00000E+00  9.000E+00
      21    -1     0     0   501   502  0.000000000E+00  0.000000000E+00 -2.275291534E+02  2.275291534E+02  0.000000000E+00  0.00000E+00  9.000E+00
      25     1     1     2     0     0  2.656609388E+02 -4.922962721E+01  6.880726307E+02  7.497121019E+02  1.250000000E+02  0.00000E+00  9.000E+00
      25     1     1     2     0     0 -1.554557762E+02 -5.581504479E+01 -1.188553748E+02  2.388167031E+02  1.250000000E+02  0.00000E+00  9.000E+00
      21     1     1     2   511   502 -1.102051626E+02  1.050446720E+02  3.063456898E+02  3.420924475E+02  3.814697266E-06  0.00000E+00  9.000E+00
#rwgt            2          11   3.2101400085568672E-003           9      339328           0
</event>
<event>
      5   9999  3.19816E-02  9.60926E+01 -1.00000E+00  1.24612E-01
      21    -1     0     0   502   512  0.000000000E+00  0.000000000E+00  4.712461449E+02  4.712461449E+02  0.000000000E+00  0.00000E+00  9.000E+00
      21    -1     0     0   501   502  0.000000000E+00  0.000000000E+00 -1.504653895E+03  1.504653895E+03  0.000000000E+00  0.00000E+00  9.000E+00
      25     1     1     2     0     0  2.581560408E+02 -2.097538991E+02 -1.347232275E+03  1.393305796E+03  1.250000000E+02  0.00000E+00  9.000E+00
      25     1     1     2     0     0 -2.157248034E+02  2.959709520E+02  2.068674363E+02  4.388110430E+02  1.250000000E+02  0.00000E+00  9.000E+00
      21     1     1     2   501   512 -4.243123736E+01 -8.621705298E+01  1.069570883E+02  1.437832009E+02  1.348699152E-06  0.00000E+00  9.000E+00
#rwgt            1           1   3.2069132671448862E-002           9      339378           0
</event>
<event>
      5   9999  3.19816E-02  6.62846E+01 -1.00000E+00  1.32432E-01
      21    -1     0     0   502   501  0.000000000E+00  0.000000000E+00  2.732034687E+02  2.732034687E+02  0.000000000E+00  0.00000E+00  9.000E+00
      21    -1     0     0   501   511  0.000000000E+00  0.000000000E+00 -4.361283819E+02  4.361283819E+02  0.000000000E+00  0.00000E+00  9.000E+00
      25     1     1     2     0     0  2.476277124E+02  7.193323168E+01 -7.358068447E+01  2.958597487E+02  1.250000000E+02  0.00000E+00  9.000E+00
      25     1     1     2     0     0 -3.068892572E+02 -4.223949937E+01 -5.411130167E+01  3.384054144E+02  1.250000000E+02  0.00000E+00  9.000E+00
      21     1     1     2   502   511  5.926154487E+01 -2.969373232E+01 -3.523292704E+01  7.506668760E+01  1.507891493E-06  0.00000E+00  9.000E+00
#rwgt            1           1   2.7707654351945478E-002           9      339501           0
</event>
<event>
      5   9999  3.19816E-02  8.44150E+01 -1.00000E+00  1.27230E-01
      21    -1     0     0   512   501  0.000000000E+00  0.000000000E+00  2.290474771E+02  2.290474771E+02  0.000000000E+00  0.00000E+00  9.000E+00
      21    -1     0     0   501   502  0.000000000E+00  0.000000000E+00 -5.706481668E+02  5.706481668E+02  0.000000000E+00  0.00000E+00  9.000E+00
      25     1     1     2     0     0 -2.408830868E+02 -3.227221786E+01 -1.462467822E+02  3.099665770E+02  1.250000000E+02  0.00000E+00  9.000E+00
      25     1     1     2     0     0  2.691357945E+02  1.118189589E+02 -2.367177452E+02  3.957244576E+02  1.250000000E+02  0.00000E+00  9.000E+00
      21     1     1     2   512   502 -2.825270773E+01 -7.954674103E+01  4.136383773E+01  9.400460933E+01  6.743495762E-07  0.00000E+00  9.000E+00
#rwgt            1           1   2.7890854467432055E-002           9      339589           0
</event>
<event>
      5   9999  3.19816E-02  5.13965E+01 -1.00000E+00  1.38396E-01
      21    -1     0     0   511   501  0.000000000E+00  0.000000000E+00  1.475064718E+03  1.475064718E+03  0.000000000E+00  0.00000E+00  9.000E+00
      21    -1     0     0   501   502  0.000000000E+00  0.000000000E+00 -7.270331229E+01  7.270331229E+01  0.000000000E+00  0.00000E+00  9.000E+00
      25     1     1     2     0     0 -4.558204672E+01 -1.653682160E+02  1.068537933E+03  1.089413918E+03  1.250000000E+02  0.00000E+00  9.000E+00
      25     1     1     2     0     0  3.262367413E+01  2.151043167E+02  2.209597892E+02  3.343387498E+02  1.250000000E+02  0.00000E+00  9.000E+00
      21     1     1     2   511   502  1.295837258E+01 -4.973610069E+01  1.128636829E+02  1.240153621E+02  1.348699152E-06  0.00000E+00  9.000E+00
#rwgt            1           1   3.1725721272499466E-002           9      339643           0
</event>
<event>
      5   9999  3.19816E-02  2.59417E+01 -1.00000E+00  1.57557E-01
      21    -1     0     0   502   501  0.000000000E+00  0.000000000E+00  1.123077210E+02  1.123077210E+02  0.000000000E+00  0.00000E+00  9.000E+00
      21    -1     0     0   512   502  0.000000000E+00  0.000000000E+00 -1.018557919E+03  1.018557919E+03  0.000000000E+00  0.00000E+00  9.000E+00
      25     1     1     2     0     0  2.403304710E+02 -1.101569982E+02 -5.522896111E+02  6.249336877E+02  1.250000000E+02  0.00000E+00  9.000E+00
      25     1     1     2     0     0 -2.479520615E+02  1.349538733E+02 -2.455981341E+02  3.945075616E+02  1.250000000E+02  0.00000E+00  9.000E+00
      21     1     1     2   512   501  7.621590557E+00 -2.479687515E+01 -1.083624526E+02  1.114243905E+02  0.000000000E+00  0.00000E+00  9.000E+00
#rwgt            1           1   3.2448408347243211E-002           9      339763           0
</event>
</LesHouchesEvents>
 #Random number generator exit values:            9        339924             0
