<LesHouchesEvents version="3.0">
<!--
file generated with POWHEG-BOX-V2
Input file powheg.input contained:
! ggHH production parameters:
mtdep 0              ! 0: Higgs effective field theory (HEFT)

hmass 125            ! Higgs boson mass
topmass 173          ! top quark mass (THIS VALUE IS HARD CODED IN THE VIRTUAL
hdecaymode -1        ! PDG code for Higgs boson decay products (it affects only the SMC)
!                      allowed values are:
!                      0 all decay channels open
!                      1-6 d dbar, u ubar,..., t tbar (as in HERWIG)
!                      7-9 e+ e-, mu+ mu-, tau+ tau-
!                      10  W+W-
!                      11  ZZ
!                      12  gamma gamma
!                      -1  all decay channels closed

! general parameters:
numevts  3000        ! number of events to be generated
ih1         1        ! hadron 1 (1 for protons, -1 for antiprotons)
ih2         1        ! hadron 2 (1 for protons, -1 for antiprotons)
ebeam1 7000d0        ! energy of beam 1
ebeam2 7000d0        ! energy of beam 2
! To be set only if using LHA pdfs
lhans1 90200         ! pdf set for hadron 1 (LHA numbering)
lhans2 90200 	     ! pdf set for hadron 2 (LHA numbering)
! To be set only if using internal mlm pdf
# ndns1 131          ! pdf set for hadron 1 (mlm numbering)
# ndns2 131          ! pdf set for hadron 2 (mlm numbering)
! To be set only if using different pdf sets for the two incoming hadrons
! QCDLambda5 0.25    ! for not equal pdf sets

! Parameters to allow or not the use of stored data
use-old-grid    1    ! if 1 use old grid if file pwggrids.dat is present (<> 1 regenerate)
use-old-ubound  1    ! if 1 use norm of upper bounding function stored in pwgubound.dat, if present;
!
ncall1  10000        ! number of calls for initializing the integration grid
itmx1       3        ! number of iterations for initializing the integration grid
ncall2  10000        ! number of calls for computing the integral and finding upper bound
itmx2       3        ! number of iterations for computing the integral and finding upper bound
foldcsi     1        ! number of folds on csi integration
foldy       1        ! number of folds on  y  integration
foldphi     1        ! number of folds on phi integration
nubound 10000        ! number of bbarra calls to setup norm of upper bounding function
# icsimax   1        ! <= 100, number of csi subdivision when computing the upper bounds
# iymax     1        ! <= 100, number of y subdivision when computing the upper bounds
# xupbound 2d0       ! increase upper bound for radiation generation

! OPTIONAL PARAMETERS

! scale settings:
#fixedscale   1      ! (dafault 0) Use muren = mufac = 2*m_H
facscfact   1d0      ! (default 1d0) fac scale factor: mufact = muref * facscfact
renscfact   1d0      ! (default 1d0) ren scale factor: muren  = muref * renscfact

! Born, plots and powheg strategy:
#bornonly         1  ! (default 0) if 1 do Born only
# testplots 1
fastbtlbound      1  ! fast evaluation of Btilde upper bounds
storemintupb      1  ! store function calls in binary file for more precise generation
ubexcess_correct  1  ! corrects for error in upper bound estimate
storeinfo_rwgt    1  ! store info to allow for reweighting
softtest          0  ! no check of the soft limit in the real
colltest          0  ! no check of the collinear limit in the real

! PARAMETERS needed for ggHH
hdamp           250

! PARAMETERS for parallel runnning
! -- non parallel (for testing purposes only)
#iseed    547        !  Start the random number generator with seed iseed
#rand1     0         !  skipping  rand2*100000000+rand1 numbers.
#rand2     0         !  (see RM48 short writeup in CERNLIB)

! -- parallel
manyseeds 1          ! Used to perform multiple runs with different random
                     ! seeds in the same directory.
                     ! If set to 1, the program asks for an integer j;
                     ! The file pwgseeds.dat at line j is read, and the
                     ! integer at line j is used to initialize the random
                     ! sequence for the generation of the event.
                     ! The event file is called pwgevents-'j'.lhe
parallelstage 4
xgriditeration 1
maxseeds    1000

! PARAMETERS for reweighting
#rwl_file 'reweight_setup.xml'


! PARAMETERS for Pythia8
#py8tune  xxx
#py8hepmc 1
#py8nohad 1
#py8nompi 1
End of powheg.input content
PDF package: lha
 Random number generator initialized with:            7             0             0
-->
<init>
     2212     2212  7.00000E+03  7.00000E+03     -1     -1     -1     -1     -4      1
  3.19670E-02  5.76697E-06  1.00000E+00   9999
</init>
<event>
      5   9999  3.19816E-02  5.18237E+01 -1.00000E+00  1.38194E-01
      21    -1     0     0   502   501  0.000000000E+00  0.000000000E+00  4.539734059E+02  4.539734059E+02  0.000000000E+00  0.00000E+00  9.000E+00
      21    -1     0     0   511   502  0.000000000E+00  0.000000000E+00 -2.901376851E+02  2.901376851E+02  0.000000000E+00  0.00000E+00  9.000E+00
      25     1     1     2     0     0  1.746857348E+02 -1.220485900E+02  1.877885667E+02  3.103232348E+02  1.250000000E+02  0.00000E+00  9.000E+00
      25     1     1     2     0     0 -1.617047514E+02  1.722202431E+02  1.108658165E+02  2.893518067E+02  1.250000000E+02  0.00000E+00  9.000E+00
      21     1     1     2   511   501 -1.298098335E+01 -5.017165301E+01 -1.348186624E+02  1.444360496E+02  1.907348633E-06  0.00000E+00  9.000E+00
#rwgt            1           1   3.3180373650256209E-002           7          16           0
</event>
<event>
      5   9999  3.19816E-02  1.66466E+02 -1.00000E+00  1.14629E-01
      21    -1     0     0   502   501  0.000000000E+00  0.000000000E+00  4.214548386E+02  4.214548386E+02  0.000000000E+00  0.00000E+00  9.000E+00
      21    -1     0     0   501   512  0.000000000E+00  0.000000000E+00 -1.167559029E+03  1.167559029E+03  0.000000000E+00  0.00000E+00  9.000E+00
      25     1     1     2     0     0 -3.220173632E+02 -4.935039015E+02 -4.685289410E+02  7.631419603E+02  1.250000000E+02  0.00000E+00  9.000E+00
      25     1     1     2     0     0  1.652574262E+02  5.495146011E+02 -1.258078574E+02  6.006071351E+02  1.250000000E+02  0.00000E+00  9.000E+00
      21     1     1     2   502   512  1.567599369E+02 -5.601069964E+01 -1.517673916E+02  2.252647719E+02  3.814697266E-06  0.00000E+00  9.000E+00
#rwgt            1           1   3.0766901905355699E-002           7          77           0
</event>
<event>
      5   9999  3.19816E-02  4.03394E+02 -1.00000E+00  1.01575E-01
       3    -1     0     0   502     0  0.000000000E+00  0.000000000E+00  3.539252882E+02  3.539252882E+02  0.000000000E+00  0.00000E+00  9.000E+00
      21    -1     0     0   501   502  0.000000000E+00  0.000000000E+00 -2.142653982E+03  2.142653982E+03  0.000000000E+00  0.00000E+00  9.000E+00
      25     1     1     2     0     0  4.765426037E+02 -2.012541963E+01 -5.409947489E+02  7.319823795E+02  1.250000000E+02  0.00000E+00  9.000E+00
      25     1     1     2     0     0 -3.606033405E+02 -3.662486300E+02 -1.254167253E+03  1.361151471E+03  1.250000000E+02  0.00000E+00  9.000E+00
       3     1     1     2   501     0 -1.159392631E+02  3.863740496E+02  6.433308551E+00  4.034454194E+02  9.428090806E-06  0.00000E+00  9.000E+00
#rwgt            2          19   7.0991389969502598E-005           7         215           0
</event>
<event>
      5   9999  3.19816E-02  4.59453E+01 -1.00000E+00  1.41204E-01
      21    -1     0     0   511   501  0.000000000E+00  0.000000000E+00  1.033572032E+03  1.033572032E+03  0.000000000E+00  0.00000E+00  9.000E+00
      21    -1     0     0   501   502  0.000000000E+00  0.000000000E+00 -1.329409388E+02  1.329409388E+02  0.000000000E+00  0.00000E+00  9.000E+00
      25     1     1     2     0     0 -6.896461250E+00  1.388304853E+02  8.843642059E+02  9.039062526E+02  1.250000000E+02  0.00000E+00  9.000E+00
      25     1     1     2     0     0  1.316796197E+01 -9.331523139E+01 -6.479930161E+01  1.694257275E+02  1.250000000E+02  0.00000E+00  9.000E+00
      21     1     1     2   511   502 -6.271500724E+00 -4.551525386E+01  8.106618891E+01  9.318099076E+01  9.536743164E-07  0.00000E+00  9.000E+00
#rwgt            1           1   2.7471438026288424E-002           7         309           0
</event>
<event>
      5   9999  3.19816E-02  1.00872E+02 -1.00000E+00  1.23659E-01
      21    -1     0     0   502   501  0.000000000E+00  0.000000000E+00  3.434305770E+02  3.434305770E+02  0.000000000E+00  0.00000E+00  9.000E+00
      21    -1     0     0   512   502  0.000000000E+00  0.000000000E+00 -1.312050816E+03  1.312050816E+03  0.000000000E+00  0.00000E+00  9.000E+00
      25     1     1     2     0     0 -3.949164083E+01 -4.057563700E+02 -6.828338215E+02  8.050371726E+02  1.250000000E+02  0.00000E+00  9.000E+00
      25     1     1     2     0     0  4.302694848E+01  5.065661140E+02  2.456861510E+01  5.241079688E+02  1.250000000E+02  0.00000E+00  9.000E+00
      21     1     1     2   512   501 -3.535307651E+00 -1.008097440E+02 -3.103550328E+02  3.263362519E+02  7.629394531E-06  0.00000E+00  9.000E+00
#rwgt            1           1   2.4137499801695505E-002           7         449           0
</event>
<event>
      5   9999  3.19816E-02  4.39443E+01 -1.00000E+00  1.42352E-01
      21    -1     0     0   511   501  0.000000000E+00  0.000000000E+00  6.974294190E+02  6.974294190E+02  0.000000000E+00  0.00000E+00  9.000E+00
      21    -1     0     0   501   502  0.000000000E+00  0.000000000E+00 -3.718913923E+02  3.718913923E+02  0.000000000E+00  0.00000E+00  9.000E+00
      25     1     1     2     0     0 -2.486101814E+01 -4.361888595E+02  2.612593091E+02  5.241757510E+02  1.250000000E+02  0.00000E+00  9.000E+00
      25     1     1     2     0     0  4.564400508E+01  4.749079073E+02  3.970173287E+01  4.947950315E+02  1.250000000E+02  0.00000E+00  9.000E+00
      21     1     1     2   511   502 -2.078298694E+01 -3.871904781E+01  2.457698481E+01  5.035002872E+01  3.371747881E-07  0.00000E+00  9.000E+00
#rwgt            1           1   3.0987481890384614E-002           7         578           0
</event>
<event>
      5   9999  3.19816E-02  1.28217E+01 -1.00000E+00  1.84054E-01
      21    -1     0     0   512   501  0.000000000E+00  0.000000000E+00  4.008003961E+02  4.008003961E+02  0.000000000E+00  0.00000E+00  9.000E+00
      21    -1     0     0   501   502  0.000000000E+00  0.000000000E+00 -3.807055852E+02  3.807055852E+02  0.000000000E+00  0.00000E+00  9.000E+00
      25     1     1     2     0     0 -1.174648036E+02 -3.351932431E+02  4.978051760E+01  3.798099396E+02  1.250000000E+02  0.00000E+00  9.000E+00
      25     1     1     2     0     0  1.277414931E+02  3.428603893E+02 -3.407006042E+01  3.881454684E+02  1.250000000E+02  0.00000E+00  9.000E+00
      21     1     1     2   512   502 -1.027668945E+01 -7.667146240E+00  4.384353679E+00  1.355057322E+01  2.920019320E-07  0.00000E+00  9.000E+00
#rwgt            1           1   2.8116259394595049E-002           7         692           0
</event>
<event>
      5   9999  3.19816E-02  4.41635E+01 -1.00000E+00  1.42223E-01
      21    -1     0     0   511   501  0.000000000E+00  0.000000000E+00  5.437896543E+02  5.437896543E+02  0.000000000E+00  0.00000E+00  9.000E+00
      21    -1     0     0   501   502  0.000000000E+00  0.000000000E+00 -6.685007616E+02  6.685007616E+02  0.000000000E+00  0.00000E+00  9.000E+00
      25     1     1     2     0     0  2.970092450E+02  4.408299038E+02  7.614485778E+01  5.513334155E+02  1.250000000E+02  0.00000E+00  9.000E+00
      25     1     1     2     0     0 -2.587507690E+02 -4.628912901E+02 -2.460054846E+02  5.977993020E+02  1.250000000E+02  0.00000E+00  9.000E+00
      21     1     1     2   511   502 -3.825847596E+01  2.206138637E+01  4.514951955E+01  6.315769840E+01  9.536743164E-07  0.00000E+00  9.000E+00
#rwgt            1           1   2.6177702156970097E-002           7         929           0
</event>
<event>
      5   9999  3.19816E-02  1.60742E+02 -1.00000E+00  1.15215E-01
      21    -1     0     0   502   501  0.000000000E+00  0.000000000E+00  1.225998629E+03  1.225998629E+03  0.000000000E+00  0.00000E+00  9.000E+00
       2    -1     0     0   501     0  0.000000000E+00  0.000000000E+00 -1.064929183E+03  1.064929183E+03  0.000000000E+00  0.00000E+00  9.000E+00
      25     1     1     2     0     0 -1.537221976E+02 -4.647991390E+02 -2.336494145E+02  5.566738745E+02  1.250000000E+02  0.00000E+00  9.000E+00
      25     1     1     2     0     0  2.458490993E+02  5.965203328E+02  9.505672722E+02  1.155630315E+03  1.250000000E+02  0.00000E+00  9.000E+00
       2     1     1     2   502     0 -9.212690165E+01 -1.317211938E+02 -5.558484121E+02  5.786236222E+02  7.629394531E-06  0.00000E+00  9.000E+00
#rwgt            2          13   1.3536742365176514E-003           7        1084           0
</event>
<event>
      5   9999  3.19816E-02  1.26573E+01 -1.00000E+00  1.84625E-01
      21    -1     0     0   502   501  0.000000000E+00  0.000000000E+00  1.753910141E+03  1.753910141E+03  0.000000000E+00  0.00000E+00  9.000E+00
      21    -1     0     0   501   511  0.000000000E+00  0.000000000E+00 -1.402972970E+02  1.402972970E+02  0.000000000E+00  0.00000E+00  9.000E+00
      25     1     1     2     0     0  6.308439014E+01  2.032449996E+02  1.623940652E+03  1.642588327E+03  1.250000000E+02  0.00000E+00  9.000E+00
      25     1     1     2     0     0 -5.281069237E+01 -1.958518691E+02 -1.322187276E+01  2.386351646E+02  1.250000000E+02  0.00000E+00  9.000E+00
      21     1     1     2   502   511 -1.027369777E+01 -7.393130437E+00  2.894064155E+00  1.298394589E+01  2.346637211E-07  0.00000E+00  9.000E+00
#rwgt            1           1   3.2388880454263691E-002           7        1103           0
</event>
<event>
      5   9999  3.19816E-02  1.62505E+02 -1.00000E+00  1.15032E-01
      21    -1     0     0   502   501  0.000000000E+00  0.000000000E+00  8.198937292E+01  8.198937292E+01  0.000000000E+00  0.00000E+00  9.000E+00
       2    -1     0     0   501     0  0.000000000E+00  0.000000000E+00 -1.328049512E+03  1.328049512E+03  0.000000000E+00  0.00000E+00  9.000E+00
      25     1     1     2     0     0 -2.063879974E+02 -1.677173240E+02 -4.054318158E+02  5.007245385E+02  1.250000000E+02  0.00000E+00  9.000E+00
      25     1     1     2     0     0  9.588476294E+01  4.856613009E+01 -5.727040181E+02  5.959592680E+02  1.250000000E+02  0.00000E+00  9.000E+00
       2     1     1     2   502     0  1.105032345E+02  1.191511939E+02 -2.679243050E+02  3.133550782E+02  6.607249480E-06  0.00000E+00  9.000E+00
#rwgt            1           1   3.0358875239384658E-002           7        1311           0
</event>
<event>
      5   9999  3.19816E-02  4.41374E+01 -1.00000E+00  1.42238E-01
      21    -1     0     0   511   501  0.000000000E+00  0.000000000E+00  1.116987749E+03  1.116987749E+03  0.000000000E+00  0.00000E+00  9.000E+00
      21    -1     0     0   501   502  0.000000000E+00  0.000000000E+00 -3.850471035E+02  3.850471035E+02  0.000000000E+00  0.00000E+00  9.000E+00
      25     1     1     2     0     0  4.943837244E+02 -3.767261997E+02  2.604592288E+02  6.854209701E+02  1.250000000E+02  0.00000E+00  9.000E+00
      25     1     1     2     0     0 -5.093677815E+02  3.352100725E+02  4.356170918E+02  7.597424434E+02  1.250000000E+02  0.00000E+00  9.000E+00
      21     1     1     2   511   502  1.498405715E+01  4.151612718E+01  3.586432491E+01  5.687143911E+01  1.261592536E-06  0.00000E+00  9.000E+00
#rwgt            1           1   3.1107620530289197E-002           7        1376           0
</event>
<event>
      5   9999  3.19816E-02  8.06559E+01 -1.00000E+00  1.28178E-01
      21    -1     0     0   502   512  0.000000000E+00  0.000000000E+00  5.225908852E+02  5.225908852E+02  0.000000000E+00  0.00000E+00  9.000E+00
      21    -1     0     0   501   502  0.000000000E+00  0.000000000E+00 -9.475399106E+02  9.475399106E+02  0.000000000E+00  0.00000E+00  9.000E+00
      25     1     1     2     0     0  1.798618686E+02  1.033808524E+02 -4.366519152E+01  2.461087998E+02  1.250000000E+02  0.00000E+00  9.000E+00
      25     1     1     2     0     0 -1.288365017E+02 -1.658451498E+02 -7.799164939E+02  8.173115656E+02  1.250000000E+02  0.00000E+00  9.000E+00
      21     1     1     2   501   512 -5.102536688E+01  6.246429736E+01  3.986326600E+02  4.067104303E+02  7.629394531E-06  0.00000E+00  9.000E+00
#rwgt            1           1   2.7478871543578563E-002           7        1498           0
</event>
<event>
      5   9999  3.19816E-02  1.02633E+02 -1.00000E+00  1.23322E-01
      21    -1     0     0   511   501  0.000000000E+00  0.000000000E+00  1.668583694E+03  1.668583694E+03  0.000000000E+00  0.00000E+00  9.000E+00
      21    -1     0     0   501   502  0.000000000E+00  0.000000000E+00 -4.907059104E+02  4.907059104E+02  0.000000000E+00  0.00000E+00  9.000E+00
      25     1     1     2     0     0 -2.081967778E+02  9.556542331E+01  3.489810405E+02  4.357653211E+02  1.250000000E+02  0.00000E+00  9.000E+00
      25     1     1     2     0     0  2.428977068E+02 -1.921543663E+02 -3.824968571E+02  5.077907464E+02  1.250000000E+02  0.00000E+00  9.000E+00
      21     1     1     2   511   502 -3.470092905E+01  9.658894295E+01  1.211393600E+03  1.215733537E+03  0.000000000E+00  0.00000E+00  9.000E+00
#rwgt            1           1   2.1664853812096499E-002           7        1552           0
</event>
<event>
      5   9999  3.19816E-02  6.68335E+01 -1.00000E+00  1.32247E-01
      21    -1     0     0   512   501  0.000000000E+00  0.000000000E+00  3.463359467E+02  3.463359467E+02  0.000000000E+00  0.00000E+00  9.000E+00
      21    -1     0     0   501   502  0.000000000E+00  0.000000000E+00 -1.279005396E+03  1.279005396E+03  0.000000000E+00  0.00000E+00  9.000E+00
      25     1     1     2     0     0  3.346714002E+02  9.861492668E+01 -1.031430556E+03  1.095994454E+03  1.250000000E+02  0.00000E+00  9.000E+00
      25     1     1     2     0     0 -3.976021907E+02 -7.611100108E+01  1.737637517E+01  4.240369381E+02  1.250000000E+02  0.00000E+00  9.000E+00
      21     1     1     2   512   502  6.293079044E+01 -2.250392560E+01  8.138473220E+01  1.053099506E+02  9.536743164E-07  0.00000E+00  9.000E+00
#rwgt            1           1   3.2655901974322839E-002           7        1627           0
</event>
<event>
      5   9999  3.19816E-02  1.23054E+02 -1.00000E+00  1.19907E-01
      21    -1     0     0   502   501  0.000000000E+00  0.000000000E+00  6.670313059E+01  6.670313059E+01  0.000000000E+00  0.00000E+00  9.000E+00
       1    -1     0     0   501     0  0.000000000E+00  0.000000000E+00 -2.938113000E+03  2.938113000E+03  0.000000000E+00  0.00000E+00  9.000E+00
      25     1     1     2     0     0  2.471888004E+02 -3.809551947E+01 -6.859303325E+02  7.407286903E+02  1.250000000E+02  0.00000E+00  9.000E+00
      25     1     1     2     0     0 -3.543401085E+02 -2.241000875E+01 -9.402902874E+02  1.012832634E+03  1.250000000E+02  0.00000E+00  9.000E+00
       1     1     1     2   502     0  1.071513081E+02  6.050552822E+01 -1.245189249E+03  1.251254805E+03  1.525878906E-05  0.00000E+00  9.000E+00
#rwgt            1           1   3.9927057148092124E-002           7        1718           0
</event>
<event>
      5   9999  3.19816E-02  9.49081E+01 -1.00000E+00  1.24857E-01
      21    -1     0     0   502   511  0.000000000E+00  0.000000000E+00  3.382457082E+02  3.382457082E+02  0.000000000E+00  0.00000E+00  9.000E+00
      21    -1     0     0   501   502  0.000000000E+00  0.000000000E+00 -3.770300637E+02  3.770300637E+02  0.000000000E+00  0.00000E+00  9.000E+00
      25     1     1     2     0     0 -2.184167775E+02 -1.093832550E+02 -8.547310370E+01  2.874043086E+02  1.250000000E+02  0.00000E+00  9.000E+00
      25     1     1     2     0     0  2.004644362E+02  2.025780429E+02 -2.004462926E+01  3.118503500E+02  1.250000000E+02  0.00000E+00  9.000E+00
      21     1     1     2   501   511  1.795234127E+01 -9.319478785E+01  6.673337746E+01  1.160211132E+02  1.348699152E-06  0.00000E+00  9.000E+00
#rwgt            1           1   3.3892452322360392E-002           7        1775           0
</event>
<event>
      5   9999  3.19816E-02  2.01971E+02 -1.00000E+00  1.11493E-01
      21    -1     0     0   512   501  0.000000000E+00  0.000000000E+00  4.640111296E+02  4.640111296E+02  0.000000000E+00  0.00000E+00  9.000E+00
      21    -1     0     0   501   502  0.000000000E+00  0.000000000E+00 -4.892137484E+02  4.892137484E+02  0.000000000E+00  0.00000E+00  9.000E+00
      25     1     1     2     0     0 -2.411570923E+00 -1.321865969E+02  1.584079233E+02  2.412409216E+02  1.250000000E+02  0.00000E+00  9.000E+00
      25     1     1     2     0     0  2.019950148E+02  1.631515091E+02 -3.478140347E+02  4.516857355E+02  1.250000000E+02  0.00000E+00  9.000E+00
      21     1     1     2   512   502 -1.995834439E+02 -3.096491215E+01  1.642034925E+02  2.602982209E+02  3.814697266E-06  0.00000E+00  9.000E+00
#rwgt            1           1   2.9775723915547694E-002           7        1853           0
</event>
<event>
      5   9999  3.19816E-02  5.68787E+01 -1.00000E+00  1.35955E-01
      21    -1     0     0   511   501  0.000000000E+00  0.000000000E+00  5.927390232E+02  5.927390232E+02  0.000000000E+00  0.00000E+00  9.000E+00
      21    -1     0     0   501   502  0.000000000E+00  0.000000000E+00 -4.610696104E+02  4.610696104E+02  0.000000000E+00  0.00000E+00  9.000E+00
      25     1     1     2     0     0  2.999744883E+02 -2.608809435E+02 -1.583687871E+02  4.458130023E+02  1.250000000E+02  0.00000E+00  9.000E+00
      25     1     1     2     0     0 -3.225943394E+02  3.130684124E+02  2.147455619E+02  5.136337168E+02  1.250000000E+02  0.00000E+00  9.000E+00
      21     1     1     2   511   502  2.261985111E+01 -5.218746883E+01  7.529263801E+01  9.436191449E+01  9.536743164E-07  0.00000E+00  9.000E+00
#rwgt            1           1   2.8357606084939327E-002           7        1899           0
</event>
<event>
      5   9999  3.19816E-02  1.47039E+02 -1.00000E+00  1.16738E-01
      21    -1     0     0   512   501  0.000000000E+00  0.000000000E+00  2.521717218E+02  2.521717218E+02  0.000000000E+00  0.00000E+00  9.000E+00
      21    -1     0     0   501   502  0.000000000E+00  0.000000000E+00 -2.263148508E+03  2.263148508E+03  0.000000000E+00  0.00000E+00  9.000E+00
      25     1     1     2     0     0  2.610266714E+02 -2.172025801E+02 -2.019469777E+02  4.143904750E+02  1.250000000E+02  0.00000E+00  9.000E+00
      25     1     1     2     0     0 -2.029006918E+02  8.214059740E+01 -1.907423077E+03  1.924007163E+03  1.250000000E+02  0.00000E+00  9.000E+00
      21     1     1     2   512   502 -5.812597962E+01  1.350619827E+02  9.839326767E+01  1.769225927E+02  2.336015456E-06  0.00000E+00  9.000E+00
#rwgt            1           1   3.3208714777907815E-002           7        1984           0
</event>
<event>
      5   9999  3.19816E-02  1.37903E+02 -1.00000E+00  1.17859E-01
      21    -1     0     0   502   501  0.000000000E+00  0.000000000E+00  7.783812809E+01  7.783812809E+01  0.000000000E+00  0.00000E+00  9.000E+00
       2    -1     0     0   501     0  0.000000000E+00  0.000000000E+00 -2.199155001E+03  2.199155001E+03  0.000000000E+00  0.00000E+00  9.000E+00
      25     1     1     2     0     0  7.114001956E+01  6.513455882E+01 -3.047569494E+01  1.608016826E+02  1.250000000E+02  0.00000E+00  9.000E+00
      25     1     1     2     0     0 -5.610262763E+01  7.194636586E+01 -6.248518647E+02  6.437302519E+02  1.250000000E+02  0.00000E+00  9.000E+00
       2     1     1     2   502     0 -1.503739192E+01 -1.370809247E+02 -1.465989313E+03  1.472461194E+03  0.000000000E+00  0.00000E+00  9.000E+00
#rwgt            1           1   2.6696866340492339E-002           7        2059           0
</event>
<event>
      5   9999  3.19816E-02  7.33590E+01 -1.00000E+00  1.30198E-01
      21    -1     0     0   502   501  0.000000000E+00  0.000000000E+00  2.622348296E+02  2.622348296E+02  0.000000000E+00  0.00000E+00  9.000E+00
      21    -1     0     0   511   502  0.000000000E+00  0.000000000E+00 -5.078380196E+02  5.078380196E+02  0.000000000E+00  0.00000E+00  9.000E+00
      25     1     1     2     0     0 -2.406397021E+02  9.256055928E+01 -7.693762613E+01  2.966805044E+02  1.250000000E+02  0.00000E+00  9.000E+00
      25     1     1     2     0     0  3.139982476E+02 -9.229035504E+01 -8.192555332E+01  3.597905022E+02  1.250000000E+02  0.00000E+00  9.000E+00
      21     1     1     2   511   501 -7.335854553E+01 -2.702042354E-01 -8.674001061E+01  1.136018426E+02  9.536743164E-07  0.00000E+00  9.000E+00
#rwgt            1           1   2.7791071269697584E-002           7        2096           0
</event>
<event>
      5   9999  3.19816E-02  2.36718E+01 -1.00000E+00  1.60547E-01
      21    -1     0     0   502   501  0.000000000E+00  0.000000000E+00  1.390881627E+03  1.390881627E+03  0.000000000E+00  0.00000E+00  9.000E+00
      21    -1     0     0   501   512  0.000000000E+00  0.000000000E+00 -2.429150711E+02  2.429150711E+02  0.000000000E+00  0.00000E+00  9.000E+00
      25     1     1     2     0     0  2.263341539E+02  3.364540560E+01  2.135161364E+02  3.370063842E+02  1.250000000E+02  0.00000E+00  9.000E+00
      25     1     1     2     0     0 -2.178417854E+02 -1.154935642E+01  1.100605286E+03  1.128957672E+03  1.250000000E+02  0.00000E+00  9.000E+00
      21     1     1     2   502   512 -8.492368497E+00 -2.209604919E+01 -1.661548666E+02  1.678326411E+02  5.394796609E-06  0.00000E+00  9.000E+00
#rwgt            1           1   2.8047346560093764E-002           7        2158           0
</event>
<event>
      5   9999  3.19816E-02  5.47019E+01 -1.00000E+00  1.36884E-01
      21    -1     0     0   511   501  0.000000000E+00  0.000000000E+00  3.153760518E+02  3.153760518E+02  0.000000000E+00  0.00000E+00  9.000E+00
      21    -1     0     0   501   502  0.000000000E+00  0.000000000E+00 -6.103642089E+02  6.103642089E+02  0.000000000E+00  0.00000E+00  9.000E+00
      25     1     1     2     0     0  3.063237206E+02  1.579279068E+02 -3.213637952E+02  4.875193682E+02  1.250000000E+02  0.00000E+00  9.000E+00
      25     1     1     2     0     0 -3.225051586E+02 -1.056741227E+02 -2.585494479E+01  3.625880248E+02  1.250000000E+02  0.00000E+00  9.000E+00
      21     1     1     2   511   502  1.618143806E+01 -5.225378405E+01  5.223058291E+01  7.563286770E+01  1.507891493E-06  0.00000E+00  9.000E+00
#rwgt            2          11   2.8536265533374711E-003           7        2286           0
</event>
<event>
      5   9999  3.19816E-02  1.89579E+01 -1.00000E+00  1.68310E-01
      21    -1     0     0   512   501  0.000000000E+00  0.000000000E+00  3.265792790E+02  3.265792790E+02  0.000000000E+00  0.00000E+00  9.000E+00
      21    -1     0     0   501   502  0.000000000E+00  0.000000000E+00 -3.901124201E+02  3.901124201E+02  0.000000000E+00  0.00000E+00  9.000E+00
      25     1     1     2     0     0  3.139582781E+01 -3.296332503E+02 -5.712780415E+01  3.585141054E+02  1.250000000E+02  0.00000E+00  9.000E+00
      25     1     1     2     0     0 -3.864788566E+01  3.121172234E+02 -1.122170902E+01  3.386174050E+02  1.250000000E+02  0.00000E+00  9.000E+00
      21     1     1     2   512   502  7.252057849E+00  1.751602690E+01  4.816372140E+00  1.956018870E+01  4.172325134E-07  0.00000E+00  9.000E+00
#rwgt            1           1   3.1939718632748679E-002           7        2306           0
</event>
<event>
      5   9999  3.19816E-02  4.02920E+01 -1.00000E+00  1.44645E-01
      21    -1     0     0   502   501  0.000000000E+00  0.000000000E+00  3.266322760E+02  3.266322760E+02  0.000000000E+00  0.00000E+00  9.000E+00
      21    -1     0     0   511   502  0.000000000E+00  0.000000000E+00 -1.714275277E+02  1.714275277E+02  0.000000000E+00  0.00000E+00  9.000E+00
      25     1     1     2     0     0  1.367581395E+02 -1.707020990E+01  2.093392591E+02  2.800751795E+02  1.250000000E+02  0.00000E+00  9.000E+00
      25     1     1     2     0     0 -1.044208950E+02 -6.966149509E+00 -6.615659712E+01  1.759373351E+02  1.250000000E+02  0.00000E+00  9.000E+00
      21     1     1     2   511   501 -3.233724452E+01  2.403635941E+01  1.202208635E+01  4.204728906E+01  9.830249847E-07  0.00000E+00  9.000E+00
#rwgt            1           1   2.4795830618987009E-002           7        2498           0
</event>
<event>
      5   9999  3.19816E-02  3.00641E+01 -1.00000E+00  1.52975E-01
       2    -1     0     0   502     0  0.000000000E+00  0.000000000E+00  7.482162924E+02  7.482162924E+02  0.000000000E+00  0.00000E+00  9.000E+00
      21    -1     0     0   501   502  0.000000000E+00  0.000000000E+00 -4.427047809E+02  4.427047809E+02  0.000000000E+00  0.00000E+00  9.000E+00
      25     1     1     2     0     0 -9.866298194E+01  1.193446662E+02 -3.264301376E+02  3.823076878E+02  1.250000000E+02  0.00000E+00  9.000E+00
      25     1     1     2     0     0  1.203322380E+02 -1.401843849E+02  5.349583196E+01  2.293868203E+02  1.250000000E+02  0.00000E+00  9.000E+00
       2     1     1     2   501     0 -2.166925607E+01  2.083971867E+01  5.784458172E+02  5.792265653E+02  7.629394531E-06  0.00000E+00  9.000E+00
#rwgt            1           1   2.8997140556314457E-002           7        2564           0
</event>
<event>
      5   9999  3.19816E-02  9.61706E+01 -1.00000E+00  1.24595E-01
      21    -1     0     0   502   501  0.000000000E+00  0.000000000E+00  4.713276815E+02  4.713276815E+02  0.000000000E+00  0.00000E+00  9.000E+00
      21    -1     0     0   511   502  0.000000000E+00  0.000000000E+00 -8.298024131E+02  8.298024131E+02  0.000000000E+00  0.00000E+00  9.000E+00
      25     1     1     2     0     0 -2.715320711E+02 -1.775089894E+02  3.467533243E+02  4.910213588E+02  1.250000000E+02  0.00000E+00  9.000E+00
      25     1     1     2     0     0  2.361601163E+02  8.807964091E+01 -6.229835676E+02  6.835664921E+02  1.250000000E+02  0.00000E+00  9.000E+00
      21     1     1     2   511   501  3.537195480E+01  8.942934848E+01 -8.224448830E+01  1.265422436E+02  2.132480600E-06  0.00000E+00  9.000E+00
#rwgt            1           1   3.1834187248143311E-002           7        2698           0
</event>
<event>
      5   9999  3.19816E-02  1.08116E+02 -1.00000E+00  1.22323E-01
      21    -1     0     0   512   501  0.000000000E+00  0.000000000E+00  2.322003919E+02  2.322003919E+02  0.000000000E+00  0.00000E+00  9.000E+00
      21    -1     0     0   501   502  0.000000000E+00  0.000000000E+00 -5.469859973E+02  5.469859973E+02  0.000000000E+00  0.00000E+00  9.000E+00
      25     1     1     2     0     0 -1.213088964E+02  3.259217378E+01  4.914091696E+01  1.838965140E+02  1.250000000E+02  0.00000E+00  9.000E+00
      25     1     1     2     0     0  2.292369032E+02 -3.895700283E+01 -4.017718200E+02  4.807419279E+02  1.250000000E+02  0.00000E+00  9.000E+00
      21     1     1     2   512   502 -1.079280068E+02  6.364829053E+00  3.784529758E+01  1.145479474E+02  1.261592536E-06  0.00000E+00  9.000E+00
#rwgt            1           1   2.8501821432747217E-002           7        2866           0
</event>
<event>
      5   9999  3.19816E-02  8.38292E+01 -1.00000E+00  1.27374E-01
      21    -1     0     0   502   501  0.000000000E+00  0.000000000E+00  1.112928604E+03  1.112928604E+03  0.000000000E+00  0.00000E+00  9.000E+00
      21    -1     0     0   511   502  0.000000000E+00  0.000000000E+00 -9.853982706E+01  9.853982706E+01  0.000000000E+00  0.00000E+00  9.000E+00
      25     1     1     2     0     0 -9.155325041E+01  3.708112609E+01  8.241705278E+02  8.394278209E+02  1.250000000E+02  0.00000E+00  9.000E+00
      25     1     1     2     0     0  1.680736510E+02 -7.131495697E+01  8.388063379E+01  2.366337592E+02  1.250000000E+02  0.00000E+00  9.000E+00
      21     1     1     2   511   501 -7.652040062E+01  3.423383088E+01  1.063376158E+02  1.354068515E+02  1.907348633E-06  0.00000E+00  9.000E+00
#rwgt            1           1   3.2722909533999013E-002           7        2934           0
</event>
<event>
      5   9999  3.19816E-02  5.95422E+02 -1.00000E+00  9.67438E-02
      21    -1     0     0   502   501  0.000000000E+00  0.000000000E+00  3.110549431E+02  3.110549431E+02  0.000000000E+00  0.00000E+00  9.000E+00
       1    -1     0     0   501     0  0.000000000E+00  0.000000000E+00 -2.138432255E+03  2.138432255E+03  0.000000000E+00  0.00000E+00  9.000E+00
      25     1     1     2     0     0  1.157237666E+02 -1.440276092E+02 -7.772664891E+02  8.086433932E+02  1.250000000E+02  0.00000E+00  9.000E+00
      25     1     1     2     0     0  2.769782984E+02  5.915905807E+02 -5.723034830E+02  8.774124855E+02  1.250000000E+02  0.00000E+00  9.000E+00
       1     1     1     2   502     0 -3.927020650E+02 -4.475629715E+02 -4.778073394E+02  7.634313190E+02  9.344061824E-06  0.00000E+00  9.000E+00
#rwgt            2          12   3.4704456355356299E-004           7        3022           0
</event>
<event>
      5   9999  3.19816E-02  2.25638E+02 -1.00000E+00  1.09774E-01
      21    -1     0     0   502   501  0.000000000E+00  0.000000000E+00  5.039372853E+02  5.039372853E+02  0.000000000E+00  0.00000E+00  9.000E+00
       1    -1     0     0   501     0  0.000000000E+00  0.000000000E+00 -4.972487347E+02  4.972487347E+02  0.000000000E+00  0.00000E+00  9.000E+00
      25     1     1     2     0     0 -1.272837896E+02 -7.767358200E+01 -9.188060864E+01  2.151775887E+02  1.250000000E+02  0.00000E+00  9.000E+00
      25     1     1     2     0     0 -4.973317909E+01 -6.224593331E+01  3.901258507E+02  4.173381419E+02  1.250000000E+02  0.00000E+00  9.000E+00
       1     1     1     2   502     0  1.770169687E+02  1.399195153E+02 -2.915566914E+02  3.686702894E+02  3.814697266E-06  0.00000E+00  9.000E+00
#rwgt            1           1   2.7937561097738092E-002           7        3041           0
</event>
<event>
      5   9999  3.19816E-02  1.90827E+02 -1.00000E+00  1.12395E-01
      21    -1     0     0   502   511  0.000000000E+00  0.000000000E+00  8.082630471E+02  8.082630471E+02  0.000000000E+00  0.00000E+00  9.000E+00
      21    -1     0     0   501   502  0.000000000E+00  0.000000000E+00 -6.945633275E+02  6.945633275E+02  0.000000000E+00  0.00000E+00  9.000E+00
      25     1     1     2     0     0 -1.958555635E+02 -3.190097749E+02 -4.359170600E+02  5.880266333E+02  1.250000000E+02  0.00000E+00  9.000E+00
      25     1     1     2     0     0  2.712479865E+01  4.081430866E+02  1.192593057E+02  4.440318860E+02  1.250000000E+02  0.00000E+00  9.000E+00
      21     1     1     2   501   511  1.687307649E+02 -8.913331164E+01  4.303574739E+02  4.707678553E+02  5.394796609E-06  0.00000E+00  9.000E+00
#rwgt            2          11   2.9992769779300993E-003           7        3094           0
</event>
<event>
      5   9999  3.19816E-02  2.90972E+01 -1.00000E+00  1.53967E-01
      21    -1     0     0   502   512  0.000000000E+00  0.000000000E+00  5.428341809E+02  5.428341809E+02  0.000000000E+00  0.00000E+00  9.000E+00
      21    -1     0     0   501   502  0.000000000E+00  0.000000000E+00 -1.326292747E+02  1.326292747E+02  0.000000000E+00  0.00000E+00  9.000E+00
      25     1     1     2     0     0  1.060197680E+02  1.661537219E+02  1.704438559E+02  2.890040805E+02  1.250000000E+02  0.00000E+00  9.000E+00
      25     1     1     2     0     0 -1.302309896E+02 -1.822926197E+02  1.619521464E+02  3.033878830E+02  1.250000000E+02  0.00000E+00  9.000E+00
      21     1     1     2   501   512  2.421122152E+01  1.613889784E+01  7.780890390E+01  8.307149209E+01  1.651812370E-06  0.00000E+00  9.000E+00
#rwgt            1           1   2.8166420050441263E-002           7        3129           0
</event>
<event>
      5   9999  3.19816E-02  5.09682E+01 -1.00000E+00  1.38602E-01
      21    -1     0     0   502   501  0.000000000E+00  0.000000000E+00  8.376074805E+02  8.376074805E+02  0.000000000E+00  0.00000E+00  9.000E+00
       4    -1     0     0   501     0  0.000000000E+00  0.000000000E+00 -4.155735640E+02  4.155735640E+02  0.000000000E+00  0.00000E+00  9.000E+00
      25     1     1     2     0     0  1.177312634E+02 -2.655698207E+02  6.516342765E+02  7.243205163E+02  1.250000000E+02  0.00000E+00  9.000E+00
      25     1     1     2     0     0 -6.865763896E+01  2.793371326E+02 -2.123818957E+01  3.143551586E+02  1.250000000E+02  0.00000E+00  9.000E+00
       4     1     1     2   502     0 -4.907362446E+01 -1.376731194E+01 -2.083621704E+02  2.145053696E+02  3.814697266E-06  0.00000E+00  9.000E+00
#rwgt            1           1   2.8623618222625852E-002           7        3264           0
</event>
<event>
      5   9999  3.19816E-02  5.56617E+01 -1.00000E+00  1.36469E-01
      21    -1     0     0   511   501  0.000000000E+00  0.000000000E+00  3.340406041E+02  3.340406041E+02  0.000000000E+00  0.00000E+00  9.000E+00
      21    -1     0     0   501   502  0.000000000E+00  0.000000000E+00 -1.136825833E+03  1.136825833E+03  0.000000000E+00  0.00000E+00  9.000E+00
      25     1     1     2     0     0  6.803380431E+01 -3.609446139E+02 -9.466069211E+02  1.023034347E+03  1.250000000E+02  0.00000E+00  9.000E+00
      25     1     1     2     0     0 -8.221976000E+01  3.071209484E+02  5.945964481E+01  3.467618999E+02  1.250000000E+02  0.00000E+00  9.000E+00
      21     1     1     2   511   502  1.418595569E+01  5.382366555E+01  8.436204714E+01  1.010701900E+02  9.536743164E-07  0.00000E+00  9.000E+00
#rwgt            1           1   2.7024168616689808E-002           7        3337           0
</event>
<event>
      5   9999  3.19816E-02  2.06422E+02 -1.00000E+00  1.11151E-01
      21    -1     0     0   502   512  0.000000000E+00  0.000000000E+00  6.763111205E+02  6.763111205E+02  0.000000000E+00  0.00000E+00  9.000E+00
      21    -1     0     0   501   502  0.000000000E+00  0.000000000E+00 -1.441324919E+03  1.441324919E+03  0.000000000E+00  0.00000E+00  9.000E+00
      25     1     1     2     0     0  2.781772873E+02 -7.193840712E+01 -2.402028884E+02  3.948166222E+02  1.250000000E+02  0.00000E+00  9.000E+00
      25     1     1     2     0     0 -3.156978191E+02  2.749219612E+02 -1.061451814E+03  1.147846745E+03  1.250000000E+02  0.00000E+00  9.000E+00
      21     1     1     2   501   512  3.752053184E+01 -2.029835541E+02  5.366409039E+02  5.749726718E+02  0.000000000E+00  0.00000E+00  9.000E+00
#rwgt            1           1   3.0496026359466064E-002           7        3448           0
</event>
<event>
      5   9999  3.19816E-02  3.02066E+01 -1.00000E+00  1.52833E-01
      21    -1     0     0   511   501  0.000000000E+00  0.000000000E+00  2.010289857E+03  2.010289857E+03  0.000000000E+00  0.00000E+00  9.000E+00
      21    -1     0     0   501   502  0.000000000E+00  0.000000000E+00 -7.192311347E+01  7.192311347E+01  0.000000000E+00  0.00000E+00  9.000E+00
      25     1     1     2     0     0  2.410966851E+02 -2.508694908E+02  1.133531909E+03  1.192301431E+03  1.250000000E+02  0.00000E+00  9.000E+00
      25     1     1     2     0     0 -2.297497735E+02  2.228751050E+02  6.854247065E+02  7.667400466E+02  1.250000000E+02  0.00000E+00  9.000E+00
      21     1     1     2   511   502 -1.134691161E+01  2.799438579E+01  1.194101275E+02  1.231714926E+02  0.000000000E+00  0.00000E+00  9.000E+00
#rwgt            1           1   2.9306981002880598E-002           7        3519           0
</event>
<event>
      5   9999  3.19816E-02  5.30494E+01 -1.00000E+00  1.37624E-01
      21    -1     0     0   502   501  0.000000000E+00  0.000000000E+00  1.315516495E+03  1.315516495E+03  0.000000000E+00  0.00000E+00  9.000E+00
      21    -1     0     0   512   502  0.000000000E+00  0.000000000E+00 -9.424229691E+01  9.424229691E+01  0.000000000E+00  0.00000E+00  9.000E+00
      25     1     1     2     0     0  8.141828540E+01 -1.283969288E+02  1.083584140E+03  1.101314804E+03  1.250000000E+02  0.00000E+00  9.000E+00
      25     1     1     2     0     0 -1.326240280E+02  1.145328260E+02  7.888984739E+01  2.292498834E+02  1.250000000E+02  0.00000E+00  9.000E+00
      21     1     1     2   512   501  5.120574263E+01  1.386410280E+01  5.880021022E+01  7.919410424E+01  1.507891493E-06  0.00000E+00  9.000E+00
#rwgt            1           1   3.0485468154810409E-002           7        3656           0
</event>
<event>
      5   9999  3.19816E-02  5.63349E+00 -1.00000E+00  2.29809E-01
      21    -1     0     0   502   501  0.000000000E+00  0.000000000E+00  4.068698006E+02  4.068698006E+02  0.000000000E+00  0.00000E+00  9.000E+00
      21    -1     0     0   501   511  0.000000000E+00  0.000000000E+00 -2.794690208E+02  2.794690208E+02  0.000000000E+00  0.00000E+00  9.000E+00
      25     1     1     2     0     0 -2.632177236E+02  1.447804643E+02 -1.823751106E+01  3.258873420E+02  1.250000000E+02  0.00000E+00  9.000E+00
      25     1     1     2     0     0  2.643269798E+02 -1.392572660E+02  1.447914177E+02  3.547546941E+02  1.250000000E+02  0.00000E+00  9.000E+00
      21     1     1     2   502   511 -1.109256184E+00 -5.523198322E+00  8.468731945E-01  5.696785338E+00  1.053671213E-07  0.00000E+00  9.000E+00
#rwgt            1           1   2.7819600977505174E-002           7        3779           0
</event>
<event>
      5   9999  3.19816E-02  2.18223E+01 -1.00000E+00  1.63304E-01
      21    -1     0     0   502   501  0.000000000E+00  0.000000000E+00  1.190799220E+02  1.190799220E+02  0.000000000E+00  0.00000E+00  9.000E+00
      21    -1     0     0   512   502  0.000000000E+00  0.000000000E+00 -4.603507962E+02  4.603507962E+02  0.000000000E+00  0.00000E+00  9.000E+00
      25     1     1     2     0     0 -5.951789506E+00 -3.625180942E+01  6.541334760E+01  1.457858825E+02  1.250000000E+02  0.00000E+00  9.000E+00
      25     1     1     2     0     0 -1.230572417E+01  2.429880332E+01 -3.305000698E+02  3.543968945E+02  1.250000000E+02  0.00000E+00  9.000E+00
      21     1     1     2   512   501  1.825751367E+01  1.195300610E+01 -7.618415204E+01  7.924794119E+01  0.000000000E+00  0.00000E+00  9.000E+00
#rwgt            1           1   2.7773701537002513E-002           7        4125           0
</event>
<event>
      5   9999  3.19816E-02  2.10116E+02 -1.00000E+00  1.10873E-01
      21    -1     0     0   502   501  0.000000000E+00  0.000000000E+00  9.476711056E+02  9.476711056E+02  0.000000000E+00  0.00000E+00  9.000E+00
       2    -1     0     0   501     0  0.000000000E+00  0.000000000E+00 -3.547553711E+03  3.547553711E+03  0.000000000E+00  0.00000E+00  9.000E+00
      25     1     1     2     0     0 -5.530688840E+02  4.846806086E+02 -2.063656893E+03  2.194334809E+03  1.250000000E+02  0.00000E+00  9.000E+00
      25     1     1     2     0     0  5.994440058E+02 -2.797460244E+02  7.440960331E+02  1.003441508E+03  1.250000000E+02  0.00000E+00  9.000E+00
       2     1     1     2   502     0 -4.637512184E+01 -2.049345842E+02 -1.280321746E+03  1.297448499E+03  1.525878906E-05  0.00000E+00  9.000E+00
#rwgt            2          13   5.1716544640525580E-003           7        4273           0
</event>
<event>
      5   9999  3.19816E-02  5.40653E+00 -1.00000E+00  2.32734E-01
       1    -1     0     0   502     0  0.000000000E+00  0.000000000E+00  1.824686547E+03  1.824686547E+03  0.000000000E+00  0.00000E+00  9.000E+00
      21    -1     0     0   501   502  0.000000000E+00  0.000000000E+00 -1.010999519E+02  1.010999519E+02  0.000000000E+00  0.00000E+00  9.000E+00
      25     1     1     2     0     0  1.679648359E+02  8.136921405E+01  6.665923589E+01  2.343108807E+02  1.250000000E+02  0.00000E+00  9.000E+00
      25     1     1     2     0     0 -1.726444945E+02 -8.407687140E+01  7.428930278E+02  7.774252970E+02  1.250000000E+02  0.00000E+00  9.000E+00
       1     1     1     2   501     0  4.679658565E+00  2.707657350E+00  9.140343318E+02  9.140503215E+02  2.157918644E-05  0.00000E+00  9.000E+00
#rwgt            1           1   2.6208327298414841E-002           7        4292           0
</event>
<event>
      5   9999  3.19816E-02  4.24600E+02 -1.00000E+00  1.00912E-01
      21    -1     0     0   511   501  0.000000000E+00  0.000000000E+00  1.307612339E+03  1.307612339E+03  0.000000000E+00  0.00000E+00  9.000E+00
      21    -1     0     0   501   502  0.000000000E+00  0.000000000E+00 -5.155190977E+02  5.155190977E+02  0.000000000E+00  0.00000E+00  9.000E+00
      25     1     1     2     0     0  1.225049549E+02  1.910535446E+02  2.551061065E+02  3.636111198E+02  1.250000000E+02  0.00000E+00  9.000E+00
      25     1     1     2     0     0 -3.116606040E+01 -6.057126408E+02 -1.634217260E+02  6.404613861E+02  1.250000000E+02  0.00000E+00  9.000E+00
      21     1     1     2   511   502 -9.133889452E+01  4.146590963E+02  7.004088609E+02  8.190589308E+02  1.321449896E-05  0.00000E+00  9.000E+00
#rwgt            1           1   2.8852420889110945E-002           7        4650           0
</event>
<event>
      5   9999  3.19816E-02  7.33314E+02 -1.00000E+00  9.43460E-02
      21    -1     0     0   502   501  0.000000000E+00  0.000000000E+00  2.722979947E+03  2.722979947E+03  0.000000000E+00  0.00000E+00  9.000E+00
      21    -1     0     0   512   502  0.000000000E+00  0.000000000E+00 -6.345403785E+02  6.345403785E+02  0.000000000E+00  0.00000E+00  9.000E+00
      25     1     1     2     0     0  5.281437939E+02  3.148910263E+01  1.140757522E+03  1.263677235E+03  1.250000000E+02  0.00000E+00  9.000E+00
      25     1     1     2     0     0 -4.346236052E+01  5.188143250E+02  1.203466497E+03  1.317199260E+03  1.250000000E+02  0.00000E+00  9.000E+00
      21     1     1     2   512   501 -4.846814334E+02 -5.503034276E+02 -2.557844506E+02  7.766438305E+02  1.144409180E-05  0.00000E+00  9.000E+00
#rwgt            2          11   2.9199367882707808E-003           7        4830           0
</event>
<event>
      5   9999  3.19816E-02  1.30011E+02 -1.00000E+00  1.18909E-01
      21    -1     0     0   502   501  0.000000000E+00  0.000000000E+00  5.338880135E+02  5.338880135E+02  0.000000000E+00  0.00000E+00  9.000E+00
       2    -1     0     0   501     0  0.000000000E+00  0.000000000E+00 -6.023674441E+02  6.023674441E+02  0.000000000E+00  0.00000E+00  9.000E+00
      25     1     1     2     0     0 -3.020419117E+02 -1.432061042E+02  8.876654294E+01  3.677523676E+02  1.250000000E+02  0.00000E+00  9.000E+00
      25     1     1     2     0     0  2.669776145E+02  2.683995858E+02  1.569621717E+02  4.284594585E+02  1.250000000E+02  0.00000E+00  9.000E+00
       2     1     1     2   502     0  3.506429727E+01 -1.251934816E+02 -3.142081452E+02  3.400436315E+02  0.000000000E+00  0.00000E+00  9.000E+00
#rwgt            1           1   2.7823841971364751E-002           7        4865           0
</event>
<event>
      5   9999  3.19816E-02  9.90305E+01 -1.00000E+00  1.24019E-01
      21    -1     0     0   511   501  0.000000000E+00  0.000000000E+00  1.971617757E+03  1.971617757E+03  0.000000000E+00  0.00000E+00  9.000E+00
      21    -1     0     0   501   502  0.000000000E+00  0.000000000E+00 -1.613863364E+02  1.613863364E+02  0.000000000E+00  0.00000E+00  9.000E+00
      25     1     1     2     0     0 -1.688798559E+02 -2.279358825E+02  1.248237929E+03  1.286156327E+03  1.250000000E+02  0.00000E+00  9.000E+00
      25     1     1     2     0     0  9.724951748E+01  1.595536440E+02 -4.715421778E+01  2.297027519E+02  1.250000000E+02  0.00000E+00  9.000E+00
      21     1     1     2   511   502  7.163033841E+01  6.838223850E+01  6.091477101E+02  6.171450142E+02  7.629394531E-06  0.00000E+00  9.000E+00
#rwgt            1           1   2.5224581856386687E-002           7        4908           0
</event>
<event>
      5   9999  3.19816E-02  3.39289E+01 -1.00000E+00  1.49418E-01
      21    -1     0     0   502   501  0.000000000E+00  0.000000000E+00  9.483104361E+01  9.483104361E+01  0.000000000E+00  0.00000E+00  9.000E+00
      21    -1     0     0   501   512  0.000000000E+00  0.000000000E+00 -1.077087684E+03  1.077087684E+03  0.000000000E+00  0.00000E+00  9.000E+00
      25     1     1     2     0     0 -4.735687610E+01 -9.060668683E+01 -4.478223661E+02  4.760484398E+02  1.250000000E+02  0.00000E+00  9.000E+00
      25     1     1     2     0     0  6.639173626E+01  1.186930648E+02 -2.627293558E+01  1.865775266E+02  1.250000000E+02  0.00000E+00  9.000E+00
      21     1     1     2   502   512 -1.903486016E+01 -2.808637798E+01 -5.081613386E+02  5.092927611E+02  5.394796609E-06  0.00000E+00  9.000E+00
#rwgt            1           1   2.9094160344280598E-002           7        5002           0
</event>
<event>
      5   9999  3.19816E-02  1.84809E+01 -1.00000E+00  1.69250E-01
      21    -1     0     0   502   501  0.000000000E+00  0.000000000E+00  1.632562469E+03  1.632562469E+03  0.000000000E+00  0.00000E+00  9.000E+00
      21    -1     0     0   511   502  0.000000000E+00  0.000000000E+00 -2.928223303E+02  2.928223303E+02  0.000000000E+00  0.00000E+00  9.000E+00
      25     1     1     2     0     0  4.007681865E+01 -6.774048992E+00 -2.023332230E+02  2.412794485E+02  1.250000000E+02  0.00000E+00  9.000E+00
      25     1     1     2     0     0 -2.159713902E+01  6.985995235E+00  1.609339694E+03  1.614346459E+03  1.250000000E+02  0.00000E+00  9.000E+00
      21     1     1     2   511   501 -1.847967963E+01 -2.119462431E-01 -6.726633225E+01  6.975889143E+01  1.348699152E-06  0.00000E+00  9.000E+00
#rwgt            1           1   2.7922286345145160E-002           7        5074           0
</event>
<event>
      5   9999  3.19816E-02  1.44242E+02 -1.00000E+00  1.17071E-01
      -5    -1     0     0     0   501  0.000000000E+00  0.000000000E+00  2.692769815E+03  2.692769815E+03  0.000000000E+00  0.00000E+00  9.000E+00
      21    -1     0     0   501   502  0.000000000E+00  0.000000000E+00 -2.798595762E+02  2.798595762E+02  0.000000000E+00  0.00000E+00  9.000E+00
      25     1     1     2     0     0  2.266620007E+02  1.180258271E+02 -1.474806827E+02  3.204392457E+02  1.250000000E+02  0.00000E+00  9.000E+00
      25     1     1     2     0     0 -3.644172853E+02 -1.607958556E+02  9.797802396E+02  1.065011541E+03  1.250000000E+02  0.00000E+00  9.000E+00
      -5     1     1     2     0   502  1.377552846E+02  4.277002849E+01  1.580610682E+03  1.587178604E+03  0.000000000E+00  0.00000E+00  9.000E+00
#rwgt            1           1   3.4721995146685045E-002           7        5333           0
</event>
<event>
      5   9999  3.19816E-02  1.00408E+01 -1.00000E+00  1.95553E-01
      21    -1     0     0   502   511  0.000000000E+00  0.000000000E+00  6.511393749E+02  6.511393749E+02  0.000000000E+00  0.00000E+00  9.000E+00
      21    -1     0     0   501   502  0.000000000E+00  0.000000000E+00 -1.014869495E+02  1.014869495E+02  0.000000000E+00  0.00000E+00  9.000E+00
      25     1     1     2     0     0 -6.815249542E+01 -1.710291459E+02  1.279915068E+02  2.567149337E+02  1.250000000E+02  0.00000E+00  9.000E+00
      25     1     1     2     0     0  7.133137963E+01  1.805534644E+02  3.246635230E+02  3.983956857E+02  1.250000000E+02  0.00000E+00  9.000E+00
      21     1     1     2   501   511 -3.178884212E+00 -9.524318482E+00  9.699739565E+01  9.751570494E+01  1.907348633E-06  0.00000E+00  9.000E+00
#rwgt            1           1   2.9642786507533169E-002           7        5432           0
</event>
<event>
      5   9999  3.19816E-02  2.22468E+02 -1.00000E+00  1.09990E-01
       1    -1     0     0   502     0  0.000000000E+00  0.000000000E+00  2.481698811E+02  2.481698811E+02  0.000000000E+00  0.00000E+00  9.000E+00
      21    -1     0     0   501   502  0.000000000E+00  0.000000000E+00 -6.708273478E+02  6.708273478E+02  0.000000000E+00  0.00000E+00  9.000E+00
      25     1     1     2     0     0 -1.549175584E+02  2.272582706E+02 -1.408526662E+02  3.333320342E+02  1.250000000E+02  0.00000E+00  9.000E+00
      25     1     1     2     0     0 -5.292644350E+01 -1.479313145E+02 -3.016033784E+02  3.623182028E+02  1.250000000E+02  0.00000E+00  9.000E+00
       1     1     1     2   501     0  2.078440019E+02 -7.932695614E+01  1.979857790E+01  2.233469919E+02  2.739220927E-06  0.00000E+00  9.000E+00
#rwgt            1           1   2.6807316441119177E-002           7        5599           0
</event>
<event>
      5   9999  3.19816E-02  9.18878E+00 -1.00000E+00  2.00103E-01
      21    -1     0     0   502   511  0.000000000E+00  0.000000000E+00  1.551868863E+03  1.551868863E+03  0.000000000E+00  0.00000E+00  9.000E+00
      21    -1     0     0   501   502  0.000000000E+00  0.000000000E+00 -2.520192966E+01  2.520192966E+01  0.000000000E+00  0.00000E+00  9.000E+00
      25     1     1     2     0     0 -9.705029164E+01 -1.332794339E+00  1.041775571E+03  1.053727610E+03  1.250000000E+02  0.00000E+00  9.000E+00
      25     1     1     2     0     0  1.059660739E+02  3.555957362E+00  3.328028737E+02  3.709773664E+02  1.250000000E+02  0.00000E+00  9.000E+00
      21     1     1     2   501   511 -8.915782234E+00 -2.223163023E+00  1.520884882E+02  1.523658159E+02  1.907348633E-06  0.00000E+00  9.000E+00
#rwgt            1           1   4.5693412334477289E-002           7        5636           0
</event>
<event>
      5   9999  3.19816E-02  8.26097E+01 -1.00000E+00  1.27678E-01
      21    -1     0     0   512   501  0.000000000E+00  0.000000000E+00  1.114518084E+03  1.114518084E+03  0.000000000E+00  0.00000E+00  9.000E+00
      21    -1     0     0   501   502  0.000000000E+00  0.000000000E+00 -2.536050736E+02  2.536050736E+02  0.000000000E+00  0.00000E+00  9.000E+00
      25     1     1     2     0     0  1.559629442E+02  3.494021024E+01 -9.731665738E+00  2.031377945E+02  1.250000000E+02  0.00000E+00  9.000E+00
      25     1     1     2     0     0 -7.336424269E+01 -3.629032999E+01 -1.070516547E+02  1.838052146E+02  1.250000000E+02  0.00000E+00  9.000E+00
      21     1     1     2   512   502 -8.259870149E+01  1.350119750E+00  9.776963311E+02  9.811801487E+02  1.868812365E-05  0.00000E+00  9.000E+00
#rwgt            1           1   2.9097053473328187E-002           7        5866           0
</event>
<event>
      5   9999  3.19816E-02  4.83039E+01 -1.00000E+00  1.39936E-01
      21    -1     0     0   502   511  0.000000000E+00  0.000000000E+00  1.234484900E+03  1.234484900E+03  0.000000000E+00  0.00000E+00  9.000E+00
      21    -1     0     0   501   502  0.000000000E+00  0.000000000E+00 -9.363372513E+02  9.363372513E+02  0.000000000E+00  0.00000E+00  9.000E+00
      25     1     1     2     0     0  5.767920536E+02 -3.224918241E+02 -5.839515971E+02  8.906820518E+02  1.250000000E+02  0.00000E+00  9.000E+00
      25     1     1     2     0     0 -5.718615238E+02  3.705434065E+02  4.088504585E+02  8.044325428E+02  1.250000000E+02  0.00000E+00  9.000E+00
      21     1     1     2   501   511 -4.930529799E+00 -4.805158235E+01  4.732487877E+02  4.757075570E+02  0.000000000E+00  0.00000E+00  9.000E+00
#rwgt            1           1   4.1267262250830029E-002           7        5930           0
</event>
<event>
      5   9999  3.19816E-02  1.75493E+02 -1.00000E+00  1.13754E-01
      21    -1     0     0   502   501  0.000000000E+00  0.000000000E+00  4.232184356E+02  4.232184356E+02  0.000000000E+00  0.00000E+00  9.000E+00
      21    -1     0     0   512   502  0.000000000E+00  0.000000000E+00 -1.189775613E+03  1.189775613E+03  0.000000000E+00  0.00000E+00  9.000E+00
      25     1     1     2     0     0  2.744798738E+02 -2.473562759E+02 -2.006597386E+01  3.905790210E+02  1.250000000E+02  0.00000E+00  9.000E+00
      25     1     1     2     0     0 -4.403382907E+02  1.900079122E+02 -4.311715696E+01  4.974785484E+02  1.250000000E+02  0.00000E+00  9.000E+00
      21     1     1     2   512   501  1.658584169E+02  5.734836376E+01 -7.033740462E+02  7.249364787E+02  7.629394531E-06  0.00000E+00  9.000E+00
#rwgt            1           1   2.5409124365976438E-002           7        6071           0
</event>
<event>
      5   9999  3.19816E-02  4.95129E+01 -1.00000E+00  1.39319E-01
      21    -1     0     0   502   501  0.000000000E+00  0.000000000E+00  2.954819409E+02  2.954819409E+02  0.000000000E+00  0.00000E+00  9.000E+00
      21    -1     0     0   501   511  0.000000000E+00  0.000000000E+00 -8.054114359E+02  8.054114359E+02  0.000000000E+00  0.00000E+00  9.000E+00
      25     1     1     2     0     0 -1.849086266E+01  1.123395977E+02  2.383246084E+02  2.922083438E+02  1.250000000E+02  0.00000E+00  9.000E+00
      25     1     1     2     0     0 -3.036986824E+01 -1.203493861E+02 -2.383442235E+02  2.963769096E+02  1.250000000E+02  0.00000E+00  9.000E+00
      21     1     1     2   502   511  4.886073090E+01  8.009788396E+00 -5.099098799E+02  5.123081235E+02  7.629394531E-06  0.00000E+00  9.000E+00
#rwgt            1           1   2.9292594802722137E-002           7        6125           0
</event>
<event>
      5   9999  3.19816E-02  2.50963E+01 -1.00000E+00  1.58626E-01
      21    -1     0     0   502   501  0.000000000E+00  0.000000000E+00  9.096718524E+02  9.096718524E+02  0.000000000E+00  0.00000E+00  9.000E+00
      21    -1     0     0   512   502  0.000000000E+00  0.000000000E+00 -1.486424974E+02  1.486424974E+02  0.000000000E+00  0.00000E+00  9.000E+00
      25     1     1     2     0     0  3.053617813E+02 -7.503564634E+01  4.590072186E+02  5.702532704E+02  1.250000000E+02  0.00000E+00  9.000E+00
      25     1     1     2     0     0 -3.223138801E+02  9.354100767E+01  2.855847082E+02  4.580608944E+02  1.250000000E+02  0.00000E+00  9.000E+00
      21     1     1     2   512   501  1.695209887E+01 -1.850536134E+01  1.643742805E+01  3.000018492E+01  5.840038640E-07  0.00000E+00  9.000E+00
#rwgt            1           1   2.8457997452937634E-002           7        6220           0
</event>
<event>
      5   9999  3.19816E-02  2.15156E+01 -1.00000E+00  1.63793E-01
       2    -1     0     0   502     0  0.000000000E+00  0.000000000E+00  6.856137024E+02  6.856137024E+02  0.000000000E+00  0.00000E+00  9.000E+00
      21    -1     0     0   501   502  0.000000000E+00  0.000000000E+00 -7.178138975E+02  7.178138975E+02  0.000000000E+00  0.00000E+00  9.000E+00
      25     1     1     2     0     0  1.208999504E+02  3.135979843E+01 -6.926139555E+01  1.897956161E+02  1.250000000E+02  0.00000E+00  9.000E+00
      25     1     1     2     0     0 -1.180199429E+02 -5.268175565E+01 -5.743530606E+02  6.018392747E+02  1.250000000E+02  0.00000E+00  9.000E+00
       2     1     1     2   501     0 -2.880007514E+00  2.132195722E+01  6.114142611E+02  6.117927092E+02  7.629394531E-06  0.00000E+00  9.000E+00
#rwgt            1           1   2.9916178235918089E-002           7        6344           0
</event>
<event>
      5   9999  3.19816E-02  1.86505E+01 -1.00000E+00  1.68912E-01
      21    -1     0     0   511   501  0.000000000E+00  0.000000000E+00  3.338459609E+02  3.338459609E+02  0.000000000E+00  0.00000E+00  9.000E+00
      21    -1     0     0   501   502  0.000000000E+00  0.000000000E+00 -3.045264906E+03  3.045264906E+03  0.000000000E+00  0.00000E+00  9.000E+00
      25     1     1     2     0     0  2.226557030E+02  1.616944097E+02  9.119950928E+01  3.156944641E+02  1.250000000E+02  0.00000E+00  9.000E+00
      25     1     1     2     0     0 -2.261723198E+02 -1.800103497E+02 -2.923848275E+03  2.940760341E+03  1.250000000E+02  0.00000E+00  9.000E+00
      21     1     1     2   511   502  3.516616816E+00  1.831594005E+01  1.212298206E+02  1.226560625E+02  4.473129043E-06  0.00000E+00  9.000E+00
#rwgt            1           1   8.0394233850686378E-002           7        6478           0
</event>
<event>
      5   9999  3.19816E-02  1.65037E+02 -1.00000E+00  1.14773E-01
      21    -1     0     0   502   501  0.000000000E+00  0.000000000E+00  5.823747054E+02  5.823747054E+02  0.000000000E+00  0.00000E+00  9.000E+00
      21    -1     0     0   501   512  0.000000000E+00  0.000000000E+00 -4.182326633E+02  4.182326633E+02  0.000000000E+00  0.00000E+00  9.000E+00
      25     1     1     2     0     0  4.154570718E+02  6.269866951E+01 -5.047521121E+01  4.412578029E+02  1.250000000E+02  0.00000E+00  9.000E+00
      25     1     1     2     0     0 -2.904967122E+02  4.510765541E+01  2.299446994E+02  3.936020899E+02  1.250000000E+02  0.00000E+00  9.000E+00
      21     1     1     2   502   512 -1.249603596E+02 -1.078063249E+02 -1.532744611E+01  1.657474759E+02  3.596092016E-06  0.00000E+00  9.000E+00
#rwgt            1           1   2.8590625171523543E-002           7        6815           0
</event>
<event>
      5   9999  3.19816E-02  6.25222E+01 -1.00000E+00  1.33755E-01
      21    -1     0     0   511   501  0.000000000E+00  0.000000000E+00  4.882205085E+02  4.882205085E+02  0.000000000E+00  0.00000E+00  9.000E+00
      21    -1     0     0   501   502  0.000000000E+00  0.000000000E+00 -7.312406876E+02  7.312406876E+02  0.000000000E+00  0.00000E+00  9.000E+00
      25     1     1     2     0     0 -4.840412602E+02 -8.997262372E+00 -1.250004046E+02  5.153901372E+02  1.250000000E+02  0.00000E+00  9.000E+00
      25     1     1     2     0     0  5.326080055E+02  4.837106312E+01 -2.140744814E+02  5.894607119E+02  1.250000000E+02  0.00000E+00  9.000E+00
      21     1     1     2   511   502 -4.856674529E+01 -3.937380075E+01  9.605470687E+01  1.146103470E+02  0.000000000E+00  0.00000E+00  9.000E+00
#rwgt            1           1   2.8288552852395499E-002           7        6891           0
</event>
<event>
      5   9999  3.19816E-02  1.58645E+01 -1.00000E+00  1.75121E-01
       1    -1     0     0   502     0  0.000000000E+00  0.000000000E+00  6.429089668E+02  6.429089668E+02  0.000000000E+00  0.00000E+00  9.000E+00
      21    -1     0     0   501   502  0.000000000E+00  0.000000000E+00 -1.817435319E+02  1.817435319E+02  0.000000000E+00  0.00000E+00  9.000E+00
      25     1     1     2     0     0 -2.101847313E+02 -1.615519789E+02  8.381886863E+01  3.048397380E+02  1.250000000E+02  0.00000E+00  9.000E+00
      25     1     1     2     0     0  2.005307121E+02  1.489630394E+02  2.043784420E+02  3.461186230E+02  1.250000000E+02  0.00000E+00  9.000E+00
       1     1     1     2   501     0  9.654019160E+00  1.258893947E+01  1.729681242E+02  1.736941377E+02  0.000000000E+00  0.00000E+00  9.000E+00
#rwgt            1           1   2.7717202107689236E-002           7        7016           0
</event>
<event>
      5   9999  3.19816E-02  2.75496E+01 -1.00000E+00  1.55655E-01
      21    -1     0     0   502   511  0.000000000E+00  0.000000000E+00  7.366377020E+02  7.366377020E+02  0.000000000E+00  0.00000E+00  9.000E+00
      21    -1     0     0   501   502  0.000000000E+00  0.000000000E+00 -4.396962490E+02  4.396962490E+02  0.000000000E+00  0.00000E+00  9.000E+00
      25     1     1     2     0     0 -7.364616850E-01 -4.578961037E+02 -1.203200175E+02  4.896644676E+02  1.250000000E+02  0.00000E+00  9.000E+00
      25     1     1     2     0     0  2.553884778E+01  4.459034070E+02  2.696037322E+02  5.364636554E+02  1.250000000E+02  0.00000E+00  9.000E+00
      21     1     1     2   501   511 -2.480238610E+01  1.199269676E+01  1.476577382E+02  1.502058281E+02  0.000000000E+00  0.00000E+00  9.000E+00
#rwgt            1           1   2.3602282977584280E-002           7        7105           0
</event>
<event>
      5   9999  3.19816E-02  1.35265E+02 -1.00000E+00  1.18202E-01
      21    -1     0     0   502   512  0.000000000E+00  0.000000000E+00  6.848695246E+02  6.848695246E+02  0.000000000E+00  0.00000E+00  9.000E+00
      21    -1     0     0   501   502  0.000000000E+00  0.000000000E+00 -1.300108342E+02  1.300108342E+02  0.000000000E+00  0.00000E+00  9.000E+00
      25     1     1     2     0     0 -4.519456760E+01 -1.748051945E+02  3.791305048E+02  4.381373581E+02  1.250000000E+02  0.00000E+00  9.000E+00
      25     1     1     2     0     0 -6.032050712E+01  9.016958524E+01  1.428994767E+01  1.661274218E+02  1.250000000E+02  0.00000E+00  9.000E+00
      21     1     1     2   501   512  1.055150747E+02  8.463560924E+01  1.614382380E+02  2.106155788E+02  3.814697266E-06  0.00000E+00  9.000E+00
#rwgt            1           1   2.7070501679257921E-002           7        7374           0
</event>
<event>
      5   9999  3.19816E-02  1.09700E+03 -1.00000E+00  9.00364E-02
       2    -1     0     0   502     0  0.000000000E+00  0.000000000E+00  2.369595224E+03  2.369595224E+03  0.000000000E+00  0.00000E+00  9.000E+00
      21    -1     0     0   501   502  0.000000000E+00  0.000000000E+00 -1.468835920E+03  1.468835920E+03  0.000000000E+00  0.00000E+00  9.000E+00
      25     1     1     2     0     0  2.092678996E+02 -9.302711629E+02 -3.885145706E+02  1.037191430E+03  1.250000000E+02  0.00000E+00  9.000E+00
      25     1     1     2     0     0 -7.969859330E+02  3.996041839E+00 -3.080044188E+02  8.635359099E+02  1.250000000E+02  0.00000E+00  9.000E+00
       2     1     1     2   501     0  5.877180334E+02  9.262751210E+02  1.597278294E+03  1.937703805E+03  0.000000000E+00  0.00000E+00  9.000E+00
#rwgt            2          18   1.0027326848445473E-003           7        7537           0
</event>
<event>
      5   9999  3.19816E-02  6.86114E+01 -1.00000E+00  1.31663E-01
       3    -1     0     0   502     0  0.000000000E+00  0.000000000E+00  9.115221240E+02  9.115221240E+02  0.000000000E+00  0.00000E+00  9.000E+00
      21    -1     0     0   501   502  0.000000000E+00  0.000000000E+00 -3.388586522E+02  3.388586522E+02  0.000000000E+00  0.00000E+00  9.000E+00
      25     1     1     2     0     0  2.206836862E+02 -1.720517035E+02 -1.777912215E+02  3.543131334E+02  1.250000000E+02  0.00000E+00  9.000E+00
      25     1     1     2     0     0 -1.524406265E+02  1.791519449E+02  1.799829607E+02  3.214847276E+02  1.250000000E+02  0.00000E+00  9.000E+00
       3     1     1     2   501     0 -6.824305978E+01 -7.100241411E+00  5.704717326E+02  5.745829151E+02  1.078959322E-05  0.00000E+00  9.000E+00
#rwgt            1           1   2.8118110426754973E-002           7        7556           0
</event>
<event>
      5   9999  3.19816E-02  3.52306E+01 -1.00000E+00  1.48345E-01
      21    -1     0     0   502   501  0.000000000E+00  0.000000000E+00  1.168791320E+02  1.168791320E+02  0.000000000E+00  0.00000E+00  9.000E+00
      21    -1     0     0   501   511  0.000000000E+00  0.000000000E+00 -1.152359338E+03  1.152359338E+03  0.000000000E+00  0.00000E+00  9.000E+00
      25     1     1     2     0     0  1.970255072E+02  2.028029437E+02 -3.575370471E+02  4.726582534E+02  1.250000000E+02  0.00000E+00  9.000E+00
      25     1     1     2     0     0 -1.624142804E+02 -2.093799666E+02 -3.084935712E+02  4.254546420E+02  1.250000000E+02  0.00000E+00  9.000E+00
      21     1     1     2   502   511 -3.461122674E+01  6.577022806E+00 -3.694495874E+02  3.711255743E+02  7.629394531E-06  0.00000E+00  9.000E+00
#rwgt            1           1   2.7983120648624179E-002           7        7642           0
</event>
<event>
      5   9999  3.19816E-02  1.01433E+02 -1.00000E+00  1.23551E-01
      21    -1     0     0   502   512  0.000000000E+00  0.000000000E+00  1.614917031E+02  1.614917031E+02  0.000000000E+00  0.00000E+00  9.000E+00
      21    -1     0     0   501   502  0.000000000E+00  0.000000000E+00 -7.349674711E+02  7.349674711E+02  0.000000000E+00  0.00000E+00  9.000E+00
      25     1     1     2     0     0 -1.036866505E+02  1.352345215E+02 -4.180722148E+02  4.684534919E+02  1.250000000E+02  0.00000E+00  9.000E+00
      25     1     1     2     0     0  1.432196851E+02 -2.286464868E+02 -1.174886348E+02  3.197181156E+02  1.250000000E+02  0.00000E+00  9.000E+00
      21     1     1     2   501   512 -3.953303452E+01  9.341196525E+01 -3.791491838E+01  1.082875667E+02  1.430511475E-06  0.00000E+00  9.000E+00
#rwgt            1           1   2.9529480685461518E-002           7        7785           0
</event>
<event>
      5   9999  3.19816E-02  8.83645E+01 -1.00000E+00  1.26293E-01
      21    -1     0     0   502   501  0.000000000E+00  0.000000000E+00  2.812879473E+02  2.812879473E+02  0.000000000E+00  0.00000E+00  9.000E+00
       1    -1     0     0   501     0  0.000000000E+00  0.000000000E+00 -3.968939896E+03  3.968939896E+03  0.000000000E+00  0.00000E+00  9.000E+00
      25     1     1     2     0     0 -2.077463112E+02  1.800516137E+02  1.846092287E+02  3.539529357E+02  1.250000000E+02  0.00000E+00  9.000E+00
      25     1     1     2     0     0  1.873509036E+02 -9.407308471E+01 -1.313324209E+03  1.335812705E+03  1.250000000E+02  0.00000E+00  9.000E+00
       1     1     1     2   502     0  2.039540761E+01 -8.597852895E+01 -2.558936969E+03  2.560462203E+03  3.051757812E-05  0.00000E+00  9.000E+00
#rwgt            1           1   3.1310733584090249E-002           7        7846           0
</event>
<event>
      5   9999  3.19816E-02  7.38422E+00 -1.00000E+00  2.12325E-01
      21    -1     0     0   511   501  0.000000000E+00  0.000000000E+00  3.153695915E+02  3.153695915E+02  0.000000000E+00  0.00000E+00  9.000E+00
      21    -1     0     0   501   502  0.000000000E+00  0.000000000E+00 -6.120760723E+02  6.120760723E+02  0.000000000E+00  0.00000E+00  9.000E+00
      25     1     1     2     0     0 -2.950291727E+02  7.623370234E+01 -4.471726950E+02  5.553757370E+02  1.250000000E+02  0.00000E+00  9.000E+00
      25     1     1     2     0     0  2.892850671E+02 -8.087395901E+01  1.300820121E+02  3.503894650E+02  1.250000000E+02  0.00000E+00  9.000E+00
      21     1     1     2   511   502  5.744105622E+00  4.640256673E+00  2.038420207E+01  2.168046183E+01  2.384185791E-07  0.00000E+00  9.000E+00
#rwgt            1           1   2.7270672066533483E-002           7        7929           0
</event>
<event>
      5   9999  3.19816E-02  6.76567E+01 -1.00000E+00  1.31974E-01
      21    -1     0     0   512   501  0.000000000E+00  0.000000000E+00  1.613034781E+02  1.613034781E+02  0.000000000E+00  0.00000E+00  9.000E+00
      21    -1     0     0   501   502  0.000000000E+00  0.000000000E+00 -6.840353940E+02  6.840353940E+02  0.000000000E+00  0.00000E+00  9.000E+00
      25     1     1     2     0     0  1.765397763E+01  2.216624708E+01 -1.573565340E+02  2.029509404E+02  1.250000000E+02  0.00000E+00  9.000E+00
      25     1     1     2     0     0  1.744414941E+01 -8.000703596E+01 -4.836063744E+02  5.061675113E+02  1.250000000E+02  0.00000E+00  9.000E+00
      21     1     1     2   512   502 -3.509812704E+01  5.784078889E+01  1.182309924E+02  1.362204205E+02  3.568322551E-06  0.00000E+00  9.000E+00
#rwgt            1           1   4.5391425681891438E-002           7        8231           0
</event>
<event>
      5   9999  3.19816E-02  8.51757E+01 -1.00000E+00  1.27045E-01
       1    -1     0     0   502     0  0.000000000E+00  0.000000000E+00  1.564425213E+03  1.564425213E+03  0.000000000E+00  0.00000E+00  9.000E+00
      21    -1     0     0   501   502  0.000000000E+00  0.000000000E+00 -1.795603318E+02  1.795603318E+02  0.000000000E+00  0.00000E+00  9.000E+00
      25     1     1     2     0     0  1.661553997E+02 -3.416315308E+02  2.082870439E+02  4.509192969E+02  1.250000000E+02  0.00000E+00  9.000E+00
      25     1     1     2     0     0 -1.094750228E+02  4.052100870E+02  8.581715422E+02  9.634642656E+02  1.250000000E+02  0.00000E+00  9.000E+00
       1     1     1     2   501     0 -5.668037689E+01 -6.357855624E+01  3.184062952E+02  3.296019823E+02  0.000000000E+00  0.00000E+00  9.000E+00
#rwgt            1           1   2.7147586521417098E-002           7        8287           0
</event>
<event>
      5   9999  3.19816E-02  1.80051E+02 -1.00000E+00  1.13335E-01
      21    -1     0     0   502   501  0.000000000E+00  0.000000000E+00  1.098502544E+03  1.098502544E+03  0.000000000E+00  0.00000E+00  9.000E+00
       2    -1     0     0   501     0  0.000000000E+00  0.000000000E+00 -1.351587435E+03  1.351587435E+03  0.000000000E+00  0.00000E+00  9.000E+00
      25     1     1     2     0     0 -2.041844707E+01 -1.802777812E+02  9.825684789E+02  1.006967133E+03  1.250000000E+02  0.00000E+00  9.000E+00
      25     1     1     2     0     0  6.387514841E+01  5.549697469E+00  4.681331163E+01  1.480787624E+02  1.250000000E+02  0.00000E+00  9.000E+00
       2     1     1     2   502     0 -4.345670135E+01  1.747280837E+02 -1.282466682E+03  1.295044083E+03  1.525878906E-05  0.00000E+00  9.000E+00
#rwgt            1           1   3.0175703041386136E-002           7        8380           0
</event>
<event>
      5   9999  3.19816E-02  8.01925E+01 -1.00000E+00  1.28299E-01
      21    -1     0     0   502   501  0.000000000E+00  0.000000000E+00  9.934456480E+02  9.934456480E+02  0.000000000E+00  0.00000E+00  9.000E+00
      21    -1     0     0   511   502  0.000000000E+00  0.000000000E+00 -1.152930253E+02  1.152930253E+02  0.000000000E+00  0.00000E+00  9.000E+00
      25     1     1     2     0     0 -2.354263536E+02  8.965812966E+01  6.259632864E+02  6.862355165E+02  1.250000000E+02  0.00000E+00  9.000E+00
      25     1     1     2     0     0  1.756521579E+02 -1.431172739E+02  1.904807022E+02  3.213162501E+02  1.250000000E+02  0.00000E+00  9.000E+00
      21     1     1     2   511   501  5.977419574E+01  5.345914420E+01  6.170863400E+01  1.011869067E+02  1.168007728E-06  0.00000E+00  9.000E+00
#rwgt            1           1   3.1538766923780999E-002           7        8470           0
</event>
<event>
      5   9999  3.53307E-02  4.20989E+01 -1.00000E+00  1.43476E-01
      21    -1     0     0   502   501  0.000000000E+00  0.000000000E+00  1.799666611E+02  1.799666611E+02  0.000000000E+00  0.00000E+00  9.000E+00
      21    -1     0     0   512   502  0.000000000E+00  0.000000000E+00 -3.454651277E+02  3.454651277E+02  0.000000000E+00  0.00000E+00  9.000E+00
      25     1     1     2     0     0 -1.628179274E+02  1.135929436E+02 -7.571626037E+01  2.465177202E+02  1.250000000E+02  0.00000E+00  9.000E+00
      25     1     1     2     0     0  1.565421495E+02 -7.196440550E+01 -4.521902418E+01  2.176099271E+02  1.250000000E+02  0.00000E+00  9.000E+00
      21     1     1     2   512   501  6.275777882E+00 -4.162853810E+01 -4.456318204E+01  6.130414151E+01  4.768371582E-07  0.00000E+00  9.000E+00
#rwgt            1           1   2.7225956640841216E-002           7        8557           0
</event>
<event>
      5   9999  3.19816E-02  1.61671E+02 -1.00000E+00  1.15118E-01
      21    -1     0     0   502   511  0.000000000E+00  0.000000000E+00  1.194377841E+03  1.194377841E+03  0.000000000E+00  0.00000E+00  9.000E+00
      21    -1     0     0   501   502  0.000000000E+00  0.000000000E+00 -2.842516837E+02  2.842516837E+02  0.000000000E+00  0.00000E+00  9.000E+00
      25     1     1     2     0     0  4.745312203E+02  4.129070911E+01  1.251730458E+02  5.081122839E+02  1.250000000E+02  0.00000E+00  9.000E+00
      25     1     1     2     0     0 -3.777750680E+02  8.823084978E+01  5.294806375E+02  6.681866732E+02  1.250000000E+02  0.00000E+00  9.000E+00
      21     1     1     2   501   511 -9.675615230E+01 -1.295215589E+02  2.554724744E+02  3.023305681E+02  3.814697266E-06  0.00000E+00  9.000E+00
#rwgt            2          11   4.0204966340104372E-003           7        8773           0
</event>
<event>
      5   9999  3.19816E-02  8.19169E+01 -1.00000E+00  1.27854E-01
      21    -1     0     0   512   501  0.000000000E+00  0.000000000E+00  3.413702606E+02  3.413702606E+02  0.000000000E+00  0.00000E+00  9.000E+00
      21    -1     0     0   501   502  0.000000000E+00  0.000000000E+00 -1.530665767E+03  1.530665767E+03  0.000000000E+00  0.00000E+00  9.000E+00
      25     1     1     2     0     0  4.824565626E+02  3.464600353E+01 -1.242788759E+03  1.339445251E+03  1.250000000E+02  0.00000E+00  9.000E+00
      25     1     1     2     0     0 -4.017264095E+02 -2.075278129E+01  1.071686697E+02  4.346549319E+02  1.250000000E+02  0.00000E+00  9.000E+00
      21     1     1     2   512   502 -8.073015309E+01 -1.389322224E+01 -5.367541622E+01  9.793584405E+01  6.743495762E-07  0.00000E+00  9.000E+00
#rwgt            1           1   2.1000554398775548E-002           7        8793           0
</event>
<event>
      5   9999  3.19816E-02  2.01245E+02 -1.00000E+00  1.11550E-01
       1    -1     0     0   502     0  0.000000000E+00  0.000000000E+00  1.725298211E+03  1.725298211E+03  0.000000000E+00  0.00000E+00  9.000E+00
      21    -1     0     0   501   502  0.000000000E+00  0.000000000E+00 -3.119530228E+02  3.119530228E+02  0.000000000E+00  0.00000E+00  9.000E+00
      25     1     1     2     0     0  5.345170852E+02 -2.349650836E+02  2.326540555E+02  6.408354035E+02  1.250000000E+02  0.00000E+00  9.000E+00
      25     1     1     2     0     0 -3.811581320E+02  3.652742905E+02  8.161901296E+02  9.800500786E+02  1.250000000E+02  0.00000E+00  9.000E+00
       1     1     1     2   501     0 -1.533589532E+02 -1.303092068E+02  3.645010028E+02  4.163657514E+02  5.394796609E-06  0.00000E+00  9.000E+00
#rwgt            1           1   2.5031444351752207E-002           7        8988           0
</event>
<event>
      5   9999  3.19816E-02  2.01253E+01 -1.00000E+00  1.66146E-01
      21    -1     0     0   502   501  0.000000000E+00  0.000000000E+00  8.973382247E+02  8.973382247E+02  0.000000000E+00  0.00000E+00  9.000E+00
      21    -1     0     0   511   502  0.000000000E+00  0.000000000E+00 -3.407130557E+02  3.407130557E+02  0.000000000E+00  0.00000E+00  9.000E+00
      25     1     1     2     0     0  9.171655606E+01 -4.493053686E+02  1.501996397E+01  4.755395254E+02  1.250000000E+02  0.00000E+00  9.000E+00
      25     1     1     2     0     0 -1.048039498E+02  4.340165468E+02  5.654945286E+02  7.312751142E+02  1.250000000E+02  0.00000E+00  9.000E+00
      21     1     1     2   511   501  1.308739378E+01  1.528882185E+01 -2.388932351E+01  3.123664078E+01  3.371747881E-07  0.00000E+00  9.000E+00
#rwgt            1           1   3.1478907023885977E-002           7        9079           0
</event>
<event>
      5   9999  3.19816E-02  4.12718E+01 -1.00000E+00  1.44002E-01
      21    -1     0     0   502   501  0.000000000E+00  0.000000000E+00  1.170072237E+03  1.170072237E+03  0.000000000E+00  0.00000E+00  9.000E+00
      21    -1     0     0   512   502  0.000000000E+00  0.000000000E+00 -5.644027582E+02  5.644027582E+02  0.000000000E+00  0.00000E+00  9.000E+00
      25     1     1     2     0     0 -2.222809064E+01 -6.462134350E+01  1.066658567E+03  1.076129874E+03  1.250000000E+02  0.00000E+00  9.000E+00
      25     1     1     2     0     0  4.317272577E+01  2.905894366E+01  5.100617035E+01  1.446891007E+02  1.250000000E+02  0.00000E+00  9.000E+00
      21     1     1     2   512   501 -2.094463513E+01  3.556239983E+01 -5.119952591E+02  5.136560204E+02  5.394796609E-06  0.00000E+00  9.000E+00
#rwgt            1           1   2.6609209522898969E-002           7        9269           0
</event>
<event>
      5   9999  3.19816E-02  1.17219E+02 -1.00000E+00  1.20802E-01
      21    -1     0     0   511   501  0.000000000E+00  0.000000000E+00  2.655643082E+02  2.655643082E+02  0.000000000E+00  0.00000E+00  9.000E+00
      21    -1     0     0   501   502  0.000000000E+00  0.000000000E+00 -1.163301459E+03  1.163301459E+03  0.000000000E+00  0.00000E+00  9.000E+00
      25     1     1     2     0     0 -2.555877007E+02  2.303731135E+02 -7.872883817E+02  8.682423856E+02  1.250000000E+02  0.00000E+00  9.000E+00
      25     1     1     2     0     0  2.125557441E+02 -3.394073696E+02 -3.448197825E+01  4.209409860E+02  1.250000000E+02  0.00000E+00  9.000E+00
      21     1     1     2   511   502  4.303195660E+01  1.090342560E+02 -7.596679044E+01  1.396823952E+02  1.651812370E-06  0.00000E+00  9.000E+00
#rwgt            1           1   2.7758873353382365E-002           7        9382           0
</event>
<event>
      5   9999  3.19816E-02  2.01062E+01 -1.00000E+00  1.66179E-01
      21    -1     0     0   502   501  0.000000000E+00  0.000000000E+00  5.235793909E+01  5.235793909E+01  0.000000000E+00  0.00000E+00  9.000E+00
      21    -1     0     0   501   512  0.000000000E+00  0.000000000E+00 -1.070626114E+03  1.070626114E+03  0.000000000E+00  0.00000E+00  9.000E+00
      25     1     1     2     0     0  4.943359227E+01  8.347059484E+01 -1.085637200E+02  1.918908584E+02  1.250000000E+02  0.00000E+00  9.000E+00
      25     1     1     2     0     0 -6.919593225E+01 -8.717338647E+01 -6.715782027E+02  6.921196130E+02  1.250000000E+02  0.00000E+00  9.000E+00
      21     1     1     2   502   512  1.976233998E+01  3.702791632E+00 -2.381262523E+02  2.389735818E+02  3.814697266E-06  0.00000E+00  9.000E+00
#rwgt            1           1   2.9600605040387796E-002           7        9450           0
</event>
<event>
      5   9999  3.19816E-02  4.93607E+01 -1.00000E+00  1.39395E-01
      21    -1     0     0   502   501  0.000000000E+00  0.000000000E+00  7.901839917E+02  7.901839917E+02  0.000000000E+00  0.00000E+00  9.000E+00
      21    -1     0     0   511   502  0.000000000E+00  0.000000000E+00 -1.946839252E+02  1.946839252E+02  0.000000000E+00  0.00000E+00  9.000E+00
      25     1     1     2     0     0 -1.736563204E+02 -8.691447090E+00  8.296911091E+01  2.296539402E+02  1.250000000E+02  0.00000E+00  9.000E+00
      25     1     1     2     0     0  2.062792900E+02  4.573497660E+01  6.036077656E+02  6.516211847E+02  1.250000000E+02  0.00000E+00  9.000E+00
      21     1     1     2   511   501 -3.262296958E+01 -3.704352951E+01 -9.107681004E+01  1.035927920E+02  1.907348633E-06  0.00000E+00  9.000E+00
#rwgt            1           1   2.8420030888564374E-002           7        9595           0
</event>
<event>
      5   9999  3.19816E-02  4.42507E+01 -1.00000E+00  1.42171E-01
      21    -1     0     0   502   512  0.000000000E+00  0.000000000E+00  9.307602268E+01  9.307602268E+01  0.000000000E+00  0.00000E+00  9.000E+00
      21    -1     0     0   501   502  0.000000000E+00  0.000000000E+00 -2.259798618E+03  2.259798618E+03  0.000000000E+00  0.00000E+00  9.000E+00
      25     1     1     2     0     0  2.621427894E+02 -8.894780133E+01 -3.120617916E+02  4.354745861E+02  1.250000000E+02  0.00000E+00  9.000E+00
      25     1     1     2     0     0 -2.772402998E+02  1.305433563E+02 -1.841828901E+03  1.871326388E+03  1.250000000E+02  0.00000E+00  9.000E+00
      21     1     1     2   501   512  1.509751047E+01 -4.159555502E+01 -1.283190339E+01  4.607366671E+01  1.390207266E-06  0.00000E+00  9.000E+00
#rwgt            1           1   2.2148467612453818E-002           7        9682           0
</event>
<event>
      5   9999  3.19816E-02  1.78811E+01 -1.00000E+00  1.70485E-01
      21    -1     0     0   502   511  0.000000000E+00  0.000000000E+00  9.362502970E+01  9.362502970E+01  0.000000000E+00  0.00000E+00  9.000E+00
      21    -1     0     0   501   502  0.000000000E+00  0.000000000E+00 -1.729258741E+03  1.729258741E+03  0.000000000E+00  0.00000E+00  9.000E+00
      25     1     1     2     0     0 -1.873435258E+02  1.360817348E+01 -1.039180550E+02  2.484084161E+02  1.250000000E+02  0.00000E+00  9.000E+00
      25     1     1     2     0     0  1.719127168E+02 -2.264268158E+01 -1.540003014E+03  1.554767171E+03  1.250000000E+02  0.00000E+00  9.000E+00
      21     1     1     2   501   511  1.543080906E+01  9.034508100E+00  8.287357559E+00  1.970818358E+01  6.848052319E-07  0.00000E+00  9.000E+00
#rwgt            1           1   2.6326951248516813E-002           7        9769           0
</event>
<event>
      5   9999  3.19816E-02  2.20780E+02 -1.00000E+00  1.10107E-01
      21    -1     0     0   502   501  0.000000000E+00  0.000000000E+00  8.995222731E+02  8.995222731E+02  0.000000000E+00  0.00000E+00  9.000E+00
      -5    -1     0     0     0   502  0.000000000E+00  0.000000000E+00 -9.165711757E+02  9.165711757E+02  0.000000000E+00  0.00000E+00  9.000E+00
      25     1     1     2     0     0 -3.010544291E+02  3.748068826E+02  4.058703242E+02  6.414590311E+02  1.250000000E+02  0.00000E+00  9.000E+00
      25     1     1     2     0     0  2.026478950E+02 -1.771712820E+02  2.980536567E+02  4.206148057E+02  1.250000000E+02  0.00000E+00  9.000E+00
      -5     1     1     2     0   501  9.840653406E+01 -1.976356005E+02 -7.209728835E+02  7.540196120E+02  7.629394531E-06  0.00000E+00  9.000E+00
#rwgt            1           1   2.7760164277031908E-002           7        9997           0
</event>
<event>
      5   9999  3.19816E-02  1.09104E+02 -1.00000E+00  1.22149E-01
      21    -1     0     0   511   501  0.000000000E+00  0.000000000E+00  1.333621515E+02  1.333621515E+02  0.000000000E+00  0.00000E+00  9.000E+00
      21    -1     0     0   501   502  0.000000000E+00  0.000000000E+00 -5.537175475E+02  5.537175475E+02  0.000000000E+00  0.00000E+00  9.000E+00
      25     1     1     2     0     0 -1.960222263E+02  2.044387120E+01 -3.184437275E+02  3.948089065E+02  1.250000000E+02  0.00000E+00  9.000E+00
      25     1     1     2     0     0  1.006506844E+02  3.254692596E+01 -7.372995090E+01  1.795855459E+02  1.250000000E+02  0.00000E+00  9.000E+00
      21     1     1     2   511   502  9.537154194E+01 -5.299079717E+01 -2.818171756E+01  1.126852466E+02  2.676241913E-06  0.00000E+00  9.000E+00
#rwgt            1           1   3.0360986623184635E-002           7       10030           0
</event>
<event>
      5   9999  3.19816E-02  7.72526E+01 -1.00000E+00  1.29088E-01
      21    -1     0     0   512   501  0.000000000E+00  0.000000000E+00  4.458943315E+02  4.458943315E+02  0.000000000E+00  0.00000E+00  9.000E+00
      21    -1     0     0   501   502  0.000000000E+00  0.000000000E+00 -5.059625733E+02  5.059625733E+02  0.000000000E+00  0.00000E+00  9.000E+00
      25     1     1     2     0     0 -1.790652473E+02  3.275116634E+01 -1.706098132E+02  2.790514469E+02  1.250000000E+02  0.00000E+00  9.000E+00
      25     1     1     2     0     0  1.894501058E+02 -1.093026098E+02 -2.193233707E+02  3.340151853E+02  1.250000000E+02  0.00000E+00  9.000E+00
      21     1     1     2   512   502 -1.038485847E+01  7.655144351E+01  3.298649420E+02  3.387902725E+02  0.000000000E+00  0.00000E+00  9.000E+00
#rwgt            1           1   2.9006873995266910E-002           7       10090           0
</event>
<event>
      5   9999  3.28059E-02  4.76844E+01 -1.00000E+00  1.40261E-01
      21    -1     0     0   502   501  0.000000000E+00  0.000000000E+00  4.923521713E+02  4.923521713E+02  0.000000000E+00  0.00000E+00  9.000E+00
      21    -1     0     0   501   511  0.000000000E+00  0.000000000E+00 -1.167878930E+02  1.167878930E+02  0.000000000E+00  0.00000E+00  9.000E+00
      25     1     1     2     0     0 -1.710823805E+02 -4.073636927E+01  2.162494383E+02  3.054790537E+02  1.250000000E+02  0.00000E+00  9.000E+00
      25     1     1     2     0     0  1.440689230E+02  8.003106541E+01  1.488617079E+02  2.548443331E+02  1.250000000E+02  0.00000E+00  9.000E+00
      21     1     1     2   502   511  2.701345750E+01 -3.929469614E+01  1.045313213E+01  4.881667750E+01  4.298152060E-07  0.00000E+00  9.000E+00
#rwgt            1           1   2.9402131060688608E-002           7       10184           0
</event>
<event>
      5   9999  3.19816E-02  4.30388E+01 -1.00000E+00  1.42895E-01
      21    -1     0     0   502   501  0.000000000E+00  0.000000000E+00  2.465336206E+02  2.465336206E+02  0.000000000E+00  0.00000E+00  9.000E+00
       4    -1     0     0   501     0  0.000000000E+00  0.000000000E+00 -9.723551584E+02  9.723551584E+02  0.000000000E+00  0.00000E+00  9.000E+00
      25     1     1     2     0     0  2.600797151E+02  1.044489478E+02 -2.972280142E+01  3.083171838E+02  1.250000000E+02  0.00000E+00  9.000E+00
      25     1     1     2     0     0 -2.177063850E+02 -1.119881983E+02 -7.088559349E+01  2.838788368E+02  1.250000000E+02  0.00000E+00  9.000E+00
       4     1     1     2   502     0 -4.237333017E+01  7.539250483E+00 -6.252131429E+02  6.266927584E+02  1.078959322E-05  0.00000E+00  9.000E+00
#rwgt            1           1   2.8660818072520203E-002           7       10265           0
</event>
<event>
      5   9999  3.19816E-02  8.27467E+01 -1.00000E+00  1.27644E-01
      21    -1     0     0   502   511  0.000000000E+00  0.000000000E+00  4.513188839E+02  4.513188839E+02  0.000000000E+00  0.00000E+00  9.000E+00
      21    -1     0     0   501   502  0.000000000E+00  0.000000000E+00 -2.896584177E+03  2.896584177E+03  0.000000000E+00  0.00000E+00  9.000E+00
      25     1     1     2     0     0 -8.485338675E+02  7.301482993E+02 -1.028079575E+03  1.525024221E+03  1.250000000E+02  0.00000E+00  9.000E+00
      25     1     1     2     0     0  7.659308179E+02 -7.252740136E+02 -1.337711493E+03  1.708147959E+03  1.250000000E+02  0.00000E+00  9.000E+00
      21     1     1     2   501   511  8.260304952E+01 -4.874285660E+00 -7.947422602E+01  1.147308810E+02  1.651812370E-06  0.00000E+00  9.000E+00
#rwgt            1           1   1.6855517233977661E-002           7       10435           0
</event>
<event>
      5   9999  3.19816E-02  6.81153E+01 -1.00000E+00  1.31824E-01
      21    -1     0     0   502   501  0.000000000E+00  0.000000000E+00  1.438373146E+02  1.438373146E+02  0.000000000E+00  0.00000E+00  9.000E+00
      21    -1     0     0   512   502  0.000000000E+00  0.000000000E+00 -4.297242045E+02  4.297242045E+02  0.000000000E+00  0.00000E+00  9.000E+00
      25     1     1     2     0     0 -8.607221323E+00 -2.471729087E+01 -2.773213980E+02  3.053148973E+02  1.250000000E+02  0.00000E+00  9.000E+00
      25     1     1     2     0     0  4.497555602E+01 -3.287643387E+01  7.844829287E+01  1.577428135E+02  1.250000000E+02  0.00000E+00  9.000E+00
      21     1     1     2   512   501 -3.636833470E+01  5.759372474E+01 -8.701378483E+01  1.105038083E+02  1.348699152E-06  0.00000E+00  9.000E+00
#rwgt            1           1   3.0565103208736944E-002           7       10580           0
</event>
<event>
      5   9999  3.19816E-02  1.15372E+01 -1.00000E+00  1.88842E-01
      21    -1     0     0   511   501  0.000000000E+00  0.000000000E+00  2.832327882E+02  2.832327882E+02  0.000000000E+00  0.00000E+00  9.000E+00
      21    -1     0     0   501   502  0.000000000E+00  0.000000000E+00 -3.958341977E+02  3.958341977E+02  0.000000000E+00  0.00000E+00  9.000E+00
      25     1     1     2     0     0  2.680154477E+02  1.203027241E+02  3.196755233E+01  3.208612629E+02  1.250000000E+02  0.00000E+00  9.000E+00
      25     1     1     2     0     0 -2.568285012E+02 -1.174815298E+02 -1.522587206E+02  3.443406843E+02  1.250000000E+02  0.00000E+00  9.000E+00
      21     1     1     2   511   502 -1.118694652E+01 -2.821194381E+00  7.689758777E+00  1.386503878E+01  1.192092896E-07  0.00000E+00  9.000E+00
#rwgt            1           1   2.7171370701012623E-002           7       10632           0
</event>
<event>
      5   9999  3.19816E-02  7.69986E+01 -1.00000E+00  1.29158E-01
      21    -1     0     0   502   501  0.000000000E+00  0.000000000E+00  2.360679326E+03  2.360679326E+03  0.000000000E+00  0.00000E+00  9.000E+00
      21    -1     0     0   501   512  0.000000000E+00  0.000000000E+00 -1.805693379E+02  1.805693379E+02  0.000000000E+00  0.00000E+00  9.000E+00
      25     1     1     2     0     0 -2.731127258E+02  1.080385636E+01  2.361007128E+01  3.014792194E+02  1.250000000E+02  0.00000E+00  9.000E+00
      25     1     1     2     0     0  3.157351813E+02  5.332184951E+01  2.131167597E+03  2.158710785E+03  1.250000000E+02  0.00000E+00  9.000E+00
      21     1     1     2   502   512 -4.262245559E+01 -6.412570587E+01  2.533231921E+01  8.105865944E+01  1.215700987E-06  0.00000E+00  9.000E+00
#rwgt            1           1   3.2174116177183028E-002           7       10830           0
</event>
<event>
      5   9999  3.19816E-02  2.90617E+02 -1.00000E+00  1.06042E-01
      21    -1     0     0   511   501  0.000000000E+00  0.000000000E+00  5.172168275E+02  5.172168275E+02  0.000000000E+00  0.00000E+00  9.000E+00
      21    -1     0     0   501   502  0.000000000E+00  0.000000000E+00 -9.070181939E+02  9.070181939E+02  0.000000000E+00  0.00000E+00  9.000E+00
      25     1     1     2     0     0  7.064640634E+01  2.027154632E+02  1.455665640E+01  2.488400490E+02  1.250000000E+02  0.00000E+00  9.000E+00
      25     1     1     2     0     0  8.666440195E+01 -4.470745937E+02 -6.440873587E+02  7.986613403E+02  1.250000000E+02  0.00000E+00  9.000E+00
      21     1     1     2   511   502 -1.573108083E+02  2.443591305E+02  2.397293359E+02  3.767336321E+02  2.697398305E-06  0.00000E+00  9.000E+00
#rwgt            2          11   3.6947618976049721E-003           7       11065           0
</event>
<event>
      5   9999  3.19816E-02  6.93398E+01 -1.00000E+00  1.31429E-01
      21    -1     0     0   502   501  0.000000000E+00  0.000000000E+00  2.929851443E+02  2.929851443E+02  0.000000000E+00  0.00000E+00  9.000E+00
       2    -1     0     0   501     0  0.000000000E+00  0.000000000E+00 -1.653329805E+03  1.653329805E+03  0.000000000E+00  0.00000E+00  9.000E+00
      25     1     1     2     0     0 -4.521227454E+02 -2.606564943E+02 -1.010757014E+02  5.460751618E+02  1.250000000E+02  0.00000E+00  9.000E+00
      25     1     1     2     0     0  3.947800750E+02  2.216715896E+02 -7.407959954E+02  8.771506758E+02  1.250000000E+02  0.00000E+00  9.000E+00
       2     1     1     2   502     0  5.734267040E+01  3.898490462E+01 -5.184729638E+02  5.230891117E+02  7.629394531E-06  0.00000E+00  9.000E+00
#rwgt            1           1   1.3743895047499717E-002           7       11115           0
</event>
<event>
      5   9999  3.19816E-02  2.22352E+02 -1.00000E+00  1.09998E-01
       1    -1     0     0   502     0  0.000000000E+00  0.000000000E+00  8.998881720E+02  8.998881720E+02  0.000000000E+00  0.00000E+00  9.000E+00
      21    -1     0     0   501   502  0.000000000E+00  0.000000000E+00 -1.325511511E+03  1.325511511E+03  0.000000000E+00  0.00000E+00  9.000E+00
      25     1     1     2     0     0  6.746411760E+02 -4.750736377E+01 -9.791684250E+02  1.196575727E+03  1.250000000E+02  0.00000E+00  9.000E+00
      25     1     1     2     0     0 -4.601446017E+02  1.060870561E+02  6.593480084E+01  4.929096428E+02  1.250000000E+02  0.00000E+00  9.000E+00
       1     1     1     2   501     0 -2.144965743E+02 -5.857969234E+01  4.876102852E+02  5.359143131E+02  5.394796609E-06  0.00000E+00  9.000E+00
#rwgt            2          17   6.4472958109025428E-004           7       11225           0
</event>
<event>
      5   9999  3.19816E-02  1.35423E+01 -1.00000E+00  1.81671E-01
       2    -1     0     0   502     0  0.000000000E+00  0.000000000E+00  4.111947951E+02  4.111947951E+02  0.000000000E+00  0.00000E+00  9.000E+00
      21    -1     0     0   501   502  0.000000000E+00  0.000000000E+00 -4.914566244E+02  4.914566244E+02  0.000000000E+00  0.00000E+00  9.000E+00
      25     1     1     2     0     0  1.010130797E+02 -1.045380888E+02 -8.456665742E+00  1.919071897E+02  1.250000000E+02  0.00000E+00  9.000E+00
      25     1     1     2     0     0 -1.094467888E+02  9.394248735E+01 -3.678349742E+02  4.144048247E+02  1.250000000E+02  0.00000E+00  9.000E+00
       2     1     1     2   501     0  8.433709140E+00  1.059560141E+01  2.960298106E+02  2.963394051E+02  5.394796609E-06  0.00000E+00  9.000E+00
#rwgt            1           1   3.0538892670993190E-002           7       11244           0
</event>
<event>
      5   9999  3.19816E-02  3.74919E+01 -1.00000E+00  1.46606E-01
      21    -1     0     0   502   501  0.000000000E+00  0.000000000E+00  1.567670940E+01  1.567670940E+01  0.000000000E+00  0.00000E+00  9.000E+00
       2    -1     0     0   501     0  0.000000000E+00  0.000000000E+00 -3.236132677E+03  3.236132677E+03  0.000000000E+00  0.00000E+00  9.000E+00
      25     1     1     2     0     0  1.341630237E+01 -6.317230281E+01 -4.248344117E+02  4.475265516E+02  1.250000000E+02  0.00000E+00  9.000E+00
      25     1     1     2     0     0 -5.050348585E+01  5.767863739E+01 -1.308848332E+03  1.317036971E+03  1.250000000E+02  0.00000E+00  9.000E+00
       2     1     1     2   502     0  3.708718348E+01  5.493665420E+00 -1.486773224E+03  1.487245864E+03  2.157918644E-05  0.00000E+00  9.000E+00
#rwgt            1           1   7.9901602760956800E-002           7       11423           0
</event>
<event>
      5   9999  3.19816E-02  8.18647E+01 -1.00000E+00  1.27867E-01
      21    -1     0     0   502   501  0.000000000E+00  0.000000000E+00  1.988618008E+02  1.988618008E+02  0.000000000E+00  0.00000E+00  9.000E+00
       1    -1     0     0   501     0  0.000000000E+00  0.000000000E+00 -2.131992097E+03  2.131992097E+03  0.000000000E+00  0.00000E+00  9.000E+00
      25     1     1     2     0     0 -5.514213953E+01 -9.441792556E+01  1.163466108E+02  2.027731098E+02  1.250000000E+02  0.00000E+00  9.000E+00
      25     1     1     2     0     0  6.059797519E+01  1.761006474E+02 -2.896026354E+02  3.663034795E+02  1.250000000E+02  0.00000E+00  9.000E+00
       1     1     1     2   502     0 -5.455835652E+00 -8.168272184E+01 -1.759874272E+03  1.761777309E+03  2.157918644E-05  0.00000E+00  9.000E+00
#rwgt            1           1   3.0542223372782493E-002           7       11502           0
</event>
<event>
      5   9999  3.19816E-02  1.05341E+02 -1.00000E+00  1.22820E-01
      21    -1     0     0   511   501  0.000000000E+00  0.000000000E+00  3.292189096E+02  3.292189096E+02  0.000000000E+00  0.00000E+00  9.000E+00
      21    -1     0     0   501   502  0.000000000E+00  0.000000000E+00 -5.794259638E+02  5.794259638E+02  0.000000000E+00  0.00000E+00  9.000E+00
      25     1     1     2     0     0  1.502192532E+02  3.255360733E+01 -3.917727566E+02  4.390176013E+02  1.250000000E+02  0.00000E+00  9.000E+00
      25     1     1     2     0     0 -7.533622891E+01 -1.066431861E+02 -9.965500564E+01  2.064084220E+02  1.250000000E+02  0.00000E+00  9.000E+00
      21     1     1     2   511   502 -7.488302429E+01  7.408957876E+01  2.412207082E+02  2.632188501E+02  3.814697266E-06  0.00000E+00  9.000E+00
#rwgt            2          11   5.0217391471211415E-003           7       11735           0
</event>
<event>
      5   9999  3.19816E-02  3.27770E+02 -1.00000E+00  1.04358E-01
      21    -1     0     0   502   501  0.000000000E+00  0.000000000E+00  8.640468872E+02  8.640468872E+02  0.000000000E+00  0.00000E+00  9.000E+00
      21    -1     0     0   501   512  0.000000000E+00  0.000000000E+00 -7.112117770E+02  7.112117770E+02  0.000000000E+00  0.00000E+00  9.000E+00
      25     1     1     2     0     0 -4.618493822E+02 -1.153598656E+01  3.136187573E+02  5.722059557E+02  1.250000000E+02  0.00000E+00  9.000E+00
      25     1     1     2     0     0  1.725969652E+02  1.656990782E+02  3.215815114E+02  4.198637463E+02  1.250000000E+02  0.00000E+00  9.000E+00
      21     1     1     2   502   512  2.892524170E+02 -1.541630917E+02 -4.823651585E+02  5.831889622E+02  0.000000000E+00  0.00000E+00  9.000E+00
#rwgt            2          11   4.1967510478030934E-003           7       11755           0
</event>
<event>
      5   9999  3.19816E-02  2.15338E+01 -1.00000E+00  1.63764E-01
      21    -1     0     0   502   501  0.000000000E+00  0.000000000E+00  5.818749317E+02  5.818749317E+02  0.000000000E+00  0.00000E+00  9.000E+00
       1    -1     0     0   501     0  0.000000000E+00  0.000000000E+00 -6.933717235E+02  6.933717235E+02  0.000000000E+00  0.00000E+00  9.000E+00
      25     1     1     2     0     0 -2.761909971E+02  1.040008838E+02  2.496645828E+02  4.062696821E+02  1.250000000E+02  0.00000E+00  9.000E+00
      25     1     1     2     0     0  2.856143793E+02 -8.463844900E+01  1.508317931E+02  3.565311634E+02  1.250000000E+02  0.00000E+00  9.000E+00
       1     1     1     2   502     0 -9.423382154E+00 -1.936243482E+01 -5.119931677E+02  5.124458096E+02  0.000000000E+00  0.00000E+00  9.000E+00
#rwgt            1           1   2.8647559980573355E-002           7       11790           0
</event>
<event>
      5   9999  3.19816E-02  1.57118E+01 -1.00000E+00  1.75507E-01
      21    -1     0     0   502   501  0.000000000E+00  0.000000000E+00  1.531461829E+03  1.531461829E+03  0.000000000E+00  0.00000E+00  9.000E+00
      21    -1     0     0   511   502  0.000000000E+00  0.000000000E+00 -1.020506167E+03  1.020506167E+03  0.000000000E+00  0.00000E+00  9.000E+00
      25     1     1     2     0     0  5.115019208E+02  8.767952467E+02 -4.490173304E+02  1.116980610E+03  1.250000000E+02  0.00000E+00  9.000E+00
      25     1     1     2     0     0 -5.055933426E+02 -8.622367178E+02  9.827597121E+02  1.407308935E+03  1.250000000E+02  0.00000E+00  9.000E+00
      21     1     1     2   511   501 -5.908578173E+00 -1.455852891E+01 -2.278671960E+01  2.767845100E+01  0.000000000E+00  0.00000E+00  9.000E+00
#rwgt            1           1   6.6976261794792727E-002           7       11992           0
</event>
<event>
      5   9999  3.19816E-02  6.64695E+00 -1.00000E+00  2.18780E-01
      21    -1     0     0   502   501  0.000000000E+00  0.000000000E+00  5.375519545E+02  5.375519545E+02  0.000000000E+00  0.00000E+00  9.000E+00
      21    -1     0     0   501   512  0.000000000E+00  0.000000000E+00 -7.095259903E+02  7.095259903E+02  0.000000000E+00  0.00000E+00  9.000E+00
      25     1     1     2     0     0 -4.718637903E+02 -3.710995402E+02 -9.702253668E+01  6.208129170E+02  1.250000000E+02  0.00000E+00  9.000E+00
      25     1     1     2     0     0  4.746047159E+02  3.650440224E+02 -6.614147804E+01  6.152287946E+02  1.250000000E+02  0.00000E+00  9.000E+00
      21     1     1     2   502   512 -2.740925578E+00  6.055517767E+00 -8.810021138E+00  1.103623309E+01  1.685873940E-07  0.00000E+00  9.000E+00
#rwgt            1           1   3.0083140082389988E-002           7       12244           0
</event>
<event>
      5   9999  3.19816E-02  1.52264E+01 -1.00000E+00  1.76773E-01
      21    -1     0     0   502   511  0.000000000E+00  0.000000000E+00  1.372997074E+03  1.372997074E+03  0.000000000E+00  0.00000E+00  9.000E+00
      21    -1     0     0   501   502  0.000000000E+00  0.000000000E+00 -1.283631290E+03  1.283631290E+03  0.000000000E+00  0.00000E+00  9.000E+00
      25     1     1     2     0     0 -1.407859395E+02 -9.118280560E+02 -4.537038438E+02  1.035723545E+03  1.250000000E+02  0.00000E+00  9.000E+00
      25     1     1     2     0     0  1.499917837E+02  8.996997342E+02 -1.455847643E+02  9.320821158E+02  1.250000000E+02  0.00000E+00  9.000E+00
      21     1     1     2   501   511 -9.205844157E+00  1.212832180E+01  6.886543919E+02  6.888227024E+02  1.321449896E-05  0.00000E+00  9.000E+00
#rwgt            1           1   2.7275542185416377E-002           7       12616           0
</event>
<event>
      5   9999  3.19816E-02  4.55111E+02 -1.00000E+00  1.00027E-01
      21    -1     0     0   502   501  0.000000000E+00  0.000000000E+00  9.295732183E+02  9.295732183E+02  0.000000000E+00  0.00000E+00  9.000E+00
       2    -1     0     0   501     0  0.000000000E+00  0.000000000E+00 -4.316030052E+02  4.316030052E+02  0.000000000E+00  0.00000E+00  9.000E+00
      25     1     1     2     0     0 -1.878813938E+02  9.325586461E+01  1.479487219E+02  2.854993848E+02  1.250000000E+02  0.00000E+00  9.000E+00
      25     1     1     2     0     0 -2.423619270E+02 -2.416365210E+02  4.797640932E+02  6.024334794E+02  1.250000000E+02  0.00000E+00  9.000E+00
       2     1     1     2   502     0  4.302433208E+02  1.483806564E+02 -1.297426020E+02  4.732433592E+02  1.044697871E-05  0.00000E+00  9.000E+00
#rwgt            2          13   6.8572264938786514E-004           7       13020           0
</event>
<event>
      5   9999  3.19816E-02  3.23359E+01 -1.00000E+00  1.50812E-01
      21    -1     0     0   511   501  0.000000000E+00  0.000000000E+00  5.152738186E+01  5.152738186E+01  0.000000000E+00  0.00000E+00  9.000E+00
      21    -1     0     0   501   502  0.000000000E+00  0.000000000E+00 -9.759332836E+02  9.759332836E+02  0.000000000E+00  0.00000E+00  9.000E+00
      25     1     1     2     0     0 -1.082792317E+02 -6.983367635E+01 -2.375735304E+02  2.977705773E+02  1.250000000E+02  0.00000E+00  9.000E+00
      25     1     1     2     0     0  1.390470704E+02  5.988613469E+01 -6.569555510E+02  6.856646650E+02  1.250000000E+02  0.00000E+00  9.000E+00
      21     1     1     2   511   502 -3.076783874E+01  9.947541662E+00 -2.987682040E+01  4.402542314E+01  9.536743164E-07  0.00000E+00  9.000E+00
#rwgt            1           1   2.6353227367663316E-002           7       13039           0
</event>
<event>
      5   9999  3.19816E-02  1.55811E+02 -1.00000E+00  1.15743E-01
      21    -1     0     0   512   501  0.000000000E+00  0.000000000E+00  4.983318927E+02  4.983318927E+02  0.000000000E+00  0.00000E+00  9.000E+00
      21    -1     0     0   501   502  0.000000000E+00  0.000000000E+00 -1.397780339E+03  1.397780339E+03  0.000000000E+00  0.00000E+00  9.000E+00
      25     1     1     2     0     0 -4.298033820E+01  2.485181814E+02 -1.317949140E+03  1.347673377E+03  1.250000000E+02  0.00000E+00  9.000E+00
      25     1     1     2     0     0 -6.442511908E+01 -1.356413760E+02  1.954801361E+02  2.763813714E+02  1.250000000E+02  0.00000E+00  9.000E+00
      21     1     1     2   512   502  1.074054573E+02 -1.128768054E+02  2.230205572E+02  2.720574836E+02  5.394796609E-06  0.00000E+00  9.000E+00
#rwgt            1           1   3.0725091627386885E-002           7       13157           0
</event>
<event>
      5   9999  3.19816E-02  1.64246E+02 -1.00000E+00  1.14853E-01
      21    -1     0     0   511   501  0.000000000E+00  0.000000000E+00  9.882569432E+01  9.882569432E+01  0.000000000E+00  0.00000E+00  9.000E+00
      21    -1     0     0   501   502  0.000000000E+00  0.000000000E+00 -9.178456421E+02  9.178456421E+02  0.000000000E+00  0.00000E+00  9.000E+00
      25     1     1     2     0     0  7.213548232E+01  1.523442248E+02 -4.873570594E+02  5.306168052E+02  1.250000000E+02  0.00000E+00  9.000E+00
      25     1     1     2     0     0 -1.418104160E+02 -3.609270105E+00 -1.516847601E+02  2.423973749E+02  1.250000000E+02  0.00000E+00  9.000E+00
      21     1     1     2   511   502  6.967493369E+01 -1.487349547E+02 -1.799781282E+02  2.436571562E+02  2.697398305E-06  0.00000E+00  9.000E+00
#rwgt            1           1   3.3170627445108465E-002           7       13238           0
</event>
<event>
      5   9999  3.19816E-02  1.81652E+01 -1.00000E+00  1.69893E-01
      21    -1     0     0   512   501  0.000000000E+00  0.000000000E+00  5.079957913E+02  5.079957913E+02  0.000000000E+00  0.00000E+00  9.000E+00
      21    -1     0     0   501   502  0.000000000E+00  0.000000000E+00 -3.850029421E+02  3.850029421E+02  0.000000000E+00  0.00000E+00  9.000E+00
      25     1     1     2     0     0  2.135959778E+02 -3.318267406E+02 -3.832717347E+01  4.157237060E+02  1.250000000E+02  0.00000E+00  9.000E+00
      25     1     1     2     0     0 -2.262085908E+02  3.448994648E+02  1.536695990E+02  4.575645452E+02  1.250000000E+02  0.00000E+00  9.000E+00
      21     1     1     2   512   502  1.261261298E+01 -1.307272423E+01  7.650423707E+00  1.971048218E+01  0.000000000E+00  0.00000E+00  9.000E+00
#rwgt            1           1   2.8583590585532004E-002           7       13277           0
</event>
<event>
      5   9999  3.19816E-02  3.06275E+02 -1.00000E+00  1.05301E-01
      21    -1     0     0   502   501  0.000000000E+00  0.000000000E+00  7.803204061E+02  7.803204061E+02  0.000000000E+00  0.00000E+00  9.000E+00
      21    -1     0     0   511   502  0.000000000E+00  0.000000000E+00 -8.619369616E+02  8.619369616E+02  0.000000000E+00  0.00000E+00  9.000E+00
      25     1     1     2     0     0  7.147095311E+01 -2.832692148E+02 -4.520048109E+02  5.525241119E+02  1.250000000E+02  0.00000E+00  9.000E+00
      25     1     1     2     0     0  1.993269058E+02  1.401865086E+02  6.308163774E+02  6.877047147E+02  1.250000000E+02  0.00000E+00  9.000E+00
      21     1     1     2   511   501 -2.707978589E+02  1.430827062E+02 -2.604281219E+02  4.020285411E+02  0.000000000E+00  0.00000E+00  9.000E+00
#rwgt            1           1   2.9515799312287375E-002           7       13440           0
</event>
<event>
      5   9999  3.19816E-02  9.75193E+01 -1.00000E+00  1.24321E-01
      21    -1     0     0   512   501  0.000000000E+00  0.000000000E+00  1.770905151E+03  1.770905151E+03  0.000000000E+00  0.00000E+00  9.000E+00
      21    -1     0     0   501   502  0.000000000E+00  0.000000000E+00 -5.423749754E+02  5.423749754E+02  0.000000000E+00  0.00000E+00  9.000E+00
      25     1     1     2     0     0  8.283537637E+02 -2.436773733E+02  9.111064450E+02  1.261462871E+03  1.250000000E+02  0.00000E+00  9.000E+00
      25     1     1     2     0     0 -8.281642399E+02  1.461582694E+02  1.577406513E+02  8.647111431E+02  1.250000000E+02  0.00000E+00  9.000E+00
      21     1     1     2   512   502 -1.895237689E-01  9.751910388E+01  1.596830793E+02  1.871061126E+02  2.697398305E-06  0.00000E+00  9.000E+00
#rwgt            1           1   2.8654303779319764E-002           7       13479           0
</event>
<event>
      5   9999  3.19816E-02  8.16033E+01 -1.00000E+00  1.27934E-01
      21    -1     0     0   511   501  0.000000000E+00  0.000000000E+00  6.878053232E+02  6.878053232E+02  0.000000000E+00  0.00000E+00  9.000E+00
      21    -1     0     0   501   502  0.000000000E+00  0.000000000E+00 -3.757880781E+02  3.757880781E+02  0.000000000E+00  0.00000E+00  9.000E+00
      25     1     1     2     0     0 -2.218794795E+02  3.612398160E+02  2.696624003E+02  5.177523715E+02  1.250000000E+02  0.00000E+00  9.000E+00
      25     1     1     2     0     0  1.404199554E+02 -3.660818926E+02 -5.897655944E+01  4.157366360E+02  1.250000000E+02  0.00000E+00  9.000E+00
      21     1     1     2   511   502  8.145952412E+01  4.842076611E+00  1.013314043E+02  1.301043937E+02  1.907348633E-06  0.00000E+00  9.000E+00
#rwgt            1           1   2.9283623389419949E-002           7       13581           0
</event>
<event>
      5   9999  3.19816E-02  4.16301E+01 -1.00000E+00  1.43772E-01
      21    -1     0     0   502   501  0.000000000E+00  0.000000000E+00  7.519363147E+02  7.519363147E+02  0.000000000E+00  0.00000E+00  9.000E+00
      21    -1     0     0   512   502  0.000000000E+00  0.000000000E+00 -5.590903421E+02  5.590903421E+02  0.000000000E+00  0.00000E+00  9.000E+00
      25     1     1     2     0     0 -4.331712378E+02 -3.265554960E+02 -5.518412649E+01  5.594158570E+02  1.250000000E+02  0.00000E+00  9.000E+00
      25     1     1     2     0     0  4.538437626E+02  3.626901880E+02  3.151312219E+02  6.726447950E+02  1.250000000E+02  0.00000E+00  9.000E+00
      21     1     1     2   512   501 -2.067252471E+01 -3.613469193E+01 -6.710112278E+01  7.896600482E+01  1.348699152E-06  0.00000E+00  9.000E+00
#rwgt            1           1   2.9813726090002254E-002           7       13718           0
</event>
<event>
      5   9999  3.19816E-02  5.88077E+01 -1.00000E+00  1.35171E-01
      21    -1     0     0   502   501  0.000000000E+00  0.000000000E+00  4.894813813E+02  4.894813813E+02  0.000000000E+00  0.00000E+00  9.000E+00
      21    -1     0     0   501   511  0.000000000E+00  0.000000000E+00 -4.811834345E+02  4.811834345E+02  0.000000000E+00  0.00000E+00  9.000E+00
      25     1     1     2     0     0  3.245731673E+02 -3.376391839E+01 -3.074914231E+02  4.654715012E+02  1.250000000E+02  0.00000E+00  9.000E+00
      25     1     1     2     0     0 -2.663010734E+02  2.584501168E+01  3.318593144E+02  4.442294800E+02  1.250000000E+02  0.00000E+00  9.000E+00
      21     1     1     2   502   511 -5.827209391E+01  7.918906711E+00 -1.606994459E+01  6.096383462E+01  1.118282261E-06  0.00000E+00  9.000E+00
#rwgt            1           1   2.9088282608217119E-002           7       13857           0
</event>
<event>
      5   9999  3.19816E-02  4.06597E+01 -1.00000E+00  1.44401E-01
      21    -1     0     0   502   501  0.000000000E+00  0.000000000E+00  1.198605982E+03  1.198605982E+03  0.000000000E+00  0.00000E+00  9.000E+00
      21    -1     0     0   501   512  0.000000000E+00  0.000000000E+00 -1.124712257E+02  1.124712257E+02  0.000000000E+00  0.00000E+00  9.000E+00
      25     1     1     2     0     0  2.979171200E+02 -3.052543512E+01  4.017936168E+02  5.164779987E+02  1.250000000E+02  0.00000E+00  9.000E+00
      25     1     1     2     0     0 -3.379643974E+02  3.755591943E+01  6.298085995E+02  7.265770799E+02  1.250000000E+02  0.00000E+00  9.000E+00
      21     1     1     2   502   512  4.004727738E+01 -7.030484315E+00  5.453254041E+01  6.802212948E+01  1.168007728E-06  0.00000E+00  9.000E+00
#rwgt            1           1   2.8460524872686733E-002           7       13937           0
</event>
<event>
      5   9999  3.19816E-02  9.37434E+01 -1.00000E+00  1.25103E-01
       2    -1     0     0   502     0  0.000000000E+00  0.000000000E+00  2.532716125E+03  2.532716125E+03  0.000000000E+00  0.00000E+00  9.000E+00
      21    -1     0     0   501   502  0.000000000E+00  0.000000000E+00 -7.114898602E+01  7.114898602E+01  0.000000000E+00  0.00000E+00  9.000E+00
      25     1     1     2     0     0  3.667292422E+01 -1.425302764E+02  1.046668676E+02  2.196359174E+02  1.250000000E+02  0.00000E+00  9.000E+00
      25     1     1     2     0     0  8.988058820E+00  6.065904140E+01  3.733740177E+02  3.984889730E+02  1.250000000E+02  0.00000E+00  9.000E+00
       2     1     1     2   501     0 -4.566098304E+01  8.187123500E+01  1.983526254E+03  1.985740220E+03  2.157918644E-05  0.00000E+00  9.000E+00
#rwgt            1           1   2.7965510726091700E-002           7       14057           0
</event>
<event>
      5   9999  3.19816E-02  2.39455E+02 -1.00000E+00  1.08874E-01
      21    -1     0     0   502   501  0.000000000E+00  0.000000000E+00  3.475244782E+02  3.475244782E+02  0.000000000E+00  0.00000E+00  9.000E+00
      21    -1     0     0   501   511  0.000000000E+00  0.000000000E+00 -2.256293645E+03  2.256293645E+03  0.000000000E+00  0.00000E+00  9.000E+00
      25     1     1     2     0     0  6.307604433E+02  2.311768698E+02 -3.173538739E+02  7.534188498E+02  1.250000000E+02  0.00000E+00  9.000E+00
      25     1     1     2     0     0 -3.929989915E+02 -2.027466894E+02 -3.282470662E+02  5.647349501E+02  1.250000000E+02  0.00000E+00  9.000E+00
      21     1     1     2   502   511 -2.377614518E+02 -2.843018034E+01 -1.263168227E+03  1.285664323E+03  0.000000000E+00  0.00000E+00  9.000E+00
#rwgt            1           1   2.0194995360911468E-002           7       14098           0
</event>
<event>
      5   9999  3.19816E-02  4.09813E+01 -1.00000E+00  1.44190E-01
      21    -1     0     0   502   501  0.000000000E+00  0.000000000E+00  1.398696925E+02  1.398696925E+02  0.000000000E+00  0.00000E+00  9.000E+00
      21    -1     0     0   512   502  0.000000000E+00  0.000000000E+00 -1.326000676E+03  1.326000676E+03  0.000000000E+00  0.00000E+00  9.000E+00
      25     1     1     2     0     0 -1.480302508E+02 -2.933618613E+02 -8.034874960E+02  8.770355142E+02  1.250000000E+02  0.00000E+00  9.000E+00
      25     1     1     2     0     0  1.617755478E+02  3.319692408E+02 -2.849807606E+02  4.829222905E+02  1.250000000E+02  0.00000E+00  9.000E+00
      21     1     1     2   512   501 -1.374529709E+01 -3.860737950E+01 -9.766272690E+01  1.059125638E+02  1.348699152E-06  0.00000E+00  9.000E+00
#rwgt            1           1   2.6065948457604387E-002           7       14169           0
</event>
<event>
      5   9999  3.19816E-02  2.46488E+01 -1.00000E+00  1.59212E-01
      21    -1     0     0   502   511  0.000000000E+00  0.000000000E+00  4.444242472E+02  4.444242472E+02  0.000000000E+00  0.00000E+00  9.000E+00
      21    -1     0     0   501   502  0.000000000E+00  0.000000000E+00 -1.639633901E+02  1.639633901E+02  0.000000000E+00  0.00000E+00  9.000E+00
      25     1     1     2     0     0  1.252827868E+02  2.412213879E+01  2.872149173E+02  3.382233921E+02  1.250000000E+02  0.00000E+00  9.000E+00
      25     1     1     2     0     0 -1.490159465E+02 -3.077815785E+01 -6.463159316E+01  2.072565804E+02  1.250000000E+02  0.00000E+00  9.000E+00
      21     1     1     2   501   511  2.373315966E+01  6.656019060E+00  5.787753292E+01  6.290766467E+01  9.536743164E-07  0.00000E+00  9.000E+00
#rwgt            1           1   2.7070546179193581E-002           7       14304           0
</event>
<event>
      5   9999  3.19816E-02  3.80667E+01 -1.00000E+00  1.46187E-01
      21    -1     0     0   502   512  0.000000000E+00  0.000000000E+00  5.527772297E+02  5.527772297E+02  0.000000000E+00  0.00000E+00  9.000E+00
      21    -1     0     0   501   502  0.000000000E+00  0.000000000E+00 -2.093232246E+03  2.093232246E+03  0.000000000E+00  0.00000E+00  9.000E+00
      25     1     1     2     0     0 -4.061537143E+02  1.531818601E+01 -1.379827525E+03  1.443864428E+03  1.250000000E+02  0.00000E+00  9.000E+00
      25     1     1     2     0     0  4.127175350E+02  2.217831419E+01 -6.120954513E+02  7.490750849E+02  1.250000000E+02  0.00000E+00  9.000E+00
      21     1     1     2   501   512 -6.563820661E+00 -3.749650020E+01  4.514679608E+02  4.530699625E+02  9.344061824E-06  0.00000E+00  9.000E+00
#rwgt            1           1   2.8336572957180430E-002           7       14470           0
</event>
<event>
      5   9999  3.19816E-02  2.79035E+01 -1.00000E+00  1.55258E-01
      21    -1     0     0   502   511  0.000000000E+00  0.000000000E+00  6.469923101E+02  6.469923101E+02  0.000000000E+00  0.00000E+00  9.000E+00
      21    -1     0     0   501   502  0.000000000E+00  0.000000000E+00 -2.136254926E+02  2.136254926E+02  0.000000000E+00  0.00000E+00  9.000E+00
      25     1     1     2     0     0  1.952482642E+02  2.125212149E+02  5.339109839E+00  3.145483390E+02  1.250000000E+02  0.00000E+00  9.000E+00
      25     1     1     2     0     0 -2.061602601E+02 -1.868397902E+02  3.558437717E+02  4.686800080E+02  1.250000000E+02  0.00000E+00  9.000E+00
      21     1     1     2   501   511  1.091199587E+01 -2.568142469E+01  7.218393596E+01  7.738945561E+01  1.348699152E-06  0.00000E+00  9.000E+00
#rwgt            1           1   2.5757028705220716E-002           7       14656           0
</event>
<event>
      5   9999  3.19816E-02  2.24127E+01 -1.00000E+00  1.62389E-01
      21    -1     0     0   502   501  0.000000000E+00  0.000000000E+00  4.749980260E+02  4.749980260E+02  0.000000000E+00  0.00000E+00  9.000E+00
       1    -1     0     0   501     0  0.000000000E+00  0.000000000E+00 -5.389331101E+02  5.389331101E+02  0.000000000E+00  0.00000E+00  9.000E+00
      25     1     1     2     0     0 -1.263493121E+02 -1.258311336E+02  1.024456613E+02  2.406610404E+02  1.250000000E+02  0.00000E+00  9.000E+00
      25     1     1     2     0     0  1.359330658E+02  1.055708012E+02  2.658399960E+02  3.404686416E+02  1.250000000E+02  0.00000E+00  9.000E+00
       1     1     1     2   502     0 -9.583753694E+00  2.026033241E+01 -4.322207414E+02  4.328014542E+02  7.629394531E-06  0.00000E+00  9.000E+00
#rwgt            1           1   2.4655359412248654E-002           7       14810           0
</event>
<event>
      5   9999  3.19816E-02  2.38140E+01 -1.00000E+00  1.60348E-01
      21    -1     0     0   502   501  0.000000000E+00  0.000000000E+00  4.669831428E+02  4.669831428E+02  0.000000000E+00  0.00000E+00  9.000E+00
      21    -1     0     0   501   511  0.000000000E+00  0.000000000E+00 -1.927536848E+02  1.927536848E+02  0.000000000E+00  0.00000E+00  9.000E+00
      25     1     1     2     0     0  2.045877443E+02 -1.306631985E+02  1.357037629E+02  3.049090485E+02  1.250000000E+02  0.00000E+00  9.000E+00
      25     1     1     2     0     0 -2.145087574E+02  1.523122355E+02  1.508487221E+02  3.280142695E+02  1.250000000E+02  0.00000E+00  9.000E+00
      21     1     1     2   502   511  9.921013066E+00 -2.164903699E+01 -1.232302710E+01  2.681350965E+01  3.371747881E-07  0.00000E+00  9.000E+00
#rwgt            1           1   2.3752976848849680E-002           7       14970           0
</event>
<event>
      5   9999  3.19816E-02  3.28507E+01 -1.00000E+00  1.50351E-01
      21    -1     0     0   502   501  0.000000000E+00  0.000000000E+00  4.667557872E+01  4.667557872E+01  0.000000000E+00  0.00000E+00  9.000E+00
      21    -1     0     0   512   502  0.000000000E+00  0.000000000E+00 -2.086321137E+03  2.086321137E+03  0.000000000E+00  0.00000E+00  9.000E+00
      25     1     1     2     0     0 -1.675138931E+02  1.712290413E+02 -1.060694204E+03  1.094567258E+03  1.250000000E+02  0.00000E+00  9.000E+00
      25     1     1     2     0     0  1.896935976E+02 -1.954618014E+02 -7.587530094E+02  8.157941566E+02  1.250000000E+02  0.00000E+00  9.000E+00
      21     1     1     2   512   501 -2.217970450E+01  2.423276014E+01 -2.201983454E+02  2.226353011E+02  2.697398305E-06  0.00000E+00  9.000E+00
#rwgt            1           1   3.1853845701035041E-002           7       15135           0
</event>
<event>
      5   9999  3.19816E-02  2.00511E+01 -1.00000E+00  1.66278E-01
      21    -1     0     0   502   511  0.000000000E+00  0.000000000E+00  8.646968286E+01  8.646968286E+01  0.000000000E+00  0.00000E+00  9.000E+00
      21    -1     0     0   501   502  0.000000000E+00  0.000000000E+00 -8.066155260E+02  8.066155260E+02  0.000000000E+00  0.00000E+00  9.000E+00
      25     1     1     2     0     0  6.409466789E+00  2.071173268E+02 -2.424473962E+02  3.425557009E+02  1.250000000E+02  0.00000E+00  9.000E+00
      25     1     1     2     0     0  1.337776230E+01 -2.103595404E+02 -4.679481386E+02  5.282334344E+02  1.250000000E+02  0.00000E+00  9.000E+00
      21     1     1     2   501   511 -1.978722909E+01  3.242213547E+00 -9.750308363E+00  2.229607357E+01  2.920019320E-07  0.00000E+00  9.000E+00
#rwgt            1           1   2.8391589801966811E-002           7       15298           0
</event>
<event>
      5   9999  3.19816E-02  5.73641E+02 -1.00000E+00  9.71859E-02
      21    -1     0     0   502   501  0.000000000E+00  0.000000000E+00  1.399885765E+03  1.399885765E+03  0.000000000E+00  0.00000E+00  9.000E+00
      21    -1     0     0   501   512  0.000000000E+00  0.000000000E+00 -3.099315914E+02  3.099315914E+02  0.000000000E+00  0.00000E+00  9.000E+00
      25     1     1     2     0     0 -6.238097527E+01 -9.108577680E+01  3.048133848E+02  3.474538882E+02  1.250000000E+02  0.00000E+00  9.000E+00
      25     1     1     2     0     0  2.931610982E+02 -4.340856004E+02  3.484488267E+02  6.414166530E+02  1.250000000E+02  0.00000E+00  9.000E+00
      21     1     1     2   502   512 -2.307801229E+02  5.251713772E+02  4.366919619E+02  7.209468150E+02  1.206313194E-05  0.00000E+00  9.000E+00
#rwgt            2          11   2.4213934555006610E-003           7       15577           0
</event>
<event>
      5   9999  3.19816E-02  1.72001E+02 -1.00000E+00  1.14086E-01
      21    -1     0     0   502   501  0.000000000E+00  0.000000000E+00  7.711391330E+02  7.711391330E+02  0.000000000E+00  0.00000E+00  9.000E+00
      21    -1     0     0   501   511  0.000000000E+00  0.000000000E+00 -4.787102016E+02  4.787102016E+02  0.000000000E+00  0.00000E+00  9.000E+00
      25     1     1     2     0     0  2.277026214E+02 -3.220541314E+02  3.290309785E+02  5.286338356E+02  1.250000000E+02  0.00000E+00  9.000E+00
      25     1     1     2     0     0 -5.701658629E+01  3.008277971E+02  2.307880059E+02  4.032819835E+02  1.250000000E+02  0.00000E+00  9.000E+00
      21     1     1     2   502   511 -1.706860351E+02  2.122633434E+01 -2.673900529E+02  3.179335155E+02  3.814697266E-06  0.00000E+00  9.000E+00
#rwgt            1           1   2.5457545438091478E-002           7       15597           0
</event>
<event>
      5   9999  3.19816E-02  2.16698E+02 -1.00000E+00  1.10395E-01
      21    -1     0     0   502   501  0.000000000E+00  0.000000000E+00  2.002412251E+03  2.002412251E+03  0.000000000E+00  0.00000E+00  9.000E+00
       2    -1     0     0   501     0  0.000000000E+00  0.000000000E+00 -7.634107113E+02  7.634107113E+02  0.000000000E+00  0.00000E+00  9.000E+00
      25     1     1     2     0     0  1.502378477E+02  9.960931833E+02  4.369202112E+02  1.105123211E+03  1.250000000E+02  0.00000E+00  9.000E+00
      25     1     1     2     0     0 -3.666456483E+02 -1.007303036E+03  9.163027228E+02  1.415741543E+03  1.250000000E+02  0.00000E+00  9.000E+00
       2     1     1     2   502     0  2.164078006E+02  1.120985283E+01 -1.142213939E+02  2.449582083E+02  2.336015456E-06  0.00000E+00  9.000E+00
#rwgt            1           1   2.3543615486908545E-002           7       15645           0
</event>
<event>
      5   9999  3.19816E-02  2.36380E+02 -1.00000E+00  1.09068E-01
      21    -1     0     0   511   501  0.000000000E+00  0.000000000E+00  3.639747256E+02  3.639747256E+02  0.000000000E+00  0.00000E+00  9.000E+00
      21    -1     0     0   501   502  0.000000000E+00  0.000000000E+00 -2.730176556E+02  2.730176556E+02  0.000000000E+00  0.00000E+00  9.000E+00
      25     1     1     2     0     0 -3.212494422E+01 -1.289244186E+02  8.639061012E+01  2.018461178E+02  1.250000000E+02  0.00000E+00  9.000E+00
      25     1     1     2     0     0  3.258837279E+00 -1.056863458E+02 -8.238321392E+01  1.832817985E+02  1.250000000E+02  0.00000E+00  9.000E+00
      21     1     1     2   511   502  2.886610694E+01  2.346107645E+02  8.694967374E+01  2.518644649E+02  3.162979880E-06  0.00000E+00  9.000E+00
#rwgt            1           1   6.2086611793548713E-002           7       15714           0
</event>
<event>
      5   9999  3.19816E-02  6.36670E+01 -1.00000E+00  1.33341E-01
      21    -1     0     0   502   501  0.000000000E+00  0.000000000E+00  1.772576296E+02  1.772576296E+02  0.000000000E+00  0.00000E+00  9.000E+00
      21    -1     0     0   501   512  0.000000000E+00  0.000000000E+00 -1.349750674E+03  1.349750674E+03  0.000000000E+00  0.00000E+00  9.000E+00
      25     1     1     2     0     0  2.833314795E+02 -3.287551398E+02 -3.373817161E+02  5.637447043E+02  1.250000000E+02  0.00000E+00  9.000E+00
      25     1     1     2     0     0 -2.375769286E+02  2.844831840E+02 -5.747001980E+02  6.951825635E+02  1.250000000E+02  0.00000E+00  9.000E+00
      21     1     1     2   502   512 -4.575455091E+01  4.427195583E+01 -2.604111299E+02  2.680810355E+02  3.814697266E-06  0.00000E+00  9.000E+00
#rwgt            1           1   2.9511295744514995E-002           7       15744           0
</event>
<event>
      5   9999  3.19816E-02  9.45515E+01 -1.00000E+00  1.24932E-01
      21    -1     0     0   502   511  0.000000000E+00  0.000000000E+00  2.019930289E+02  2.019930289E+02  0.000000000E+00  0.00000E+00  9.000E+00
      21    -1     0     0   501   502  0.000000000E+00  0.000000000E+00 -9.613733303E+02  9.613733303E+02  0.000000000E+00  0.00000E+00  9.000E+00
      25     1     1     2     0     0  7.015193748E+01  2.470946831E+02 -6.252966044E+02  6.874575771E+02  1.250000000E+02  0.00000E+00  9.000E+00
      25     1     1     2     0     0  1.050357206E+01 -2.964370163E+02 -1.821408649E+02  3.698452708E+02  1.250000000E+02  0.00000E+00  9.000E+00
      21     1     1     2   501   511 -8.065550954E+01  4.934233319E+01  4.805716788E+01  1.060635114E+02  1.651812370E-06  0.00000E+00  9.000E+00
#rwgt            2          11   3.2074407377486467E-003           7       15859           0
</event>
<event>
      5   9999  3.19816E-02  8.44111E+01 -1.00000E+00  1.27231E-01
      21    -1     0     0   502   512  0.000000000E+00  0.000000000E+00  7.782522838E+02  7.782522838E+02  0.000000000E+00  0.00000E+00  9.000E+00
      21    -1     0     0   501   502  0.000000000E+00  0.000000000E+00 -3.101233545E+03  3.101233545E+03  0.000000000E+00  0.00000E+00  9.000E+00
      25     1     1     2     0     0 -1.169105287E+03  1.730615495E+02 -1.408547321E+03  1.842929198E+03  1.250000000E+02  0.00000E+00  9.000E+00
      25     1     1     2     0     0  1.133716136E+03 -9.642709964E+01 -1.247434896E+03  1.693023710E+03  1.250000000E+02  0.00000E+00  9.000E+00
      21     1     1     2   501   512  3.538915102E+01 -7.663444988E+01  3.330009561E+02  3.435329208E+02  3.814697266E-06  0.00000E+00  9.000E+00
#rwgt            1           1   6.3274847884000229E-002           7       15879           0
</event>
<event>
      5   9999  3.19816E-02  4.71006E+02 -1.00000E+00  9.95947E-02
       1    -1     0     0   502     0  0.000000000E+00  0.000000000E+00  1.162930203E+03  1.162930203E+03  0.000000000E+00  0.00000E+00  9.000E+00
      21    -1     0     0   501   502  0.000000000E+00  0.000000000E+00 -4.794559543E+02  4.794559543E+02  0.000000000E+00  0.00000E+00  9.000E+00
      25     1     1     2     0     0  1.712286695E+01  4.462447325E+01  3.140859565E+02  3.414081491E+02  1.250000000E+02  0.00000E+00  9.000E+00
      25     1     1     2     0     0 -1.777703360E+02 -4.873874391E+02 -1.929420846E+02  5.674508403E+02  1.250000000E+02  0.00000E+00  9.000E+00
       1     1     1     2   501     0  1.606474690E+02  4.427629658E+02  5.623303765E+02  7.335271676E+02  1.078959322E-05  0.00000E+00  9.000E+00
#rwgt            2          17   4.5881241468461934E-004           7       16094           0
</event>
<event>
      5   9999  3.19816E-02  4.93671E+01 -1.00000E+00  1.39392E-01
      21    -1     0     0   511   501  0.000000000E+00  0.000000000E+00  9.210139563E+02  9.210139563E+02  0.000000000E+00  0.00000E+00  9.000E+00
      21    -1     0     0   501   502  0.000000000E+00  0.000000000E+00 -9.997102319E+02  9.997102319E+02  0.000000000E+00  0.00000E+00  9.000E+00
      25     1     1     2     0     0  8.307232650E+01  8.795906871E+01  6.156015824E+02  6.397094008E+02  1.250000000E+02  0.00000E+00  9.000E+00
      25     1     1     2     0     0 -1.136858947E+02 -4.923028274E+01 -9.776652344E+02  9.933792900E+02  1.250000000E+02  0.00000E+00  9.000E+00
      21     1     1     2   511   502  3.061356816E+01 -3.872878597E+01  2.833673763E+02  2.876354974E+02  3.814697266E-06  0.00000E+00  9.000E+00
#rwgt            2          11   2.7756656707158306E-003           7       16158           0
</event>
<event>
      5   9999  3.19816E-02  3.97089E+01 -1.00000E+00  1.45037E-01
      21    -1     0     0   502   501  0.000000000E+00  0.000000000E+00  1.770345065E+02  1.770345065E+02  0.000000000E+00  0.00000E+00  9.000E+00
      21    -1     0     0   501   512  0.000000000E+00  0.000000000E+00 -9.275862791E+02  9.275862791E+02  0.000000000E+00  0.00000E+00  9.000E+00
      25     1     1     2     0     0  1.294496600E+02  4.678880245E+01 -8.029550966E+02  8.242016098E+02  1.250000000E+02  0.00000E+00  9.000E+00
      25     1     1     2     0     0 -9.004642071E+01 -5.170599458E+01  1.200102874E+02  2.020132095E+02  1.250000000E+02  0.00000E+00  9.000E+00
      21     1     1     2   502   512 -3.940323924E+01  4.917192132E+00 -6.760696341E+01  7.840596625E+01  1.348699152E-06  0.00000E+00  9.000E+00
#rwgt            1           1   2.7904134643684853E-002           7       16193           0
</event>
<event>
      5   9999  3.19816E-02  2.94313E+01 -1.00000E+00  1.53619E-01
      21    -1     0     0   502   511  0.000000000E+00  0.000000000E+00  8.673211924E+01  8.673211924E+01  0.000000000E+00  0.00000E+00  9.000E+00
      21    -1     0     0   501   502  0.000000000E+00  0.000000000E+00 -2.995679278E+03  2.995679278E+03  0.000000000E+00  0.00000E+00  9.000E+00
      25     1     1     2     0     0 -2.736482592E+02  4.026419244E+02 -1.404182190E+03  1.491427676E+03  1.250000000E+02  0.00000E+00  9.000E+00
      25     1     1     2     0     0  2.442170105E+02 -4.025801650E+02 -1.422957014E+03  1.504042686E+03  1.250000000E+02  0.00000E+00  9.000E+00
      21     1     1     2   501   511  2.943124878E+01 -6.175932386E-02 -8.180795496E+01  8.694103584E+01  1.651812370E-06  0.00000E+00  9.000E+00
#rwgt            1           1   5.6238683444857135E-002           7       16291           0
</event>
<event>
      5   9999  3.19816E-02  2.16605E+02 -1.00000E+00  1.10401E-01
      21    -1     0     0   502   512  0.000000000E+00  0.000000000E+00  6.834280703E+02  6.834280703E+02  0.000000000E+00  0.00000E+00  9.000E+00
      21    -1     0     0   501   502  0.000000000E+00  0.000000000E+00 -6.485243766E+02  6.485243766E+02  0.000000000E+00  0.00000E+00  9.000E+00
      25     1     1     2     0     0 -2.122743950E+02 -3.031639598E+02 -1.303831276E+02  4.118173930E+02  1.250000000E+02  0.00000E+00  9.000E+00
      25     1     1     2     0     0  3.302972206E+02  4.847910176E+02 -6.582225670E+01  6.033872340E+02  1.250000000E+02  0.00000E+00  9.000E+00
      21     1     1     2   501   512 -1.180228256E+02 -1.816270578E+02  2.311090780E+02  3.167478199E+02  6.031565972E-06  0.00000E+00  9.000E+00
#rwgt            1           1   3.2028321299628619E-002           7       16424           0
</event>
<event>
      5   9999  3.19816E-02  3.28510E+01 -1.00000E+00  1.50351E-01
      21    -1     0     0   502   501  0.000000000E+00  0.000000000E+00  1.346837214E+03  1.346837214E+03  0.000000000E+00  0.00000E+00  9.000E+00
      21    -1     0     0   511   502  0.000000000E+00  0.000000000E+00 -1.059905302E+02  1.059905302E+02  0.000000000E+00  0.00000E+00  9.000E+00
      25     1     1     2     0     0 -1.946561767E+02  1.609856198E+01  9.567195625E+01  2.508551655E+02  1.250000000E+02  0.00000E+00  9.000E+00
      25     1     1     2     0     0  1.720490493E+02 -3.993350277E+01  1.148728296E+03  1.168929963E+03  1.250000000E+02  0.00000E+00  9.000E+00
      21     1     1     2   511   501  2.260712739E+01  2.383494079E+01 -3.553568438E+00  3.304261582E+01  6.293866659E-07  0.00000E+00  9.000E+00
#rwgt            1           1   2.5515122321904237E-002           7       16470           0
</event>
<event>
      5   9999  3.19816E-02  2.45603E+02 -1.00000E+00  1.08494E-01
      21    -1     0     0   502   501  0.000000000E+00  0.000000000E+00  1.186284171E+02  1.186284171E+02  0.000000000E+00  0.00000E+00  9.000E+00
       2    -1     0     0   501     0  0.000000000E+00  0.000000000E+00 -1.843216417E+03  1.843216417E+03  0.000000000E+00  0.00000E+00  9.000E+00
      25     1     1     2     0     0 -3.816003664E+00  6.688386679E+01 -8.241849843E+02  8.362977352E+02  1.250000000E+02  0.00000E+00  9.000E+00
      25     1     1     2     0     0  2.493855496E+02 -6.281590784E+01 -1.248101609E+02  3.119961008E+02  1.250000000E+02  0.00000E+00  9.000E+00
       2     1     1     2   502     0 -2.455695460E+02 -4.067958956E+00 -7.755928546E+02  8.135509980E+02  0.000000000E+00  0.00000E+00  9.000E+00
#rwgt            1           1   2.8896816675475286E-002           7       16607           0
</event>
<event>
      5   9999  3.19816E-02  1.14000E+02 -1.00000E+00  1.21321E-01
      21    -1     0     0   502   511  0.000000000E+00  0.000000000E+00  1.416710014E+03  1.416710014E+03  0.000000000E+00  0.00000E+00  9.000E+00
      21    -1     0     0   501   502  0.000000000E+00  0.000000000E+00 -4.749360551E+02  4.749360551E+02  0.000000000E+00  0.00000E+00  9.000E+00
      25     1     1     2     0     0 -3.525969891E+02 -2.764996817E+02 -2.942163299E+02  5.504225281E+02  1.250000000E+02  0.00000E+00  9.000E+00
      25     1     1     2     0     0  2.449612742E+02  2.389426780E+02  1.123402883E+03  1.180999013E+03  1.250000000E+02  0.00000E+00  9.000E+00
      21     1     1     2   501   511  1.076357149E+02  3.755700373E+01  1.125874054E+02  1.602245284E+02  2.336015456E-06  0.00000E+00  9.000E+00
#rwgt            1           1   2.0068275620872753E-002           7       16672           0
</event>
<event>
      5   9999  3.19816E-02  1.55102E+01 -1.00000E+00  1.76026E-01
       2    -1     0     0   502     0  0.000000000E+00  0.000000000E+00  8.399021778E+02  8.399021778E+02  0.000000000E+00  0.00000E+00  9.000E+00
      21    -1     0     0   501   502  0.000000000E+00  0.000000000E+00 -3.421724366E+02  3.421724366E+02  0.000000000E+00  0.00000E+00  9.000E+00
      25     1     1     2     0     0  2.106394452E+02 -1.592660873E+02  4.681126343E+02  5.518053107E+02  1.250000000E+02  0.00000E+00  9.000E+00
      25     1     1     2     0     0 -2.229232946E+02  1.687357611E+02 -2.219503560E+02  3.782241569E+02  1.250000000E+02  0.00000E+00  9.000E+00
       2     1     1     2   501     0  1.228384940E+01 -9.469673716E+00  2.515674628E+02  2.520451468E+02  2.697398305E-06  0.00000E+00  9.000E+00
#rwgt            1           1   2.6714467777179354E-002           7       16754           0
</event>
<event>
      5   9999  3.19816E-02  1.13823E+02 -1.00000E+00  1.21351E-01
      21    -1     0     0   511   501  0.000000000E+00  0.000000000E+00  1.619841243E+02  1.619841243E+02  0.000000000E+00  0.00000E+00  9.000E+00
      21    -1     0     0   501   502  0.000000000E+00  0.000000000E+00 -8.342246122E+02  8.342246122E+02  0.000000000E+00  0.00000E+00  9.000E+00
      25     1     1     2     0     0  9.498370545E+01  2.431188259E+02 -2.162037924E+02  3.612447199E+02  1.250000000E+02  0.00000E+00  9.000E+00
      25     1     1     2     0     0  1.810151666E+01 -2.560531364E+02 -4.332773850E+02  5.188883944E+02  1.250000000E+02  0.00000E+00  9.000E+00
      21     1     1     2   511   502 -1.130852221E+02  1.293431046E+01 -2.275931045E+01  1.160756222E+02  1.066240300E-06  0.00000E+00  9.000E+00
#rwgt            1           1   2.6443990245811243E-002           7       16986           0
</event>
<event>
      5   9999  3.19816E-02  4.44068E+01 -1.00000E+00  1.42080E-01
      21    -1     0     0   502   501  0.000000000E+00  0.000000000E+00  7.467373795E+02  7.467373795E+02  0.000000000E+00  0.00000E+00  9.000E+00
      21    -1     0     0   512   502  0.000000000E+00  0.000000000E+00 -4.371052515E+02  4.371052515E+02  0.000000000E+00  0.00000E+00  9.000E+00
      25     1     1     2     0     0  4.710056443E+02  1.154437493E+01  4.469534919E+02  6.613410720E+02  1.250000000E+02  0.00000E+00  9.000E+00
      25     1     1     2     0     0 -4.394568834E+02 -4.279564832E+01 -1.335892114E+02  4.779381731E+02  1.250000000E+02  0.00000E+00  9.000E+00
      21     1     1     2   512   501 -3.154876085E+01  3.125127339E+01 -3.732152461E+00  4.456338589E+01  6.925433897E-07  0.00000E+00  9.000E+00
#rwgt            1           1   3.1554705024810677E-002           7       17050           0
</event>
<event>
      5   9999  3.19816E-02  1.55358E+02 -1.00000E+00  1.15793E-01
      21    -1     0     0   502   511  0.000000000E+00  0.000000000E+00  8.334864914E+01  8.334864914E+01  0.000000000E+00  0.00000E+00  9.000E+00
      21    -1     0     0   501   502  0.000000000E+00  0.000000000E+00 -1.958543383E+03  1.958543383E+03  0.000000000E+00  0.00000E+00  9.000E+00
      25     1     1     2     0     0  1.734387933E+02  1.092566134E+02 -5.746287002E+02  6.227689505E+02  1.250000000E+02  0.00000E+00  9.000E+00
      25     1     1     2     0     0 -2.217030870E+02  3.841412818E+01 -1.214585283E+03  1.241559630E+03  1.250000000E+02  0.00000E+00  9.000E+00
      21     1     1     2   501   511  4.826429375E+01 -1.476707416E+02 -8.598075025E+01  1.775634517E+02  5.135693366E-06  0.00000E+00  9.000E+00
#rwgt            1           1   2.9256713617179259E-002           7       17178           0
</event>
<event>
      5   9999  3.19816E-02  1.50725E+02 -1.00000E+00  1.16311E-01
      21    -1     0     0   502   501  0.000000000E+00  0.000000000E+00  6.048337255E+01  6.048337255E+01  0.000000000E+00  0.00000E+00  9.000E+00
       1    -1     0     0   501     0  0.000000000E+00  0.000000000E+00 -1.631573323E+03  1.631573323E+03  0.000000000E+00  0.00000E+00  9.000E+00
      25     1     1     2     0     0  1.072858546E+01  4.048662151E+01 -8.102026295E+01  1.547370417E+02  1.250000000E+02  0.00000E+00  9.000E+00
      25     1     1     2     0     0 -1.603654449E+02 -5.856738062E+01 -6.423012192E+02  6.762566600E+02  1.250000000E+02  0.00000E+00  9.000E+00
       1     1     1     2   502     0  1.496368595E+02  1.808075910E+01 -8.477684687E+02  8.610629942E+02  1.525878906E-05  0.00000E+00  9.000E+00
#rwgt            1           1   2.6540813756264339E-002           7       17210           0
</event>
<event>
      5   9999  3.19816E-02  3.07361E+02 -1.00000E+00  1.05251E-01
      21    -1     0     0   502   501  0.000000000E+00  0.000000000E+00  1.651031161E+03  1.651031161E+03  0.000000000E+00  0.00000E+00  9.000E+00
      21    -1     0     0   511   502  0.000000000E+00  0.000000000E+00 -9.202287643E+02  9.202287643E+02  0.000000000E+00  0.00000E+00  9.000E+00
      25     1     1     2     0     0  3.112138015E+02  9.541725119E+02  2.852706036E+02  1.050858473E+03  1.250000000E+02  0.00000E+00  9.000E+00
      25     1     1     2     0     0 -6.185608617E+02 -9.512873644E+02  4.003391253E+02  1.209736171E+03  1.250000000E+02  0.00000E+00  9.000E+00
      21     1     1     2   511   501  3.073470603E+02 -2.885147520E+00  4.519266770E+01  3.106652809E+02  6.450533513E-06  0.00000E+00  9.000E+00
#rwgt            1           1   3.3260103914242979E-002           7       17304           0
</event>
<event>
      5   9999  3.19816E-02  3.65073E+02 -1.00000E+00  1.02894E-01
      21    -1     0     0   502   512  0.000000000E+00  0.000000000E+00  2.786642016E+03  2.786642016E+03  0.000000000E+00  0.00000E+00  9.000E+00
      21    -1     0     0   501   502  0.000000000E+00  0.000000000E+00 -5.247850048E+02  5.247850048E+02  0.000000000E+00  0.00000E+00  9.000E+00
      25     1     1     2     0     0  1.718780640E+02  7.560845407E+02  1.107198991E+02  7.931518124E+02  1.250000000E+02  0.00000E+00  9.000E+00
      25     1     1     2     0     0  1.690917336E+02 -8.865375532E+02  1.257053756E+03  1.552530191E+03  1.250000000E+02  0.00000E+00  9.000E+00
      21     1     1     2   501   512 -3.409697976E+02  1.304530125E+02  8.940833563E+02  9.657450178E+02  1.868812365E-05  0.00000E+00  9.000E+00
#rwgt            1           1   3.4235064458371968E-002           7       17358           0
</event>
<event>
      5   9999  3.19816E-02  4.12378E+01 -1.00000E+00  1.44024E-01
      21    -1     0     0   502   511  0.000000000E+00  0.000000000E+00  8.920850717E+01  8.920850717E+01  0.000000000E+00  0.00000E+00  9.000E+00
      21    -1     0     0   501   502  0.000000000E+00  0.000000000E+00 -1.035559408E+03  1.035559408E+03  0.000000000E+00  0.00000E+00  9.000E+00
      25     1     1     2     0     0  4.287142194E+01 -7.959759666E+01 -4.521514358E+00  1.543346374E+02  1.250000000E+02  0.00000E+00  9.000E+00
      25     1     1     2     0     0 -2.462599886E+01  4.261574606E+01 -9.056946056E+02  9.156037681E+02  1.250000000E+02  0.00000E+00  9.000E+00
      21     1     1     2   501   511 -1.824542308E+01  3.698185060E+01 -3.613478090E+01  5.482950965E+01  8.259061849E-07  0.00000E+00  9.000E+00
#rwgt            1           1   3.0448406013571069E-002           7       17413           0
</event>
<event>
      5   9999  3.19816E-02  3.28540E+01 -1.00000E+00  1.50348E-01
      21    -1     0     0   502   501  0.000000000E+00  0.000000000E+00  9.673727876E+02  9.673727876E+02  0.000000000E+00  0.00000E+00  9.000E+00
      21    -1     0     0   501   512  0.000000000E+00  0.000000000E+00 -9.377401209E+01  9.377401209E+01  0.000000000E+00  0.00000E+00  9.000E+00
      25     1     1     2     0     0  2.456738827E+02 -7.192586471E+01  3.535171842E+02  4.540136410E+02  1.250000000E+02  0.00000E+00  9.000E+00
      25     1     1     2     0     0 -2.472042434E+02  3.910749833E+01  4.765110365E+02  5.525641160E+02  1.250000000E+02  0.00000E+00  9.000E+00
      21     1     1     2   502   512  1.530360700E+00  3.281836638E+01  4.357055488E+01  5.456904276E+01  4.768371582E-07  0.00000E+00  9.000E+00
#rwgt            1           1   2.6679210602634961E-002           7       17532           0
</event>
<event>
      5   9999  3.19816E-02  1.04037E+02 -1.00000E+00  1.23060E-01
       2    -1     0     0   502     0  0.000000000E+00  0.000000000E+00  2.648137804E+03  2.648137804E+03  0.000000000E+00  0.00000E+00  9.000E+00
      21    -1     0     0   501   502  0.000000000E+00  0.000000000E+00 -5.627408647E+02  5.627408647E+02  0.000000000E+00  0.00000E+00  9.000E+00
      25     1     1     2     0     0  2.850359036E+02  3.982189180E+01 -4.820052558E+02  5.751393883E+02  1.250000000E+02  0.00000E+00  9.000E+00
      25     1     1     2     0     0 -3.010110137E+02 -1.426254982E+02  9.409491096E+02  1.005962171E+03  1.250000000E+02  0.00000E+00  9.000E+00
       2     1     1     2   501     0  1.597511016E+01  1.028036064E+02  1.626453086E+03  1.629777110E+03  2.157918644E-05  0.00000E+00  9.000E+00
#rwgt            1           1   1.9715571131325590E-002           7       17645           0
</event>
<event>
      5   9999  3.19816E-02  5.17368E+02 -1.00000E+00  9.84325E-02
      21    -1     0     0   502   501  0.000000000E+00  0.000000000E+00  6.816728748E+02  6.816728748E+02  0.000000000E+00  0.00000E+00  9.000E+00
       2    -1     0     0   501     0  0.000000000E+00  0.000000000E+00 -3.076465195E+03  3.076465195E+03  0.000000000E+00  0.00000E+00  9.000E+00
      25     1     1     2     0     0  2.669066278E+02  3.220502100E+02  3.377624919E+02  5.519637548E+02  1.250000000E+02  0.00000E+00  9.000E+00
      25     1     1     2     0     0 -7.657316850E+02 -1.847794998E+02 -5.641999629E+02  9.769519308E+02  1.250000000E+02  0.00000E+00  9.000E+00
       2     1     1     2   502     0  4.988250572E+02 -1.372707101E+02 -2.168354850E+03  2.229222385E+03  0.000000000E+00  0.00000E+00  9.000E+00
#rwgt            2          13   1.5019913040284654E-003           7       17898           0
</event>
<event>
      5   9999  3.19816E-02  2.73007E+00 -1.00000E+00  3.09874E-01
      21    -1     0     0   502   501  0.000000000E+00  0.000000000E+00  1.381812228E+03  1.381812228E+03  0.000000000E+00  0.00000E+00  9.000E+00
      21    -1     0     0   501   511  0.000000000E+00  0.000000000E+00 -5.164413799E+02  5.164413799E+02  0.000000000E+00  0.00000E+00  9.000E+00
      25     1     1     2     0     0  1.148068439E+02  7.588177032E+01  1.069481982E+03  1.085520780E+03  1.250000000E+02  0.00000E+00  9.000E+00
      25     1     1     2     0     0 -1.126717429E+02 -7.418041487E+01  2.765203440E+02  3.320935956E+02  1.250000000E+02  0.00000E+00  9.000E+00
      21     1     1     2   502   511 -2.135100987E+00 -1.701355453E+00 -4.806314782E+02  4.806392318E+02  0.000000000E+00  0.00000E+00  9.000E+00
#rwgt            1           1   3.6431966463740494E-002           7       17932           0
</event>
<event>
      5   9999  3.19816E-02  2.24436E+01 -1.00000E+00  1.62342E-01
      21    -1     0     0   512   501  0.000000000E+00  0.000000000E+00  2.332217836E+02  2.332217836E+02  0.000000000E+00  0.00000E+00  9.000E+00
      21    -1     0     0   501   502  0.000000000E+00  0.000000000E+00 -1.531039183E+02  1.531039183E+02  0.000000000E+00  0.00000E+00  9.000E+00
      25     1     1     2     0     0 -7.793328563E+01 -1.580628641E+01  1.050921690E+02  1.816392019E+02  1.250000000E+02  0.00000E+00  9.000E+00
      25     1     1     2     0     0  6.093699801E+01  3.046378941E+01 -6.677420526E+01  1.572423438E+02  1.250000000E+02  0.00000E+00  9.000E+00
      21     1     1     2   512   502  1.699628761E+01 -1.465750301E+01  4.179990156E+01  4.744415620E+01  4.768371582E-07  0.00000E+00  9.000E+00
#rwgt            1           1   2.8572725640422771E-002           7       18377           0
</event>
<event>
      5   9999  3.19816E-02  3.94040E+01 -1.00000E+00  1.45246E-01
      21    -1     0     0   502   501  0.000000000E+00  0.000000000E+00  2.360385573E+02  2.360385573E+02  0.000000000E+00  0.00000E+00  9.000E+00
      21    -1     0     0   511   502  0.000000000E+00  0.000000000E+00 -2.948976153E+02  2.948976153E+02  0.000000000E+00  0.00000E+00  9.000E+00
      25     1     1     2     0     0  5.726261012E+01 -1.312043174E+02  1.214189648E+02  2.255241549E+02  1.250000000E+02  0.00000E+00  9.000E+00
      25     1     1     2     0     0 -1.893746609E+01  1.403618757E+02 -9.495016521E+01  2.114252058E+02  1.250000000E+02  0.00000E+00  9.000E+00
      21     1     1     2   511   501 -3.832514402E+01 -9.157558264E+00 -8.532785752E+01  9.398681188E+01  1.348699152E-06  0.00000E+00  9.000E+00
#rwgt            1           1   2.6445882152297796E-002           7       18533           0
</event>
<event>
      5   9999  3.19816E-02  9.12676E+01 -1.00000E+00  1.25639E-01
      21    -1     0     0   512   501  0.000000000E+00  0.000000000E+00  1.251938306E+02  1.251938306E+02  0.000000000E+00  0.00000E+00  9.000E+00
      21    -1     0     0   501   502  0.000000000E+00  0.000000000E+00 -1.717518941E+03  1.717518941E+03  0.000000000E+00  0.00000E+00  9.000E+00
      25     1     1     2     0     0  2.079071940E+02  1.158304459E+02 -4.733384390E+02  5.443494937E+02  1.250000000E+02  0.00000E+00  9.000E+00
      25     1     1     2     0     0 -2.942970493E+02 -1.452679625E+02 -1.149639675E+03  1.202085653E+03  1.250000000E+02  0.00000E+00  9.000E+00
      21     1     1     2   512   502  8.638985535E+01  2.943751656E+01  3.065300347E+01  9.627762518E+01  1.545128989E-06  0.00000E+00  9.000E+00
#rwgt            1           1   3.3622713040557896E-002           7       18607           0
</event>
<event>
      5   9999  3.19816E-02  3.47495E+02 -1.00000E+00  1.03559E-01
       2    -1     0     0   502     0  0.000000000E+00  0.000000000E+00  2.468327649E+03  2.468327649E+03  0.000000000E+00  0.00000E+00  9.000E+00
      21    -1     0     0   501   502  0.000000000E+00  0.000000000E+00 -1.988421470E+02  1.988421470E+02  0.000000000E+00  0.00000E+00  9.000E+00
      25     1     1     2     0     0 -2.306737354E+02  4.053484023E+02  7.457096352E+02  8.883836781E+02  1.250000000E+02  0.00000E+00  9.000E+00
      25     1     1     2     0     0  1.753285328E+02 -6.228913008E+01  8.648948909E+00  2.243208293E+02  1.250000000E+02  0.00000E+00  9.000E+00
       2     1     1     2   501     0  5.534520256E+01 -3.430592723E+02  1.515126918E+03  1.554465289E+03  2.157918644E-05  0.00000E+00  9.000E+00
#rwgt            1           1   2.7344588231128546E-002           7       18700           0
</event>
<event>
      5   9999  3.19816E-02  1.37585E+01 -1.00000E+00  1.80993E-01
      21    -1     0     0   502   501  0.000000000E+00  0.000000000E+00  1.262843171E+03  1.262843171E+03  0.000000000E+00  0.00000E+00  9.000E+00
      21    -1     0     0   511   502  0.000000000E+00  0.000000000E+00 -3.787057932E+02  3.787057932E+02  0.000000000E+00  0.00000E+00  9.000E+00
      25     1     1     2     0     0  2.930007615E+02 -3.069964511E+01 -2.691297662E+02  4.181479947E+02  1.250000000E+02  0.00000E+00  9.000E+00
      25     1     1     2     0     0 -3.066475964E+02  3.244934414E+01  1.160917182E+03  1.207658649E+03  1.250000000E+02  0.00000E+00  9.000E+00
      21     1     1     2   511   501  1.364683489E+01 -1.749699022E+00 -7.650038764E+00  1.574232010E+01  1.192092896E-07  0.00000E+00  9.000E+00
#rwgt            1           1   3.0092248883149843E-002           7       18742           0
</event>
<event>
      5   9999  3.19816E-02  2.10871E+02 -1.00000E+00  1.10818E-01
      21    -1     0     0   502   501  0.000000000E+00  0.000000000E+00  2.320188336E+03  2.320188336E+03  0.000000000E+00  0.00000E+00  9.000E+00
      21    -1     0     0   512   502  0.000000000E+00  0.000000000E+00 -5.536527901E+02  5.536527901E+02  0.000000000E+00  0.00000E+00  9.000E+00
      25     1     1     2     0     0  1.459553980E+02  1.774237669E+02 -3.622223853E+02  4.467798426E+02  1.250000000E+02  0.00000E+00  9.000E+00
      25     1     1     2     0     0  9.353075699E+00 -3.200630010E+02  2.182538135E+03  2.209440091E+03  1.250000000E+02  0.00000E+00  9.000E+00
      21     1     1     2   512   501 -1.553084737E+02  1.426392340E+02 -5.378020381E+01  2.176211925E+02  4.473129043E-06  0.00000E+00  9.000E+00
#rwgt            2          11   6.7109978695837243E-003           7       18986           0
</event>
<event>
      5   9999  3.19816E-02  3.58385E+01 -1.00000E+00  1.47862E-01
      21    -1     0     0   502   501  0.000000000E+00  0.000000000E+00  1.497991232E+02  1.497991232E+02  0.000000000E+00  0.00000E+00  9.000E+00
      21    -1     0     0   511   502  0.000000000E+00  0.000000000E+00 -7.309109403E+02  7.309109403E+02  0.000000000E+00  0.00000E+00  9.000E+00
      25     1     1     2     0     0 -9.158565542E+01  1.730073694E+01  9.079990117E+01  1.804352234E+02  1.250000000E+02  0.00000E+00  9.000E+00
      25     1     1     2     0     0  9.359134563E+01  1.848163221E+01 -5.949287988E+02  6.153585836E+02  1.250000000E+02  0.00000E+00  9.000E+00
      21     1     1     2   511   501 -2.005690213E+00 -3.578236915E+01 -7.698291952E+01  8.491625658E+01  9.536743164E-07  0.00000E+00  9.000E+00
#rwgt            2          11   2.0962242825101210E-003           7       19021           0
</event>
<event>
      5   9999  3.19816E-02  3.18522E+01 -1.00000E+00  1.51254E-01
      21    -1     0     0   512   501  0.000000000E+00  0.000000000E+00  3.688316910E+02  3.688316910E+02  0.000000000E+00  0.00000E+00  9.000E+00
      21    -1     0     0   501   502  0.000000000E+00  0.000000000E+00 -6.587507314E+02  6.587507314E+02  0.000000000E+00  0.00000E+00  9.000E+00
      25     1     1     2     0     0  2.304818186E+02  3.513195143E+02 -1.684987878E+02  4.696425357E+02  1.250000000E+02  0.00000E+00  9.000E+00
      25     1     1     2     0     0 -2.362158783E+02 -3.826513591E+02 -1.726231188E+02  4.976381667E+02  1.250000000E+02  0.00000E+00  9.000E+00
      21     1     1     2   512   502  5.734059726E+00  3.133184480E+01  5.120286623E+01  6.030172012E+01  1.168007728E-06  0.00000E+00  9.000E+00
#rwgt            1           1   3.0729850007589866E-002           7       19041           0
</event>
<event>
      5   9999  3.19816E-02  2.96656E+01 -1.00000E+00  1.53379E-01
      21    -1     0     0   502   501  0.000000000E+00  0.000000000E+00  1.594680314E+02  1.594680314E+02  0.000000000E+00  0.00000E+00  9.000E+00
      21    -1     0     0   501   511  0.000000000E+00  0.000000000E+00 -2.478308449E+02  2.478308449E+02  0.000000000E+00  0.00000E+00  9.000E+00
      25     1     1     2     0     0  1.131721602E+02  1.047243829E+01  5.328643576E+01  1.771498068E+02  1.250000000E+02  0.00000E+00  9.000E+00
      25     1     1     2     0     0 -8.351315597E+01 -1.109582864E+01 -1.267765196E+02  1.969640844E+02  1.250000000E+02  0.00000E+00  9.000E+00
      21     1     1     2   502   511 -2.965900424E+01  6.233903533E-01 -1.487272966E+01  3.318498509E+01  5.331201500E-07  0.00000E+00  9.000E+00
#rwgt            1           1   2.3055885733839505E-002           7       19234           0
</event>
<event>
      5   9999  3.19816E-02  9.71708E+01 -1.00000E+00  1.24391E-01
      21    -1     0     0   502   501  0.000000000E+00  0.000000000E+00  4.321678598E+02  4.321678598E+02  0.000000000E+00  0.00000E+00  9.000E+00
      21    -1     0     0   501   512  0.000000000E+00  0.000000000E+00 -2.020381205E+02  2.020381205E+02  0.000000000E+00  0.00000E+00  9.000E+00
      25     1     1     2     0     0  9.617907844E+01  1.052159115E+02 -9.629857445E+00  1.898381872E+02  1.250000000E+02  0.00000E+00  9.000E+00
      25     1     1     2     0     0 -1.660729755E+02 -3.771033400E+01  2.697948260E+02  3.426609849E+02  1.250000000E+02  0.00000E+00  9.000E+00
      21     1     1     2   502   512  6.989389708E+01 -6.750557751E+01 -3.003522917E+01  1.017068082E+02  0.000000000E+00  0.00000E+00  9.000E+00
#rwgt            1           1   2.8258096682228211E-002           7       19342           0
</event>
<event>
      5   9999  3.19816E-02  5.74799E+01 -1.00000E+00  1.35707E-01
      21    -1     0     0   511   501  0.000000000E+00  0.000000000E+00  6.621256658E+01  6.621256658E+01  0.000000000E+00  0.00000E+00  9.000E+00
      21    -1     0     0   501   502  0.000000000E+00  0.000000000E+00 -1.973869854E+03  1.973869854E+03  0.000000000E+00  0.00000E+00  9.000E+00
      25     1     1     2     0     0  2.576759387E+02  1.428561622E+02 -8.023883764E+02  8.638616087E+02  1.250000000E+02  0.00000E+00  9.000E+00
      25     1     1     2     0     0 -2.957608805E+02 -9.980413515E+01 -1.014616243E+03  1.068880949E+03  1.250000000E+02  0.00000E+00  9.000E+00
      21     1     1     2   511   502  3.808494184E+01 -4.305202702E+01 -9.065266845E+01  1.073398627E+02  2.336015456E-06  0.00000E+00  9.000E+00
#rwgt            1           1   2.7168547308648757E-002           7       19424           0
</event>
<event>
      5   9999  3.19816E-02  6.00370E+01 -1.00000E+00  1.34689E-01
      21    -1     0     0   502   501  0.000000000E+00  0.000000000E+00  3.723312983E+02  3.723312983E+02  0.000000000E+00  0.00000E+00  9.000E+00
      21    -1     0     0   501   512  0.000000000E+00  0.000000000E+00 -3.894836532E+02  3.894836532E+02  0.000000000E+00  0.00000E+00  9.000E+00
      25     1     1     2     0     0 -4.379639013E+01  2.065074316E+02 -6.092225221E+01  2.527844218E+02  1.250000000E+02  0.00000E+00  9.000E+00
      25     1     1     2     0     0  1.854025252E-01 -2.477690903E+02  1.997284845E+02  3.419152293E+02  1.250000000E+02  0.00000E+00  9.000E+00
      21     1     1     2   502   512  4.361098760E+01  4.126165879E+01 -1.559585872E+02  1.671153004E+02  1.907348633E-06  0.00000E+00  9.000E+00
#rwgt            1           1   2.7403461473392465E-002           7       19581           0
</event>
<event>
      5   9999  3.19816E-02  1.79810E+02 -1.00000E+00  1.13357E-01
      21    -1     0     0   502   501  0.000000000E+00  0.000000000E+00  5.115935067E+02  5.115935067E+02  0.000000000E+00  0.00000E+00  9.000E+00
      21    -1     0     0   511   502  0.000000000E+00  0.000000000E+00 -4.813757559E+02  4.813757559E+02  0.000000000E+00  0.00000E+00  9.000E+00
      25     1     1     2     0     0 -2.905183116E+02 -1.454493614E+02  2.961152455E+02  4.570182104E+02  1.250000000E+02  0.00000E+00  9.000E+00
      25     1     1     2     0     0  1.111562448E+02  1.581390331E+02 -1.963334762E+01  2.310284244E+02  1.250000000E+02  0.00000E+00  9.000E+00
      21     1     1     2   511   501  1.793620668E+02 -1.268967168E+01 -2.462641471E+02  3.049226277E+02  0.000000000E+00  0.00000E+00  9.000E+00
#rwgt            2          11   3.6013842302465809E-003           7       19682           0
</event>
<event>
      5   9999  3.19816E-02  1.27670E+01 -1.00000E+00  1.84243E-01
      21    -1     0     0   512   501  0.000000000E+00  0.000000000E+00  5.428219344E+02  5.428219344E+02  0.000000000E+00  0.00000E+00  9.000E+00
      21    -1     0     0   501   502  0.000000000E+00  0.000000000E+00 -1.483158704E+02  1.483158704E+02  0.000000000E+00  0.00000E+00  9.000E+00
      25     1     1     2     0     0  1.707885497E+02  1.667247240E+02  1.833962773E+02  3.259218569E+02  1.250000000E+02  0.00000E+00  9.000E+00
      25     1     1     2     0     0 -1.807674451E+02 -1.746883290E+02  1.851917577E+02  3.363240530E+02  1.250000000E+02  0.00000E+00  9.000E+00
      21     1     1     2   512   502  9.978895479E+00  7.963605008E+00  2.591802897E+01  2.889189480E+01  3.371747881E-07  0.00000E+00  9.000E+00
#rwgt            1           1   2.5987854637093272E-002           7       19702           0
</event>
<event>
      5   9999  3.19816E-02  1.70432E+01 -1.00000E+00  1.72313E-01
      21    -1     0     0   502   501  0.000000000E+00  0.000000000E+00  3.907023698E+02  3.907023698E+02  0.000000000E+00  0.00000E+00  9.000E+00
      21    -1     0     0   511   502  0.000000000E+00  0.000000000E+00 -2.204045966E+02  2.204045966E+02  0.000000000E+00  0.00000E+00  9.000E+00
      25     1     1     2     0     0 -1.581912914E+01  2.571778833E+02  1.315855283E+02  3.151673520E+02  1.250000000E+02  0.00000E+00  9.000E+00
      25     1     1     2     0     0  2.733786197E+01 -2.446164007E+02  3.953083095E+01  2.788767269E+02  1.250000000E+02  0.00000E+00  9.000E+00
      21     1     1     2   511   501 -1.151873282E+01 -1.256148258E+01 -8.185859920E-01  1.706288760E+01  2.996949160E-07  0.00000E+00  9.000E+00
#rwgt            1           1   2.8412482423936451E-002           7       19966           0
</event>
<event>
      5   9999  3.19816E-02  1.12846E+01 -1.00000E+00  1.89879E-01
      21    -1     0     0   502   501  0.000000000E+00  0.000000000E+00  5.603332263E+01  5.603332263E+01  0.000000000E+00  0.00000E+00  9.000E+00
      21    -1     0     0   512   502  0.000000000E+00  0.000000000E+00 -1.170836506E+03  1.170836506E+03  0.000000000E+00  0.00000E+00  9.000E+00
      25     1     1     2     0     0 -1.545573978E+02  4.064602185E+00 -2.825513212E+02  3.454920539E+02  1.250000000E+02  0.00000E+00  9.000E+00
      25     1     1     2     0     0  1.590239095E+02  6.298384901E+00 -3.935639743E+02  4.425447721E+02  1.250000000E+02  0.00000E+00  9.000E+00
      21     1     1     2   512   501 -4.466511652E+00 -1.036298709E+01 -4.386878874E+02  4.388330022E+02  5.394796609E-06  0.00000E+00  9.000E+00
#rwgt            1           1   2.9303237996621826E-002           7       20126           0
</event>
<event>
      5   9999  3.19816E-02  8.65223E+01 -1.00000E+00  1.26723E-01
      21    -1     0     0   502   501  0.000000000E+00  0.000000000E+00  6.121730075E+02  6.121730075E+02  0.000000000E+00  0.00000E+00  9.000E+00
      21    -1     0     0   511   502  0.000000000E+00  0.000000000E+00 -5.578228228E+02  5.578228228E+02  0.000000000E+00  0.00000E+00  9.000E+00
      25     1     1     2     0     0  2.236497958E+02  1.295992320E+01  4.648348055E+02  5.309271015E+02  1.250000000E+02  0.00000E+00  9.000E+00
      25     1     1     2     0     0 -1.567590181E+02  4.191929583E+01  1.452164271E+01  2.053448203E+02  1.250000000E+02  0.00000E+00  9.000E+00
      21     1     1     2   511   501 -6.689077766E+01 -5.487921903E+01 -4.250062635E+02  4.337239085E+02  0.000000000E+00  0.00000E+00  9.000E+00
#rwgt            1           1   2.0862643158547866E-002           7       20333           0
</event>
<event>
      5   9999  3.19816E-02  1.24695E+02 -1.00000E+00  1.19665E-01
      21    -1     0     0   502   501  0.000000000E+00  0.000000000E+00  4.431033856E+02  4.431033856E+02  0.000000000E+00  0.00000E+00  9.000E+00
      21    -1     0     0   501   512  0.000000000E+00  0.000000000E+00 -5.396548178E+02  5.396548178E+02  0.000000000E+00  0.00000E+00  9.000E+00
      25     1     1     2     0     0  2.164467534E+02  1.028975964E+02 -2.054717285E+02  3.395301807E+02  1.250000000E+02  0.00000E+00  9.000E+00
      25     1     1     2     0     0 -2.868986317E+02 -2.057828383E+02  2.535284425E+02  4.522820719E+02  1.250000000E+02  0.00000E+00  9.000E+00
      21     1     1     2   502   512  7.045187834E+01  1.028852419E+02 -1.446081462E+02  1.909459507E+02  0.000000000E+00  0.00000E+00  9.000E+00
#rwgt            1           1   2.7935289039393258E-002           7       20434           0
</event>
<event>
      5   9999  3.21883E-02  5.24208E+01 -1.00000E+00  1.37914E-01
      21    -1     0     0   502   501  0.000000000E+00  0.000000000E+00  1.743365100E+03  1.743365100E+03  0.000000000E+00  0.00000E+00  9.000E+00
      21    -1     0     0   511   502  0.000000000E+00  0.000000000E+00 -8.806771100E+01  8.806771100E+01  0.000000000E+00  0.00000E+00  9.000E+00
      25     1     1     2     0     0  1.224532525E+02  3.296458994E+02  6.074779846E+02  7.129626357E+02  1.250000000E+02  0.00000E+00  9.000E+00
      25     1     1     2     0     0 -9.958771214E+01 -2.824748130E+02  9.824960176E+02  1.034714046E+03  1.250000000E+02  0.00000E+00  9.000E+00
      21     1     1     2   511   501 -2.286554040E+01 -4.717108640E+01  6.532338655E+01  8.375612909E+01  9.536743164E-07  0.00000E+00  9.000E+00
#rwgt            1           1   2.8255539111657398E-002           7       20529           0
</event>
<event>
      5   9999  3.19816E-02  1.71615E+01 -1.00000E+00  1.72047E-01
      21    -1     0     0   512   501  0.000000000E+00  0.000000000E+00  6.716116106E+02  6.716116106E+02  0.000000000E+00  0.00000E+00  9.000E+00
      21    -1     0     0   501   502  0.000000000E+00  0.000000000E+00 -1.669635149E+02  1.669635149E+02  0.000000000E+00  0.00000E+00  9.000E+00
      25     1     1     2     0     0  1.946140865E+01 -4.065405513E+01 -1.037141016E+02  1.685618981E+02  1.250000000E+02  0.00000E+00  9.000E+00
      25     1     1     2     0     0 -2.550416991E+01  5.671654633E+01  1.282030546E+02  1.895474941E+02  1.250000000E+02  0.00000E+00  9.000E+00
      21     1     1     2   512   502  6.042761256E+00 -1.606249120E+01  4.801591427E+02  4.804657333E+02  5.394796609E-06  0.00000E+00  9.000E+00
#rwgt            1           1   2.4658041726277016E-002           7       20613           0
</event>
<event>
      5   9999  3.19816E-02  2.48276E+02 -1.00000E+00  1.08333E-01
      21    -1     0     0   511   501  0.000000000E+00  0.000000000E+00  8.587359811E+02  8.587359811E+02  0.000000000E+00  0.00000E+00  9.000E+00
      21    -1     0     0   501   502  0.000000000E+00  0.000000000E+00 -5.813082034E+02  5.813082034E+02  0.000000000E+00  0.00000E+00  9.000E+00
      25     1     1     2     0     0  2.514974200E+02  1.642281911E+02 -2.910471001E+02  4.365263629E+02  1.250000000E+02  0.00000E+00  9.000E+00
      25     1     1     2     0     0 -4.368132485E+02  9.958692523E-01  8.814821829E+01  4.628195266E+02  1.250000000E+02  0.00000E+00  9.000E+00
      21     1     1     2   511   502  1.853158285E+02 -1.652240604E+02  4.803266595E+02  5.406982950E+02  0.000000000E+00  0.00000E+00  9.000E+00
#rwgt            2          11   3.1117118988053861E-003           7       20821           0
</event>
<event>
      5   9999  3.19816E-02  1.06278E+01 -1.00000E+00  1.92749E-01
      21    -1     0     0   502   501  0.000000000E+00  0.000000000E+00  1.313642497E+02  1.313642497E+02  0.000000000E+00  0.00000E+00  9.000E+00
       2    -1     0     0   501     0  0.000000000E+00  0.000000000E+00 -1.077801996E+03  1.077801996E+03  0.000000000E+00  0.00000E+00  9.000E+00
      25     1     1     2     0     0  3.386595521E+01 -4.820359586E+01 -4.805922347E+02  5.000643815E+02  1.250000000E+02  0.00000E+00  9.000E+00
      25     1     1     2     0     0 -3.180820059E+01  3.777687495E+01  8.443194134E+01  1.587217900E+02  1.250000000E+02  0.00000E+00  9.000E+00
       2     1     1     2   502     0 -2.057754618E+00  1.042672090E+01 -5.502774527E+02  5.503800740E+02  0.000000000E+00  0.00000E+00  9.000E+00
#rwgt            1           1   2.7346730819630148E-002           7       20901           0
</event>
<event>
      5   9999  3.19816E-02  5.70754E+01 -1.00000E+00  1.35873E-01
      21    -1     0     0   502   511  0.000000000E+00  0.000000000E+00  1.370341358E+02  1.370341358E+02  0.000000000E+00  0.00000E+00  9.000E+00
      21    -1     0     0   501   502  0.000000000E+00  0.000000000E+00 -3.953007835E+02  3.953007835E+02  0.000000000E+00  0.00000E+00  9.000E+00
      25     1     1     2     0     0 -3.278018453E+01  1.601729493E+02 -1.355411090E+02  2.464270813E+02  1.250000000E+02  0.00000E+00  9.000E+00
      25     1     1     2     0     0  8.335370240E+01 -1.337169448E+02 -9.400074113E+01  2.220117122E+02  1.250000000E+02  0.00000E+00  9.000E+00
      21     1     1     2   501   511 -5.057351787E+01 -2.645600445E+01 -2.872479754E+01  6.389612566E+01  1.066240300E-06  0.00000E+00  9.000E+00
#rwgt            1           1   2.7478117131970712E-002           7       21111           0
</event>
<event>
      5   9999  3.19816E-02  4.24394E+01 -1.00000E+00  1.43264E-01
      21    -1     0     0   502   512  0.000000000E+00  0.000000000E+00  1.316229635E+02  1.316229635E+02  0.000000000E+00  0.00000E+00  9.000E+00
      21    -1     0     0   501   502  0.000000000E+00  0.000000000E+00 -2.479594779E+02  2.479594779E+02  0.000000000E+00  0.00000E+00  9.000E+00
      25     1     1     2     0     0  4.248023694E+01 -4.955419328E+00 -4.245095530E+01  1.387667479E+02  1.250000000E+02  0.00000E+00  9.000E+00
      25     1     1     2     0     0 -1.966958692E+01 -3.083258083E+01 -1.207408908E+02  1.775975884E+02  1.250000000E+02  0.00000E+00  9.000E+00
      21     1     1     2   501   512 -2.281065002E+01  3.578800016E+01  4.685533163E+01  6.321810510E+01  9.536743164E-07  0.00000E+00  9.000E+00
#rwgt            1           1   6.3179681652152479E-003           7       21203           0
</event>
<event>
      5   9999  3.19816E-02  8.72492E+01 -1.00000E+00  1.26552E-01
      -1    -1     0     0     0   501  0.000000000E+00  0.000000000E+00  9.610212251E+01  9.610212251E+01  0.000000000E+00  0.00000E+00  9.000E+00
      21    -1     0     0   501   502  0.000000000E+00  0.000000000E+00 -8.532102170E+02  8.532102170E+02  0.000000000E+00  0.00000E+00  9.000E+00
      25     1     1     2     0     0  1.405611164E+02 -2.389254391E+01 -4.307780634E+02  4.706623216E+02  1.250000000E+02  0.00000E+00  9.000E+00
      25     1     1     2     0     0 -8.408586011E+01 -4.261282975E+01 -3.540353747E+02  3.871076486E+02  1.250000000E+02  0.00000E+00  9.000E+00
      -1     1     1     2     0   502 -5.647525632E+01  6.650537366E+01  2.770534357E+01  9.154236922E+01  7.539457465E-07  0.00000E+00  9.000E+00
#rwgt            1           1   3.0544361178126055E-002           7       21297           0
</event>
<event>
      5   9999  3.19816E-02  1.85115E+02 -1.00000E+00  1.12885E-01
      21    -1     0     0   511   501  0.000000000E+00  0.000000000E+00  5.084163231E+02  5.084163231E+02  0.000000000E+00  0.00000E+00  9.000E+00
      21    -1     0     0   501   502  0.000000000E+00  0.000000000E+00 -3.365798968E+02  3.365798968E+02  0.000000000E+00  0.00000E+00  9.000E+00
      25     1     1     2     0     0 -6.098733075E+01 -1.927121914E+02 -3.637908110E+01  2.404285357E+02  1.250000000E+02  0.00000E+00  9.000E+00
      25     1     1     2     0     0  2.207850955E+02  2.861596061E+02  1.431279217E+02  4.083429693E+02  1.250000000E+02  0.00000E+00  9.000E+00
      21     1     1     2   511   502 -1.597977648E+02 -9.344741476E+01  6.508758568E+01  1.962247150E+02  4.156969970E-06  0.00000E+00  9.000E+00
#rwgt            1           1   2.5896194484121195E-002           7       21328           0
</event>
<event>
      5   9999  3.19816E-02  6.23102E+01 -1.00000E+00  1.33832E-01
      21    -1     0     0   502   501  0.000000000E+00  0.000000000E+00  7.778388810E+02  7.778388810E+02  0.000000000E+00  0.00000E+00  9.000E+00
      21    -1     0     0   512   502  0.000000000E+00  0.000000000E+00 -2.269566582E+02  2.269566582E+02  0.000000000E+00  0.00000E+00  9.000E+00
      25     1     1     2     0     0  2.634777558E+02 -2.190328270E+02  2.563375513E+02  4.457912598E+02  1.250000000E+02  0.00000E+00  9.000E+00
      25     1     1     2     0     0 -3.149105144E+02  1.838584368E+02  3.101574217E+02  4.947678073E+02  1.250000000E+02  0.00000E+00  9.000E+00
      21     1     1     2   512   501  5.143275866E+01  3.517439018E+01 -1.561275013E+01  6.423647215E+01  8.085167388E-07  0.00000E+00  9.000E+00
#rwgt            1           1   2.8624571456030899E-002           7       21406           0
</event>
<event>
      5   9999  3.19816E-02  9.57447E+00 -1.00000E+00  1.97966E-01
      21    -1     0     0   502   511  0.000000000E+00  0.000000000E+00  6.877553854E+02  6.877553854E+02  0.000000000E+00  0.00000E+00  9.000E+00
      21    -1     0     0   501   502  0.000000000E+00  0.000000000E+00 -2.186358360E+02  2.186358360E+02  0.000000000E+00  0.00000E+00  9.000E+00
      25     1     1     2     0     0 -3.012292388E+02 -2.330363507E+00  4.228291042E+02  5.339980677E+02  1.250000000E+02  0.00000E+00  9.000E+00
      25     1     1     2     0     0  2.918008377E+02  6.643034362E-01 -7.718887159E+00  3.175417317E+02  1.250000000E+02  0.00000E+00  9.000E+00
      21     1     1     2   501   511  9.428401166E+00  1.666060071E+00  5.400933243E+01  5.485142199E+01  0.000000000E+00  0.00000E+00  9.000E+00
#rwgt            1           1   2.9530592352273139E-002           7       21507           0
</event>
<event>
      5   9999  3.29913E-02  8.50763E+01 -1.00000E+00  1.27069E-01
      21    -1     0     0   512   501  0.000000000E+00  0.000000000E+00  1.499161930E+03  1.499161930E+03  0.000000000E+00  0.00000E+00  9.000E+00
      21    -1     0     0   501   502  0.000000000E+00  0.000000000E+00 -9.520643421E+02  9.520643421E+02  0.000000000E+00  0.00000E+00  9.000E+00
      25     1     1     2     0     0 -8.319487892E+02 -5.829005667E+02  3.652857161E+02  1.086724672E+03  1.250000000E+02  0.00000E+00  9.000E+00
      25     1     1     2     0     0  9.146199740E+02  5.628144845E+02 -8.495575655E+01  1.084496345E+03  1.250000000E+02  0.00000E+00  9.000E+00
      21     1     1     2   512   502 -8.267118484E+01  2.008608215E+01  2.667676282E+02  2.800052553E+02  3.814697266E-06  0.00000E+00  9.000E+00
#rwgt            1           1   3.5484971571459238E-002           7       21723           0
</event>
<event>
      5   9999  3.19816E-02  1.44097E+02 -1.00000E+00  1.17089E-01
      21    -1     0     0   502   501  0.000000000E+00  0.000000000E+00  5.625794170E+02  5.625794170E+02  0.000000000E+00  0.00000E+00  9.000E+00
      21    -1     0     0   511   502  0.000000000E+00  0.000000000E+00 -2.725961375E+03  2.725961375E+03  0.000000000E+00  0.00000E+00  9.000E+00
      25     1     1     2     0     0 -1.135473878E+02 -1.058715433E+03 -7.670040339E+02  1.318215295E+03  1.250000000E+02  0.00000E+00  9.000E+00
      25     1     1     2     0     0  2.396087855E+02  1.128518848E+03 -9.450941014E+02  1.496594474E+03  1.250000000E+02  0.00000E+00  9.000E+00
      21     1     1     2   511   501 -1.260613977E+02 -6.980341519E+01 -4.512838232E+02  4.737310227E+02  7.629394531E-06  0.00000E+00  9.000E+00
#rwgt            1           1   9.6061784417255693E-003           7       21858           0
</event>
<event>
      5   9999  3.19816E-02  8.88406E+01 -1.00000E+00  1.26184E-01
      21    -1     0     0   502   512  0.000000000E+00  0.000000000E+00  2.584054047E+02  2.584054047E+02  0.000000000E+00  0.00000E+00  9.000E+00
      21    -1     0     0   501   502  0.000000000E+00  0.000000000E+00 -5.628003946E+02  5.628003946E+02  0.000000000E+00  0.00000E+00  9.000E+00
      25     1     1     2     0     0  1.311330874E+02 -1.783461473E+02 -3.383726633E+02  4.232307812E+02  1.250000000E+02  0.00000E+00  9.000E+00
      25     1     1     2     0     0 -9.121449181E+01  2.577134296E+02  5.754857754E+01  3.060606706E+02  1.250000000E+02  0.00000E+00  9.000E+00
      21     1     1     2   501   512 -3.991859556E+01 -7.936728230E+01 -2.357090411E+01  9.191434758E+01  0.000000000E+00  0.00000E+00  9.000E+00
#rwgt            1           1   2.5996535908827764E-002           7       21949           0
</event>
<event>
      5   9999  3.19816E-02  1.81791E+02 -1.00000E+00  1.13178E-01
      21    -1     0     0   511   501  0.000000000E+00  0.000000000E+00  1.051423872E+02  1.051423872E+02  0.000000000E+00  0.00000E+00  9.000E+00
      21    -1     0     0   501   502  0.000000000E+00  0.000000000E+00 -2.188388594E+03  2.188388594E+03  0.000000000E+00  0.00000E+00  9.000E+00
      25     1     1     2     0     0  2.074577450E+02 -3.468456885E+02 -1.194860674E+03  1.267540011E+03  1.250000000E+02  0.00000E+00  9.000E+00
      25     1     1     2     0     0 -2.308218912E+02  1.665622426E+02 -6.906238038E+02  7.573691072E+02  1.250000000E+02  0.00000E+00  9.000E+00
      21     1     1     2   511   502  2.336414618E+01  1.802834459E+02 -1.977617286E+02  2.686218634E+02  3.814697266E-06  0.00000E+00  9.000E+00
#rwgt            2          11   1.6784316229895627E-002           7       22114           0
</event>
<event>
      5   9999  3.19816E-02  1.02748E+02 -1.00000E+00  1.23301E-01
      -5    -1     0     0     0   501  0.000000000E+00  0.000000000E+00  2.428543544E+02  2.428543544E+02  0.000000000E+00  0.00000E+00  9.000E+00
      21    -1     0     0   501   502  0.000000000E+00  0.000000000E+00 -8.110252875E+02  8.110252875E+02  0.000000000E+00  0.00000E+00  9.000E+00
      25     1     1     2     0     0  3.080593077E+01 -1.857172971E+02 -6.818601618E+02  7.183301470E+02  1.250000000E+02  0.00000E+00  9.000E+00
      25     1     1     2     0     0  4.135708690E+01  1.125764321E+02 -1.147915997E+01  1.736105781E+02  1.250000000E+02  0.00000E+00  9.000E+00
      -5     1     1     2     0   502 -7.216301766E+01  7.314086500E+01  1.251683887E+02  1.619389168E+02  1.907348633E-06  0.00000E+00  9.000E+00
#rwgt            1           1   3.0393228079062189E-002           7       22134           0
</event>
<event>
      5   9999  3.19816E-02  1.62618E+02 -1.00000E+00  1.15020E-01
      21    -1     0     0   511   501  0.000000000E+00  0.000000000E+00  2.696014167E+02  2.696014167E+02  0.000000000E+00  0.00000E+00  9.000E+00
      21    -1     0     0   501   502  0.000000000E+00  0.000000000E+00 -3.649780697E+02  3.649780697E+02  0.000000000E+00  0.00000E+00  9.000E+00
      25     1     1     2     0     0 -1.626916905E+02  1.561903699E+02 -1.808949665E+02  3.149793750E+02  1.250000000E+02  0.00000E+00  9.000E+00
      25     1     1     2     0     0  3.217833390E+01 -5.917985462E+01  6.331869241E+01  1.554733327E+02  1.250000000E+02  0.00000E+00  9.000E+00
      21     1     1     2   511   502  1.305133566E+02 -9.701051526E+01  2.219962115E+01  1.641267787E+02  3.996623663E-06  0.00000E+00  9.000E+00
#rwgt            1           1   2.7468232309946477E-002           7       22195           0
</event>
<event>
      5   9999  3.19816E-02  2.22455E+01 -1.00000E+00  1.62644E-01
      21    -1     0     0   502   501  0.000000000E+00  0.000000000E+00  2.338185278E+02  2.338185278E+02  0.000000000E+00  0.00000E+00  9.000E+00
      21    -1     0     0   501   512  0.000000000E+00  0.000000000E+00 -3.332638070E+02  3.332638070E+02  0.000000000E+00  0.00000E+00  9.000E+00
      25     1     1     2     0     0 -1.549271785E+02  6.651193311E+01  1.147022105E+02  2.391816569E+02  1.250000000E+02  0.00000E+00  9.000E+00
      25     1     1     2     0     0  1.627545497E+02 -8.733491912E+01 -2.076408663E+02  3.047230889E+02  1.250000000E+02  0.00000E+00  9.000E+00
      21     1     1     2   502   512 -7.827371256E+00  2.082298601E+01 -6.506623448E+00  2.317758909E+01  5.196212463E-07  0.00000E+00  9.000E+00
#rwgt            1           1   3.2877170577405523E-002           7       22263           0
</event>
<event>
      5   9999  3.19816E-02  9.04882E+01 -1.00000E+00  1.25812E-01
      -1    -1     0     0     0   501  0.000000000E+00  0.000000000E+00  4.765244558E+02  4.765244558E+02  0.000000000E+00  0.00000E+00  9.000E+00
      21    -1     0     0   501   502  0.000000000E+00  0.000000000E+00 -8.369363128E+02  8.369363128E+02  0.000000000E+00  0.00000E+00  9.000E+00
      25     1     1     2     0     0 -1.282569633E+02  1.970933900E+02 -5.044699862E+02  5.704477364E+02  1.250000000E+02  0.00000E+00  9.000E+00
      25     1     1     2     0     0  3.783625134E+01 -1.935984729E+02 -2.480000380E+02  3.406478672E+02  1.250000000E+02  0.00000E+00  9.000E+00
      -1     1     1     2     0   502  9.042071198E+01 -3.494917091E+00  3.920581671E+02  4.023651650E+02  5.394796609E-06  0.00000E+00  9.000E+00
#rwgt            1           1   3.0951156412037637E-002           7       22369           0
</event>
<event>
      5   9999  3.19816E-02  9.16809E+00 -1.00000E+00  2.00221E-01
      21    -1     0     0   502   501  0.000000000E+00  0.000000000E+00  1.037860311E+02  1.037860311E+02  0.000000000E+00  0.00000E+00  9.000E+00
      21    -1     0     0   511   502  0.000000000E+00  0.000000000E+00 -6.107043965E+02  6.107043965E+02  0.000000000E+00  0.00000E+00  9.000E+00
      25     1     1     2     0     0 -9.775248475E+01  1.684971184E+02 -3.486067396E+02  4.184477101E+02  1.250000000E+02  0.00000E+00  9.000E+00
      25     1     1     2     0     0  9.312473903E+01 -1.764115289E+02 -1.358844208E+02  2.718139444E+02  1.250000000E+02  0.00000E+00  9.000E+00
      21     1     1     2   511   501  4.627745716E+00  7.914410490E+00 -2.242720496E+01  2.422877311E+01  2.384185791E-07  0.00000E+00  9.000E+00
#rwgt            1           1   2.5960184411331570E-002           7       22402           0
</event>
<event>
      5   9999  3.19816E-02  2.01026E+02 -1.00000E+00  1.11567E-01
       2    -1     0     0   502     0  0.000000000E+00  0.000000000E+00  2.998174613E+03  2.998174613E+03  0.000000000E+00  0.00000E+00  9.000E+00
      21    -1     0     0   501   502  0.000000000E+00  0.000000000E+00 -6.653174325E+01  6.653174325E+01  0.000000000E+00  0.00000E+00  9.000E+00
      25     1     1     2     0     0  2.294536371E+01 -2.729900830E+01  6.006210693E+01  1.431928150E+02  1.250000000E+02  0.00000E+00  9.000E+00
      25     1     1     2     0     0 -1.793189796E+02  1.536265434E+02  8.761007871E+02  9.159334039E+02  1.250000000E+02  0.00000E+00  9.000E+00
       2     1     1     2   501     0  1.563736159E+02 -1.263275351E+02  1.995479975E+03  2.005580137E+03  2.157918644E-05  0.00000E+00  9.000E+00
#rwgt            1           1   3.1675856633665934E-002           7       22611           0
</event>
<event>
      5   9999  3.19816E-02  1.78776E+02 -1.00000E+00  1.13451E-01
       2    -1     0     0   502     0  0.000000000E+00  0.000000000E+00  2.143514290E+03  2.143514290E+03  0.000000000E+00  0.00000E+00  9.000E+00
      21    -1     0     0   501   502  0.000000000E+00  0.000000000E+00 -2.759267659E+02  2.759267659E+02  0.000000000E+00  0.00000E+00  9.000E+00
      25     1     1     2     0     0  1.124427244E+02  3.183077177E+02  1.025779566E+02  3.743132466E+02  1.250000000E+02  0.00000E+00  9.000E+00
      25     1     1     2     0     0  5.861985789E+01 -2.663599263E+02  3.064760678E+01  3.015761494E+02  1.250000000E+02  0.00000E+00  9.000E+00
       2     1     1     2   501     0 -1.710625823E+02 -5.194779140E+01  1.734361961E+03  1.743551660E+03  2.157918644E-05  0.00000E+00  9.000E+00
#rwgt            1           1   2.7599884224930073E-002           7       22681           0
</event>
<event>
      5   9999  3.19816E-02  6.58597E+01 -1.00000E+00  1.32576E-01
      21    -1     0     0   511   501  0.000000000E+00  0.000000000E+00  1.031097214E+03  1.031097214E+03  0.000000000E+00  0.00000E+00  9.000E+00
      21    -1     0     0   501   502  0.000000000E+00  0.000000000E+00 -7.967980803E+01  7.967980803E+01  0.000000000E+00  0.00000E+00  9.000E+00
      25     1     1     2     0     0 -1.621115274E+02  4.579422915E+01  5.760431103E+02  6.130480599E+02  1.250000000E+02  0.00000E+00  9.000E+00
      25     1     1     2     0     0  1.360765448E+02 -1.062895320E+02  1.442034295E+02  2.573595146E+02  1.250000000E+02  0.00000E+00  9.000E+00
      21     1     1     2   511   502  2.603498254E+01  6.049530286E+01  2.311708664E+02  2.403694478E+02  0.000000000E+00  0.00000E+00  9.000E+00
#rwgt            1           1   2.7224277639759410E-002           7       22743           0
</event>
<event>
      5   9999  3.19816E-02  3.19805E+02 -1.00000E+00  1.04698E-01
      21    -1     0     0   502   512  0.000000000E+00  0.000000000E+00  1.258579661E+03  1.258579661E+03  0.000000000E+00  0.00000E+00  9.000E+00
      21    -1     0     0   501   502  0.000000000E+00  0.000000000E+00 -5.336774122E+02  5.336774122E+02  0.000000000E+00  0.00000E+00  9.000E+00
      25     1     1     2     0     0 -1.010802475E+02  1.153551137E+02  2.938535781E+02  3.542583013E+02  1.250000000E+02  0.00000E+00  9.000E+00
      25     1     1     2     0     0  3.427741357E+02  9.407042595E+01 -3.988097622E+02  5.486506899E+02  1.250000000E+02  0.00000E+00  9.000E+00
      21     1     1     2   501   512 -2.416938881E+02 -2.094255396E+02  8.298584333E+02  8.893480823E+02  1.078959322E-05  0.00000E+00  9.000E+00
#rwgt            2          11   2.5739988836899165E-003           7       22919           0
</event>
<event>
      5   9999  3.19816E-02  3.76396E+02 -1.00000E+00  1.02487E-01
      21    -1     0     0   502   511  0.000000000E+00  0.000000000E+00  1.013877727E+03  1.013877727E+03  0.000000000E+00  0.00000E+00  9.000E+00
      21    -1     0     0   501   502  0.000000000E+00  0.000000000E+00 -2.650690577E+02  2.650690577E+02  0.000000000E+00  0.00000E+00  9.000E+00
      25     1     1     2     0     0  1.460350859E+01 -1.202856272E+02  1.039602228E+02  2.027674099E+02  1.250000000E+02  0.00000E+00  9.000E+00
      25     1     1     2     0     0  2.973071612E+02 -9.039377105E+01  6.361131031E+00  3.350045461E+02  1.250000000E+02  0.00000E+00  9.000E+00
      21     1     1     2   501   511 -3.119106698E+02  2.106793983E+02  6.384873154E+02  7.411748287E+02  7.629394531E-06  0.00000E+00  9.000E+00
#rwgt            2          11   3.5292193957338360E-003           7       22969           0
</event>
<event>
      5   9999  3.19816E-02  1.16223E+02 -1.00000E+00  1.20961E-01
      21    -1     0     0   502   501  0.000000000E+00  0.000000000E+00  9.880823206E+01  9.880823206E+01  0.000000000E+00  0.00000E+00  9.000E+00
      21    -1     0     0   512   502  0.000000000E+00  0.000000000E+00 -1.411006054E+03  1.411006054E+03  0.000000000E+00  0.00000E+00  9.000E+00
      25     1     1     2     0     0 -8.740011766E+01  6.634870900E+01  1.652041248E+00  1.663389942E+02  1.250000000E+02  0.00000E+00  9.000E+00
      25     1     1     2     0     0  1.171274897E+00  1.157675776E+01 -3.350126020E+02  3.577622628E+02  1.250000000E+02  0.00000E+00  9.000E+00
      21     1     1     2   512   501  8.622884276E+01 -7.792546676E+01 -9.788372608E+02  9.857130286E+02  1.078959322E-05  0.00000E+00  9.000E+00
#rwgt            1           1   3.1354977534941243E-002           7       22989           0
</event>
<event>
      5   9999  3.19816E-02  5.20531E+01 -1.00000E+00  1.38086E-01
      21    -1     0     0   502   501  0.000000000E+00  0.000000000E+00  1.142066561E+02  1.142066561E+02  0.000000000E+00  0.00000E+00  9.000E+00
       2    -1     0     0   501     0  0.000000000E+00  0.000000000E+00 -1.428678232E+03  1.428678232E+03  0.000000000E+00  0.00000E+00  9.000E+00
      25     1     1     2     0     0  1.211604587E+02 -1.250128697E+02 -8.094919500E+02  8.373830017E+02  1.250000000E+02  0.00000E+00  9.000E+00
      25     1     1     2     0     0 -1.512192836E+02  8.251594882E+01 -1.565415079E+01  2.134155711E+02  1.250000000E+02  0.00000E+00  9.000E+00
       2     1     1     2   502     0  3.005882495E+01  4.249692083E+01 -4.893254748E+02  4.920863152E+02  0.000000000E+00  0.00000E+00  9.000E+00
#rwgt            1           1   2.8816036914725503E-002           7       23053           0
</event>
<event>
      5   9999  3.19816E-02  1.46365E+02 -1.00000E+00  1.16817E-01
      21    -1     0     0   502   511  0.000000000E+00  0.000000000E+00  5.582270528E+02  5.582270528E+02  0.000000000E+00  0.00000E+00  9.000E+00
      21    -1     0     0   501   502  0.000000000E+00  0.000000000E+00 -4.989921941E+02  4.989921941E+02  0.000000000E+00  0.00000E+00  9.000E+00
      25     1     1     2     0     0  2.152219335E+02  1.856622854E+02 -3.897941850E+02  4.983527581E+02  1.250000000E+02  0.00000E+00  9.000E+00
      25     1     1     2     0     0 -1.053554981E+02 -8.895677578E+01  2.619702137E+02  3.213510258E+02  1.250000000E+02  0.00000E+00  9.000E+00
      21     1     1     2   501   511 -1.098664355E+02 -9.670550958E+01  1.870588300E+02  2.375154629E+02  3.814697266E-06  0.00000E+00  9.000E+00
#rwgt            1           1   2.9211912426142499E-002           7       23183           0
</event>
<event>
      5   9999  3.19816E-02  4.50086E+01 -1.00000E+00  1.41733E-01
      21    -1     0     0   512   501  0.000000000E+00  0.000000000E+00  1.207067762E+03  1.207067762E+03  0.000000000E+00  0.00000E+00  9.000E+00
      21    -1     0     0   501   502  0.000000000E+00  0.000000000E+00 -1.010648799E+02  1.010648799E+02  0.000000000E+00  0.00000E+00  9.000E+00
      25     1     1     2     0     0  3.152194776E+01 -1.346343253E+02  9.146430896E+02  9.334436330E+02  1.250000000E+02  0.00000E+00  9.000E+00
      25     1     1     2     0     0  1.330241209E+01  1.305660346E+02  3.253868101E+00  1.812733605E+02  1.250000000E+02  0.00000E+00  9.000E+00
      21     1     1     2   512   502 -4.482435985E+01  4.068290629E+00  1.881059245E+02  1.934156484E+02  0.000000000E+00  0.00000E+00  9.000E+00
#rwgt            1           1   2.6861438287799019E-002           7       23213           0
</event>
<event>
      5   9999  3.51359E-02  9.83435E+01 -1.00000E+00  1.24155E-01
      21    -1     0     0   502   501  0.000000000E+00  0.000000000E+00  2.374049465E+03  2.374049465E+03  0.000000000E+00  0.00000E+00  9.000E+00
      21    -1     0     0   501   511  0.000000000E+00  0.000000000E+00 -9.999407901E+01  9.999407901E+01  0.000000000E+00  0.00000E+00  9.000E+00
      25     1     1     2     0     0  2.549209150E+02 -8.851497378E+01  1.473587461E+03  1.503297901E+03  1.250000000E+02  0.00000E+00  9.000E+00
      25     1     1     2     0     0 -3.484379276E+02  1.189454022E+02  7.781749902E+02  8.699070718E+02  1.250000000E+02  0.00000E+00  9.000E+00
      21     1     1     2   502   511  9.351701269E+01 -3.043042839E+01  2.229293536E+01  1.008385720E+02  8.259061849E-07  0.00000E+00  9.000E+00
#rwgt            1           1   9.4771882607893931E-002           7       23344           0
</event>
<event>
      5   9999  3.19816E-02  3.32674E+02 -1.00000E+00  1.04153E-01
      21    -1     0     0   502   501  0.000000000E+00  0.000000000E+00  6.763729110E+02  6.763729110E+02  0.000000000E+00  0.00000E+00  9.000E+00
      21    -1     0     0   501   512  0.000000000E+00  0.000000000E+00 -5.780373790E+02  5.780373790E+02  0.000000000E+00  0.00000E+00  9.000E+00
      25     1     1     2     0     0  1.649271502E+02 -4.224413340E+02  1.752443043E+02  5.019892546E+02  1.250000000E+02  0.00000E+00  9.000E+00
      25     1     1     2     0     0 -2.571174346E+01  1.202968721E+02  2.371290641E+02  2.949366444E+02  1.250000000E+02  0.00000E+00  9.000E+00
      21     1     1     2   502   512 -1.392154067E+02  3.021444619E+02 -3.140378363E+02  4.574843910E+02  7.629394531E-06  0.00000E+00  9.000E+00
#rwgt            1           1   2.8447866810524323E-002           7       23439           0
</event>
<event>
      5   9999  3.19816E-02  5.38350E+01 -1.00000E+00  1.37269E-01
       1    -1     0     0   502     0  0.000000000E+00  0.000000000E+00  1.030020171E+03  1.030020171E+03  0.000000000E+00  0.00000E+00  9.000E+00
      21    -1     0     0   501   502  0.000000000E+00  0.000000000E+00 -6.390404858E+02  6.390404858E+02  0.000000000E+00  0.00000E+00  9.000E+00
      25     1     1     2     0     0  4.441258010E+02  1.646258435E+02 -3.120246504E+02  5.808044232E+02  1.250000000E+02  0.00000E+00  9.000E+00
      25     1     1     2     0     0 -4.151602207E+02 -1.192474264E+02  7.252287762E+01  4.554805433E+02  1.250000000E+02  0.00000E+00  9.000E+00
       1     1     1     2   501     0 -2.896558035E+01 -4.537841716E+01  6.304814581E+02  6.327756906E+02  7.629394531E-06  0.00000E+00  9.000E+00
#rwgt            1           1   3.2774330217416880E-002           7       23484           0
</event>
<event>
      5   9999  3.19816E-02  3.30666E+02 -1.00000E+00  1.04237E-01
      21    -1     0     0   502   511  0.000000000E+00  0.000000000E+00  4.406126573E+02  4.406126573E+02  0.000000000E+00  0.00000E+00  9.000E+00
      21    -1     0     0   501   502  0.000000000E+00  0.000000000E+00 -4.611587143E+02  4.611587143E+02  0.000000000E+00  0.00000E+00  9.000E+00
      25     1     1     2     0     0  2.748849362E+02 -1.843301182E+02 -8.723557903E+01  3.643821714E+02  1.250000000E+02  0.00000E+00  9.000E+00
      25     1     1     2     0     0 -1.178782720E+02 -1.066835785E+02  1.618208029E+01  2.028879806E+02  1.250000000E+02  0.00000E+00  9.000E+00
      21     1     1     2   501   511 -1.570066642E+02  2.910136967E+02  5.050744174E+01  3.345012196E+02  3.438521648E-06  0.00000E+00  9.000E+00
#rwgt            1           1   2.8925367477253435E-002           7       23617           0
</event>
<event>
      5   9999  3.19816E-02  4.34256E+01 -1.00000E+00  1.42661E-01
      21    -1     0     0   502   501  0.000000000E+00  0.000000000E+00  4.322988981E+02  4.322988981E+02  0.000000000E+00  0.00000E+00  9.000E+00
      21    -1     0     0   512   502  0.000000000E+00  0.000000000E+00 -5.099060599E+02  5.099060599E+02  0.000000000E+00  0.00000E+00  9.000E+00
      25     1     1     2     0     0 -2.248661543E+02 -2.280194338E+02 -3.358178254E+02  4.805790896E+02  1.250000000E+02  0.00000E+00  9.000E+00
      25     1     1     2     0     0  1.897668181E+02  2.024495593E+02  2.795469617E+02  4.132417853E+02  1.250000000E+02  0.00000E+00  9.000E+00
      21     1     1     2   512   501  3.509933617E+01  2.556987448E+01 -2.133629804E+01  4.838408307E+01  4.768371582E-07  0.00000E+00  9.000E+00
#rwgt            1           1   2.4634803513368775E-002           7       23665           0
</event>
<event>
      5   9999  3.19816E-02  1.70951E+02 -1.00000E+00  1.14187E-01
      21    -1     0     0   502   501  0.000000000E+00  0.000000000E+00  8.232057630E+02  8.232057630E+02  0.000000000E+00  0.00000E+00  9.000E+00
       1    -1     0     0   501     0  0.000000000E+00  0.000000000E+00 -1.745005962E+02  1.745005962E+02  0.000000000E+00  0.00000E+00  9.000E+00
      25     1     1     2     0     0  7.197716447E+01  6.324861837E+01  1.478719966E+02  2.160375599E+02  1.250000000E+02  0.00000E+00  9.000E+00
      25     1     1     2     0     0 -2.397173028E+02 -9.622573726E+01  5.352171992E+02  6.072941858E+02  1.250000000E+02  0.00000E+00  9.000E+00
       1     1     1     2   502     0  1.677401383E+02  3.297711889E+01 -3.438402897E+01  1.743746135E+02  2.977847099E-06  0.00000E+00  9.000E+00
#rwgt            1           1   3.3161473975501003E-002           7       23745           0
</event>
<event>
      5   9999  3.19816E-02  1.63919E+02 -1.00000E+00  1.14886E-01
      21    -1     0     0   511   501  0.000000000E+00  0.000000000E+00  4.182628356E+01  4.182628356E+01  0.000000000E+00  0.00000E+00  9.000E+00
      21    -1     0     0   501   502  0.000000000E+00  0.000000000E+00 -2.740362656E+03  2.740362656E+03  0.000000000E+00  0.00000E+00  9.000E+00
      25     1     1     2     0     0  9.101352493E+00 -1.552636869E+02 -1.233580522E+03  1.249614161E+03  1.250000000E+02  0.00000E+00  9.000E+00
      25     1     1     2     0     0 -1.723294883E+02  1.402322768E+02 -1.145440257E+03  1.173465350E+03  1.250000000E+02  0.00000E+00  9.000E+00
      21     1     1     2   511   502  1.632281358E+02  1.503141005E+01 -3.195155930E+02  3.591094287E+02  3.814697266E-06  0.00000E+00  9.000E+00
#rwgt            1           1   6.2910047131398514E-002           7       23804           0
</event>
<event>
      5   9999  3.19816E-02  9.68297E+01 -1.00000E+00  1.24461E-01
      21    -1     0     0   502   512  0.000000000E+00  0.000000000E+00  2.387100408E+02  2.387100408E+02  0.000000000E+00  0.00000E+00  9.000E+00
      21    -1     0     0   501   502  0.000000000E+00  0.000000000E+00 -1.118088217E+03  1.118088217E+03  0.000000000E+00  0.00000E+00  9.000E+00
      25     1     1     2     0     0 -1.601339527E+02 -1.673721899E+02 -9.921416523E+02  1.026463049E+03  1.250000000E+02  0.00000E+00  9.000E+00
      25     1     1     2     0     0  6.353665729E+01  1.606677649E+02  6.960952480E+01  2.243245939E+02  1.250000000E+02  0.00000E+00  9.000E+00
      21     1     1     2   501   512  9.659729544E+01  6.704424961E+00  4.315395180E+01  1.060106144E+02  1.784161275E-06  0.00000E+00  9.000E+00
#rwgt            1           1   3.0170443560160770E-002           7       23850           0
</event>
<event>
      5   9999  3.19816E-02  5.14883E+01 -1.00000E+00  1.38353E-01
      21    -1     0     0   502   501  0.000000000E+00  0.000000000E+00  1.334531644E+02  1.334531644E+02  0.000000000E+00  0.00000E+00  9.000E+00
      21    -1     0     0   501   511  0.000000000E+00  0.000000000E+00 -2.640403675E+03  2.640403675E+03  0.000000000E+00  0.00000E+00  9.000E+00
      25     1     1     2     0     0  1.138389161E+02 -2.627087745E+02 -3.807079692E+02  4.924822401E+02  1.250000000E+02  0.00000E+00  9.000E+00
      25     1     1     2     0     0 -1.121942145E+02  2.112467420E+02 -1.585548281E+02  3.130133564E+02  1.250000000E+02  0.00000E+00  9.000E+00
      21     1     1     2   502   511 -1.644701685E+00  5.146203250E+01 -1.967687713E+03  1.968361243E+03  2.157918644E-05  0.00000E+00  9.000E+00
#rwgt            1           1   2.6793043280137346E-002           7       23939           0
</event>
<event>
      5   9999  3.19816E-02  1.28649E+02 -1.00000E+00  1.19099E-01
      21    -1     0     0   502   501  0.000000000E+00  0.000000000E+00  1.198182174E+03  1.198182174E+03  0.000000000E+00  0.00000E+00  9.000E+00
       3    -1     0     0   501     0  0.000000000E+00  0.000000000E+00 -5.005260969E+02  5.005260969E+02  0.000000000E+00  0.00000E+00  9.000E+00
      25     1     1     2     0     0 -2.307260727E+02  1.539927427E+02  2.723504738E+02  4.083479717E+02  1.250000000E+02  0.00000E+00  9.000E+00
      25     1     1     2     0     0  3.287758940E+02 -7.070554019E+01  8.093692314E+02  8.853227742E+02  1.250000000E+02  0.00000E+00  9.000E+00
       3     1     1     2   502     0 -9.804982132E+01 -8.328720252E+01 -3.840636285E+02  4.050375246E+02  0.000000000E+00  0.00000E+00  9.000E+00
#rwgt            1           1   3.0338897341415778E-002           7       24063           0
</event>
<event>
      5   9999  3.19816E-02  3.09705E+01 -1.00000E+00  1.52086E-01
      21    -1     0     0   502   511  0.000000000E+00  0.000000000E+00  3.266220767E+02  3.266220767E+02  0.000000000E+00  0.00000E+00  9.000E+00
      21    -1     0     0   501   502  0.000000000E+00  0.000000000E+00 -1.633529663E+02  1.633529663E+02  0.000000000E+00  0.00000E+00  9.000E+00
      25     1     1     2     0     0 -1.391515826E+02 -9.843629835E+01  1.580541133E+02  2.639298590E+02  1.250000000E+02  0.00000E+00  9.000E+00
      25     1     1     2     0     0  1.084710968E+02  9.420751700E+01 -1.162770441E+01  1.907910863E+02  1.250000000E+02  0.00000E+00  9.000E+00
      21     1     1     2   501   511  3.068048585E+01  4.228781354E+00  1.684270158E+01  3.525409763E+01  2.384185791E-07  0.00000E+00  9.000E+00
#rwgt            1           1   2.8510162677315529E-002           7       24164           0
</event>
<event>
      5   9999  4.45012E-02  2.14252E+01 -1.00000E+00  1.63940E-01
       1    -1     0     0   502     0  0.000000000E+00  0.000000000E+00  3.214014683E+03  3.214014683E+03  0.000000000E+00  0.00000E+00  9.000E+00
      21    -1     0     0   501   502  0.000000000E+00  0.000000000E+00 -2.376530552E+01  2.376530552E+01  0.000000000E+00  0.00000E+00  9.000E+00
      25     1     1     2     0     0  1.248449190E+00  3.447553849E+01  1.617069183E+03  1.622260109E+03  1.250000000E+02  0.00000E+00  9.000E+00
      25     1     1     2     0     0 -9.455144418E+00 -5.426671284E+01  2.001391951E+02  2.423117275E+02  1.250000000E+02  0.00000E+00  9.000E+00
       1     1     1     2   501     0  8.206695228E+00  1.979117436E+01  1.373041000E+03  1.373208152E+03  0.000000000E+00  0.00000E+00  9.000E+00
#rwgt            1           1  0.12972750633193628                7       24276           0
</event>
<event>
      5   9999  3.19816E-02  2.82216E+02 -1.00000E+00  1.06462E-01
      21    -1     0     0   502   501  0.000000000E+00  0.000000000E+00  1.126264467E+03  1.126264467E+03  0.000000000E+00  0.00000E+00  9.000E+00
      21    -1     0     0   501   511  0.000000000E+00  0.000000000E+00 -3.274166499E+02  3.274166499E+02  0.000000000E+00  0.00000E+00  9.000E+00
      25     1     1     2     0     0  2.507688269E+02 -1.046582167E+02  5.829533271E+02  6.552083092E+02  1.250000000E+02  0.00000E+00  9.000E+00
      25     1     1     2     0     0 -1.943165540E+02  3.811703045E+02  2.550685564E+02  5.135510614E+02  1.250000000E+02  0.00000E+00  9.000E+00
      21     1     1     2   502   511 -5.645227285E+01 -2.765120878E+02 -3.917406674E+01  2.849217460E+02  7.849730317E-06  0.00000E+00  9.000E+00
#rwgt            2          11   3.8300156547943238E-003           7       24535           0
</event>
<event>
      5   9999  3.19816E-02  1.30315E+02 -1.00000E+00  1.18868E-01
      21    -1     0     0   502   501  0.000000000E+00  0.000000000E+00  1.031870492E+02  1.031870492E+02  0.000000000E+00  0.00000E+00  9.000E+00
       2    -1     0     0   501     0  0.000000000E+00  0.000000000E+00 -2.051648881E+03  2.051648881E+03  0.000000000E+00  0.00000E+00  9.000E+00
      25     1     1     2     0     0  2.006685855E+02  1.050617464E+01 -2.292097847E+02  3.294546803E+02  1.250000000E+02  0.00000E+00  9.000E+00
      25     1     1     2     0     0 -2.923387470E+02  8.211387147E+01 -4.937766618E+02  5.929966464E+02  1.250000000E+02  0.00000E+00  9.000E+00
       2     1     1     2   502     0  9.167016148E+01 -9.262004612E+01 -1.225475385E+03  1.232384604E+03  2.157918644E-05  0.00000E+00  9.000E+00
#rwgt            1           1   2.8327547679506283E-002           7       24555           0
</event>
<event>
      5   9999  3.19816E-02  3.54217E+01 -1.00000E+00  1.48192E-01
      21    -1     0     0   502   501  0.000000000E+00  0.000000000E+00  1.616230465E+02  1.616230465E+02  0.000000000E+00  0.00000E+00  9.000E+00
      21    -1     0     0   501   511  0.000000000E+00  0.000000000E+00 -1.793267352E+03  1.793267352E+03  0.000000000E+00  0.00000E+00  9.000E+00
      25     1     1     2     0     0 -5.506266091E+01 -1.303356220E+02 -1.567531952E+02  2.453891505E+02  1.250000000E+02  0.00000E+00  9.000E+00
      25     1     1     2     0     0  4.243012014E+01  9.724307099E+01  5.971092025E+01  1.744904695E+02  1.250000000E+02  0.00000E+00  9.000E+00
      21     1     1     2   502   511  1.263254077E+01  3.309255101E+01 -1.534602031E+03  1.535010779E+03  0.000000000E+00  0.00000E+00  9.000E+00
#rwgt            1           1   2.7640275283520768E-002           7       24636           0
</event>
<event>
      5   9999  3.19816E-02  4.63773E+01 -1.00000E+00  1.40965E-01
      21    -1     0     0   512   501  0.000000000E+00  0.000000000E+00  2.133196748E+02  2.133196748E+02  0.000000000E+00  0.00000E+00  9.000E+00
      21    -1     0     0   501   502  0.000000000E+00  0.000000000E+00 -1.159474823E+03  1.159474823E+03  0.000000000E+00  0.00000E+00  9.000E+00
      25     1     1     2     0     0  3.461709149E+02 -2.344106596E+02 -2.250709352E+02  4.909832844E+02  1.250000000E+02  0.00000E+00  9.000E+00
      25     1     1     2     0     0 -3.236064382E+02  2.749285157E+02 -7.055411807E+02  8.328986573E+02  1.250000000E+02  0.00000E+00  9.000E+00
      21     1     1     2   512   502 -2.256447673E+01 -4.051785613E+01 -1.554303210E+01  4.891255587E+01  4.129530925E-07  0.00000E+00  9.000E+00
#rwgt            1           1   2.6687563780269506E-002           7       24716           0
</event>
<event>
      5   9999  3.19816E-02  1.29631E+02 -1.00000E+00  1.18962E-01
      21    -1     0     0   502   511  0.000000000E+00  0.000000000E+00  1.854764612E+03  1.854764612E+03  0.000000000E+00  0.00000E+00  9.000E+00
      21    -1     0     0   501   502  0.000000000E+00  0.000000000E+00 -4.230695125E+02  4.230695125E+02  0.000000000E+00  0.00000E+00  9.000E+00
      25     1     1     2     0     0  7.185172964E+01  8.044226964E+02  4.165912975E+02  9.172959472E+02  1.250000000E+02  0.00000E+00  9.000E+00
      25     1     1     2     0     0 -1.405733426E+02 -6.945064570E+02  6.375519361E+02  9.613519411E+02  1.250000000E+02  0.00000E+00  9.000E+00
      21     1     1     2   501   511  6.872161293E+01 -1.099162394E+02  3.775518659E+02  3.991862363E+02  5.394796609E-06  0.00000E+00  9.000E+00
#rwgt            1           1   2.3110072931872477E-002           7       24831           0
</event>
<event>
      5   9999  3.19816E-02  6.76163E+01 -1.00000E+00  1.31987E-01
      21    -1     0     0   502   501  0.000000000E+00  0.000000000E+00  6.736368064E+01  6.736368064E+01  0.000000000E+00  0.00000E+00  9.000E+00
      21    -1     0     0   501   512  0.000000000E+00  0.000000000E+00 -1.529353551E+03  1.529353551E+03  0.000000000E+00  0.00000E+00  9.000E+00
      25     1     1     2     0     0 -1.201039545E+02 -6.399068177E+01 -4.826246612E+02  5.167894453E+02  1.250000000E+02  0.00000E+00  9.000E+00
      25     1     1     2     0     0  1.599017906E+02  9.327176572E+00 -1.622261819E+02  2.599959864E+02  1.250000000E+02  0.00000E+00  9.000E+00
      21     1     1     2   502   512 -3.979783611E+01  5.466350520E+01 -8.171390272E+02  8.199317998E+02  1.078959322E-05  0.00000E+00  9.000E+00
#rwgt            2          11   9.3118365632040648E-004           7       24928           0
</event>
<event>
      5   9999  3.19816E-02  2.24703E+02 -1.00000E+00  1.09837E-01
      21    -1     0     0   502   501  0.000000000E+00  0.000000000E+00  4.456042419E+02  4.456042419E+02  0.000000000E+00  0.00000E+00  9.000E+00
      21    -1     0     0   501   511  0.000000000E+00  0.000000000E+00 -6.368646086E+02  6.368646086E+02  0.000000000E+00  0.00000E+00  9.000E+00
      25     1     1     2     0     0  4.325403605E+01  1.797691608E+02  4.483387123E+01  2.276465217E+02  1.250000000E+02  0.00000E+00  9.000E+00
      25     1     1     2     0     0  1.807330398E+02 -1.976877046E+02  2.050524577E+02  3.597448689E+02  1.250000000E+02  0.00000E+00  9.000E+00
      21     1     1     2   502   511 -2.239870759E+02  1.791854381E+01 -4.411466956E+02  4.950774601E+02  5.394796609E-06  0.00000E+00  9.000E+00
#rwgt            1           1   3.1117216716167757E-002           7       24978           0
</event>
<event>
      5   9999  3.19816E-02  8.01316E+01 -1.00000E+00  1.28315E-01
       4    -1     0     0   502     0  0.000000000E+00  0.000000000E+00  3.663812060E+02  3.663812060E+02  0.000000000E+00  0.00000E+00  9.000E+00
      21    -1     0     0   501   502  0.000000000E+00  0.000000000E+00 -5.684204521E+02  5.684204521E+02  0.000000000E+00  0.00000E+00  9.000E+00
      25     1     1     2     0     0  1.940107234E+02  2.314380626E+02 -3.539010538E+02  4.817413139E+02  1.250000000E+02  0.00000E+00  9.000E+00
      25     1     1     2     0     0 -1.354997008E+02 -2.861877431E+02  9.082986816E+01  3.523331636E+02  1.250000000E+02  0.00000E+00  9.000E+00
       4     1     1     2   501     0 -5.851102261E+01  5.474968052E+01  6.103193955E+01  1.007271807E+02  9.536743164E-07  0.00000E+00  9.000E+00
#rwgt            1           1   2.8240240821269375E-002           7       25048           0
</event>
<event>
      5   9999  3.19816E-02  6.58163E+01 -1.00000E+00  1.32591E-01
      21    -1     0     0   502   501  0.000000000E+00  0.000000000E+00  9.618311585E+02  9.618311585E+02  0.000000000E+00  0.00000E+00  9.000E+00
      21    -1     0     0   501   511  0.000000000E+00  0.000000000E+00 -4.178413579E+02  4.178413579E+02  0.000000000E+00  0.00000E+00  9.000E+00
      25     1     1     2     0     0  7.045437325E+01  1.255166467E+02 -3.337558391E+02  3.843646803E+02  1.250000000E+02  0.00000E+00  9.000E+00
      25     1     1     2     0     0 -2.606031192E+01 -7.692698059E+01  9.099186814E+02  9.220487552E+02  1.250000000E+02  0.00000E+00  9.000E+00
      21     1     1     2   502   511 -4.439406133E+01 -4.858966612E+01 -3.217304168E+01  7.325908097E+01  1.651812370E-06  0.00000E+00  9.000E+00
#rwgt            1           1   2.9146447004075711E-002           7       25160           0
</event>
<event>
      5   9999  3.19816E-02  9.56819E+01 -1.00000E+00  1.24696E-01
      21    -1     0     0   502   501  0.000000000E+00  0.000000000E+00  4.379568808E+01  4.379568808E+01  0.000000000E+00  0.00000E+00  9.000E+00
      21    -1     0     0   501   512  0.000000000E+00  0.000000000E+00 -2.833689632E+03  2.833689632E+03  0.000000000E+00  0.00000E+00  9.000E+00
      25     1     1     2     0     0 -2.469014559E+01 -2.884833546E+02 -1.379148360E+03  1.414746425E+03  1.250000000E+02  0.00000E+00  9.000E+00
      25     1     1     2     0     0 -4.494490569E+01  2.228633722E+02 -7.184184997E+02  7.638313085E+02  1.250000000E+02  0.00000E+00  9.000E+00
      21     1     1     2   502   512  6.963505128E+01  6.561998245E+01 -6.923270851E+02  6.989075870E+02  0.000000000E+00  0.00000E+00  9.000E+00
#rwgt            1           1   8.4030106640162722E-002           7       25228           0
</event>
<event>
      5   9999  3.19816E-02  3.57293E+01 -1.00000E+00  1.47948E-01
      21    -1     0     0   502   501  0.000000000E+00  0.000000000E+00  4.926791534E+01  4.926791534E+01  0.000000000E+00  0.00000E+00  9.000E+00
      21    -1     0     0   501   511  0.000000000E+00  0.000000000E+00 -6.609505399E+02  6.609505399E+02  0.000000000E+00  0.00000E+00  9.000E+00
      25     1     1     2     0     0 -5.326127002E+01  3.822520326E+01 -2.694857321E+02  3.042129005E+02  1.250000000E+02  0.00000E+00  9.000E+00
      25     1     1     2     0     0  7.904346986E+01 -6.296108797E+01 -1.862609899E+02  2.460287079E+02  1.250000000E+02  0.00000E+00  9.000E+00
      21     1     1     2   502   511 -2.578219984E+01  2.473588471E+01 -1.559359025E+02  1.599768468E+02  2.697398305E-06  0.00000E+00  9.000E+00
#rwgt            1           1   7.3486754260044265E-002           7       25295           0
</event>
<event>
      5   9999  3.19816E-02  1.25239E+03 -1.00000E+00  8.87048E-02
       2    -1     0     0   502     0  0.000000000E+00  0.000000000E+00  2.418097691E+03  2.418097691E+03  0.000000000E+00  0.00000E+00  9.000E+00
      21    -1     0     0   501   502  0.000000000E+00  0.000000000E+00 -9.178346510E+02  9.178346510E+02  0.000000000E+00  0.00000E+00  9.000E+00
      25     1     1     2     0     0  6.529230222E+02 -1.270501656E+02 -6.936729490E+01  6.803580227E+02  1.250000000E+02  0.00000E+00  9.000E+00
      25     1     1     2     0     0  1.789179682E+02 -8.091821979E+02  9.207416049E+02  1.245061272E+03  1.250000000E+02  0.00000E+00  9.000E+00
       2     1     1     2   501     0 -8.318409904E+02  9.362323635E+02  6.488887298E+02  1.410513047E+03  2.854658040E-05  0.00000E+00  9.000E+00
#rwgt            1           1   3.0566648732116189E-002           7       25385           0
</event>
<event>
      5   9999  3.19816E-02  2.71187E+01 -1.00000E+00  1.56149E-01
      21    -1     0     0   511   501  0.000000000E+00  0.000000000E+00  1.102622741E+03  1.102622741E+03  0.000000000E+00  0.00000E+00  9.000E+00
      21    -1     0     0   501   502  0.000000000E+00  0.000000000E+00 -2.083071999E+02  2.083071999E+02  0.000000000E+00  0.00000E+00  9.000E+00
      25     1     1     2     0     0 -2.676759685E+02 -3.256218145E+02  5.241015410E+02  6.840960572E+02  1.250000000E+02  0.00000E+00  9.000E+00
      25     1     1     2     0     0  2.934969466E+02  3.173332084E+02  2.738899036E+02  5.267651299E+02  1.250000000E+02  0.00000E+00  9.000E+00
      21     1     1     2   511   502 -2.582097803E+01  8.288606116E+00  9.632409634E+01  1.000687535E+02  1.348699152E-06  0.00000E+00  9.000E+00
#rwgt            1           1   2.8428165610005808E-002           7       25427           0
</event>
<event>
      5   9999  3.19816E-02  9.55661E+01 -1.00000E+00  1.24720E-01
       1    -1     0     0   502     0  0.000000000E+00  0.000000000E+00  5.723644920E+02  5.723644920E+02  0.000000000E+00  0.00000E+00  9.000E+00
      21    -1     0     0   501   502  0.000000000E+00  0.000000000E+00 -2.343825910E+02  2.343825910E+02  0.000000000E+00  0.00000E+00  9.000E+00
      25     1     1     2     0     0  7.571391981E+01  1.641749998E+02 -7.680617595E+01  2.328308761E+02  1.250000000E+02  0.00000E+00  9.000E+00
      25     1     1     2     0     0 -1.389723310E+02 -2.358077299E+02  3.220767275E+02  4.407686612E+02  1.250000000E+02  0.00000E+00  9.000E+00
       1     1     1     2   501     0  6.325841123E+01  7.163273013E+01  9.271134937E+01  1.331475457E+02  1.348699152E-06  0.00000E+00  9.000E+00
#rwgt            1           1   2.7346181899365506E-002           7       25592           0
</event>
<event>
      5   9999  3.19816E-02  1.45580E+01 -1.00000E+00  1.78616E-01
       2    -1     0     0   502     0  0.000000000E+00  0.000000000E+00  5.886543531E+02  5.886543531E+02  0.000000000E+00  0.00000E+00  9.000E+00
      21    -1     0     0   501   502  0.000000000E+00  0.000000000E+00 -6.320415612E+01  6.320415612E+01  0.000000000E+00  0.00000E+00  9.000E+00
      25     1     1     2     0     0 -1.092941620E+01 -7.660174019E+01  2.463735025E+02  2.869009959E+02  1.250000000E+02  0.00000E+00  9.000E+00
      25     1     1     2     0     0  1.606485916E+01  9.022383272E+01  9.817585736E+01  1.834718470E+02  1.250000000E+02  0.00000E+00  9.000E+00
       2     1     1     2   501     0 -5.135442954E+00 -1.362209252E+01  1.809008371E+02  1.814856662E+02  1.907348633E-06  0.00000E+00  9.000E+00
#rwgt            1           1   2.3332723240454673E-002           7       25669           0
</event>
<event>
      5   9999  3.19816E-02  2.11355E+02 -1.00000E+00  1.10782E-01
       2    -1     0     0   502     0  0.000000000E+00  0.000000000E+00  1.705521884E+03  1.705521884E+03  0.000000000E+00  0.00000E+00  9.000E+00
      21    -1     0     0   501   502  0.000000000E+00  0.000000000E+00 -2.067579487E+02  2.067579487E+02  0.000000000E+00  0.00000E+00  9.000E+00
      25     1     1     2     0     0  4.164755507E+02  1.295751889E+02  1.705939787E+02  4.847359276E+02  1.250000000E+02  0.00000E+00  9.000E+00
      25     1     1     2     0     0 -2.142949331E+02 -6.798181368E+01  1.032750674E+03  1.064303904E+03  1.250000000E+02  0.00000E+00  9.000E+00
       2     1     1     2   501     0 -2.021806176E+02 -6.159337525E+01  2.954192827E+02  3.632400014E+02  3.814697266E-06  0.00000E+00  9.000E+00
#rwgt            1           1   2.9701944109133797E-002           7       25834           0
</event>
<event>
      5   9999  3.19816E-02  8.09554E+01 -1.00000E+00  1.28100E-01
      21    -1     0     0   502   501  0.000000000E+00  0.000000000E+00  7.841594719E+02  7.841594719E+02  0.000000000E+00  0.00000E+00  9.000E+00
      21    -1     0     0   511   502  0.000000000E+00  0.000000000E+00 -1.744763190E+03  1.744763190E+03  0.000000000E+00  0.00000E+00  9.000E+00
      25     1     1     2     0     0  1.206591843E+02 -2.494932629E+02  5.879323032E+02  6.618873923E+02  1.250000000E+02  0.00000E+00  9.000E+00
      25     1     1     2     0     0 -7.824833551E+01  3.184505165E+02 -3.649879357E+01  3.528323899E+02  1.250000000E+02  0.00000E+00  9.000E+00
      21     1     1     2   511   501 -4.241084878E+01 -6.895725352E+01 -1.512037228E+03  1.514202880E+03  2.157918644E-05  0.00000E+00  9.000E+00
#rwgt            1           1   2.9572314533902164E-002           7       25892           0
</event>
<event>
      5   9999  3.19816E-02  1.03000E+02 -1.00000E+00  1.23253E-01
      21    -1     0     0   502   501  0.000000000E+00  0.000000000E+00  1.239463790E+02  1.239463790E+02  0.000000000E+00  0.00000E+00  9.000E+00
      21    -1     0     0   512   502  0.000000000E+00  0.000000000E+00 -1.083424331E+03  1.083424331E+03  0.000000000E+00  0.00000E+00  9.000E+00
      25     1     1     2     0     0 -1.414385194E+02 -1.739113207E+01 -3.668612726E+02  4.129400678E+02  1.250000000E+02  0.00000E+00  9.000E+00
      25     1     1     2     0     0  1.944737410E+02 -7.090535917E+01 -5.625467636E+01  2.482683921E+02  1.250000000E+02  0.00000E+00  9.000E+00
      21     1     1     2   512   501 -5.303522161E+01  8.829649124E+01 -5.363620030E+02  5.461622500E+02  0.000000000E+00  0.00000E+00  9.000E+00
#rwgt            1           1   2.7284224897747820E-002           7       26004           0
</event>
<event>
      5   9999  3.19816E-02  2.10163E+01 -1.00000E+00  1.64612E-01
       2    -1     0     0   502     0  0.000000000E+00  0.000000000E+00  1.853221383E+03  1.853221383E+03  0.000000000E+00  0.00000E+00  9.000E+00
      21    -1     0     0   501   502  0.000000000E+00  0.000000000E+00 -5.535384976E+02  5.535384976E+02  0.000000000E+00  0.00000E+00  9.000E+00
      25     1     1     2     0     0  4.023236461E+02 -2.912234603E+02 -3.756369894E+02  6.351405890E+02  1.250000000E+02  0.00000E+00  9.000E+00
      25     1     1     2     0     0 -3.813081784E+02  2.914082099E+02  1.235747483E+03  1.331544785E+03  1.250000000E+02  0.00000E+00  9.000E+00
       2     1     1     2   501     0 -2.101546762E+01 -1.847495897E-01  4.395723922E+02  4.400745074E+02  0.000000000E+00  0.00000E+00  9.000E+00
#rwgt            2          18   5.8335055651285463E-004           7       26102           0
</event>
<event>
      5   9999  3.19816E-02  2.96388E+02 -1.00000E+00  1.05763E-01
      21    -1     0     0   502   501  0.000000000E+00  0.000000000E+00  1.123164925E+03  1.123164925E+03  0.000000000E+00  0.00000E+00  9.000E+00
       1    -1     0     0   501     0  0.000000000E+00  0.000000000E+00 -5.259893887E+02  5.259893887E+02  0.000000000E+00  0.00000E+00  9.000E+00
      25     1     1     2     0     0 -5.723489463E+02  9.383261603E+01  3.804255834E+02  7.047953608E+02  1.250000000E+02  0.00000E+00  9.000E+00
      25     1     1     2     0     0  2.938794115E+02 -1.953250241E+02  4.367582541E+02  5.752388600E+02  1.250000000E+02  0.00000E+00  9.000E+00
       1     1     1     2   502     0  2.784695348E+02  1.014924081E+02 -2.200083009E+02  3.691200932E+02  4.672030912E-06  0.00000E+00  9.000E+00
#rwgt            2          12   3.7308568394179745E-004           7       26256           0
</event>
<event>
      5   9999  3.19816E-02  6.08040E+01 -1.00000E+00  1.34395E-01
      21    -1     0     0   502   501  0.000000000E+00  0.000000000E+00  6.963615541E+02  6.963615541E+02  0.000000000E+00  0.00000E+00  9.000E+00
      21    -1     0     0   511   502  0.000000000E+00  0.000000000E+00 -3.010215305E+02  3.010215305E+02  0.000000000E+00  0.00000E+00  9.000E+00
      25     1     1     2     0     0  1.541229681E+02 -1.286963712E+02 -9.663645409E+00  2.367171969E+02  1.250000000E+02  0.00000E+00  9.000E+00
      25     1     1     2     0     0 -9.336559751E+01  1.263146501E+02  5.596136886E+02  5.945292306E+02  1.250000000E+02  0.00000E+00  9.000E+00
      21     1     1     2   511   501 -6.075737056E+01  2.381721114E+00 -1.546100196E+02  1.661366571E+02  2.697398305E-06  0.00000E+00  9.000E+00
#rwgt            1           1   2.9607686601767578E-002           7       26275           0
</event>
<event>
      5   9999  3.19816E-02  7.20598E+01 -1.00000E+00  1.30586E-01
      21    -1     0     0   502   501  0.000000000E+00  0.000000000E+00  3.144692258E+02  3.144692258E+02  0.000000000E+00  0.00000E+00  9.000E+00
      21    -1     0     0   512   502  0.000000000E+00  0.000000000E+00 -3.946083011E+02  3.946083011E+02  0.000000000E+00  0.00000E+00  9.000E+00
      25     1     1     2     0     0  7.130599899E+01 -1.079605649E+02 -1.184227435E+01  1.802921755E+02  1.250000000E+02  0.00000E+00  9.000E+00
      25     1     1     2     0     0 -1.241717898E+02  1.569280661E+02  1.628358095E+02  2.866802263E+02  1.250000000E+02  0.00000E+00  9.000E+00
      21     1     1     2   512   501  5.286579083E+01 -4.896750118E+01 -2.311326104E+02  2.421051251E+02  0.000000000E+00  0.00000E+00  9.000E+00
#rwgt            1           1   2.5190317249968008E-002           7       26362           0
</event>
<event>
      5   9999  3.19816E-02  5.82132E+01 -1.00000E+00  1.35409E-01
      21    -1     0     0   502   511  0.000000000E+00  0.000000000E+00  1.083974519E+02  1.083974519E+02  0.000000000E+00  0.00000E+00  9.000E+00
      21    -1     0     0   501   502  0.000000000E+00  0.000000000E+00 -1.092082954E+03  1.092082954E+03  0.000000000E+00  0.00000E+00  9.000E+00
      25     1     1     2     0     0  8.412420065E+01 -2.831726631E+01  2.163616624E+01  1.548285258E+02  1.250000000E+02  0.00000E+00  9.000E+00
      25     1     1     2     0     0 -8.741254109E+01 -2.980296601E+01 -9.582976918E+02  9.708185388E+02  1.250000000E+02  0.00000E+00  9.000E+00
      21     1     1     2   501   511  3.288340436E+00  5.812023232E+01 -4.702397634E+01  7.483334109E+01  1.168007728E-06  0.00000E+00  9.000E+00
#rwgt            1           1   2.5961267390434514E-002           7       26400           0
</event>
<event>
      5   9999  3.19816E-02  3.89918E+02 -1.00000E+00  1.02020E-01
      21    -1     0     0   512   501  0.000000000E+00  0.000000000E+00  1.990243305E+02  1.990243305E+02  0.000000000E+00  0.00000E+00  9.000E+00
      21    -1     0     0   501   502  0.000000000E+00  0.000000000E+00 -1.622641283E+03  1.622641283E+03  0.000000000E+00  0.00000E+00  9.000E+00
      25     1     1     2     0     0  4.993485956E+01  3.329286235E+02 -1.070369996E+03  1.129004821E+03  1.250000000E+02  0.00000E+00  9.000E+00
      25     1     1     2     0     0  1.603874927E+02 -4.598295509E+00 -9.146400536E+01  2.230155968E+02  1.250000000E+02  0.00000E+00  9.000E+00
      21     1     1     2   512   502 -2.103223522E+02 -3.283303280E+02 -2.617829516E+02  4.696451957E+02  3.814697266E-06  0.00000E+00  9.000E+00
#rwgt            2          11   3.3092435342247026E-003           7       26524           0
</event>
<event>
      5   9999  3.19816E-02  2.81486E+02 -1.00000E+00  1.06499E-01
      21    -1     0     0   502   501  0.000000000E+00  0.000000000E+00  1.692601953E+03  1.692601953E+03  0.000000000E+00  0.00000E+00  9.000E+00
      21    -1     0     0   501   511  0.000000000E+00  0.000000000E+00 -9.865870779E+02  9.865870779E+02  0.000000000E+00  0.00000E+00  9.000E+00
      25     1     1     2     0     0 -1.860784705E+02 -9.066625957E+02 -3.450506013E+02  9.956641889E+02  1.250000000E+02  0.00000E+00  9.000E+00
      25     1     1     2     0     0  4.646597976E+02  8.663272302E+02  9.788736132E+02  1.392928623E+03  1.250000000E+02  0.00000E+00  9.000E+00
      21     1     1     2   502   511 -2.785813271E+02  4.033536554E+01  7.219186309E+01  2.905962192E+02  2.697398305E-06  0.00000E+00  9.000E+00
#rwgt            2          11   8.5939375087700220E-003           7       26619           0
</event>
<event>
      5   9999  3.19816E-02  1.38687E+02 -1.00000E+00  1.17759E-01
      -2    -1     0     0     0   501  0.000000000E+00  0.000000000E+00  2.451846865E+02  2.451846865E+02  0.000000000E+00  0.00000E+00  9.000E+00
      21    -1     0     0   501   502  0.000000000E+00  0.000000000E+00 -4.514605716E+02  4.514605716E+02  0.000000000E+00  0.00000E+00  9.000E+00
      25     1     1     2     0     0  2.582662241E+02  4.863147822E+01 -1.806988369E+02  3.425544232E+02  1.250000000E+02  0.00000E+00  9.000E+00
      25     1     1     2     0     0 -1.522629298E+02  4.079667425E+01  3.240150858E+01  2.037724863E+02  1.250000000E+02  0.00000E+00  9.000E+00
      -2     1     1     2     0   502 -1.060032944E+02 -8.942815247E+01 -5.797855688E+01  1.503183486E+02  1.507891493E-06  0.00000E+00  9.000E+00
#rwgt            1           1   2.5580615880973392E-002           7       26639           0
</event>
<event>
      5   9999  3.19816E-02  3.03457E+01 -1.00000E+00  1.52695E-01
      21    -1     0     0   502   501  0.000000000E+00  0.000000000E+00  3.527692336E+02  3.527692336E+02  0.000000000E+00  0.00000E+00  9.000E+00
      21    -1     0     0   501   511  0.000000000E+00  0.000000000E+00 -2.577164251E+02  2.577164251E+02  0.000000000E+00  0.00000E+00  9.000E+00
      25     1     1     2     0     0 -2.088601154E+01 -1.271395275E+02  2.456780595E+02  3.042751943E+02  1.250000000E+02  0.00000E+00  9.000E+00
      25     1     1     2     0     0  2.461673475E+01  9.702400352E+01 -7.942330973E+00  1.603362763E+02  1.250000000E+02  0.00000E+00  9.000E+00
      21     1     1     2   502   511 -3.730723210E+00  3.011552394E+01 -1.426829200E+02  1.458741881E+02  1.907348633E-06  0.00000E+00  9.000E+00
#rwgt            1           1   2.6066218376413205E-002           7       26724           0
</event>
<event>
      5   9999  3.19816E-02  5.87272E+01 -1.00000E+00  1.35203E-01
      21    -1     0     0   512   501  0.000000000E+00  0.000000000E+00  2.235338564E+02  2.235338564E+02  0.000000000E+00  0.00000E+00  9.000E+00
      21    -1     0     0   501   502  0.000000000E+00  0.000000000E+00 -1.738403976E+03  1.738403976E+03  0.000000000E+00  0.00000E+00  9.000E+00
      25     1     1     2     0     0 -4.469207462E+02  2.813121064E+02 -5.718221048E+02  7.883401386E+02  1.250000000E+02  0.00000E+00  9.000E+00
      25     1     1     2     0     0  4.332909422E+02 -2.241884732E+02 -9.816661098E+02  1.103310864E+03  1.250000000E+02  0.00000E+00  9.000E+00
      21     1     1     2   512   502  1.362980398E+01 -5.712363320E+01  3.861809546E+01  7.028682894E+01  9.536743164E-07  0.00000E+00  9.000E+00
#rwgt            1           1   3.0755549499376509E-002           7       26808           0
</event>
<event>
      5   9999  3.19816E-02  1.48391E+02 -1.00000E+00  1.16580E-01
      21    -1     0     0   502   501  0.000000000E+00  0.000000000E+00  2.168507832E+03  2.168507832E+03  0.000000000E+00  0.00000E+00  9.000E+00
      21    -1     0     0   511   502  0.000000000E+00  0.000000000E+00 -4.364828329E+02  4.364828329E+02  0.000000000E+00  0.00000E+00  9.000E+00
      25     1     1     2     0     0 -1.520316586E+02 -2.114960723E+02 -2.596860317E+00  2.889220613E+02  1.250000000E+02  0.00000E+00  9.000E+00
      25     1     1     2     0     0  1.572876782E+02  3.597935393E+02  1.983747550E+03  2.026097270E+03  1.250000000E+02  0.00000E+00  9.000E+00
      21     1     1     2   511   501 -5.256019665E+00 -1.482974670E+02 -2.491256908E+02  2.899713335E+02  7.136645101E-06  0.00000E+00  9.000E+00
#rwgt            1           1   2.9784538719999021E-002           7       26941           0
</event>
<event>
      5   9999  3.19816E-02  1.67976E+02 -1.00000E+00  1.14478E-01
      21    -1     0     0   502   512  0.000000000E+00  0.000000000E+00  4.108081971E+02  4.108081971E+02  0.000000000E+00  0.00000E+00  9.000E+00
      21    -1     0     0   501   502  0.000000000E+00  0.000000000E+00 -1.134000570E+03  1.134000570E+03  0.000000000E+00  0.00000E+00  9.000E+00
      25     1     1     2     0     0  4.575168044E+02 -1.428070413E+02 -7.294319414E+02  8.817093821E+02  1.250000000E+02  0.00000E+00  9.000E+00
      25     1     1     2     0     0 -4.720865628E+02 -2.453633674E+01 -3.471674480E+01  4.902020063E+02  1.250000000E+02  0.00000E+00  9.000E+00
      21     1     1     2   501   512  1.456975844E+01  1.673433780E+02  4.095631313E+01  1.728973789E+02  3.015782986E-06  0.00000E+00  9.000E+00
#rwgt            1           1   3.1018485419638749E-002           7       27031           0
</event>
<event>
      5   9999  3.19816E-02  8.29030E+01 -1.00000E+00  1.27605E-01
      21    -1     0     0   502   501  0.000000000E+00  0.000000000E+00  7.283698521E+02  7.283698521E+02  0.000000000E+00  0.00000E+00  9.000E+00
       2    -1     0     0   501     0  0.000000000E+00  0.000000000E+00 -1.589812656E+03  1.589812656E+03  0.000000000E+00  0.00000E+00  9.000E+00
      25     1     1     2     0     0  2.620007419E+02 -1.136172956E+02 -7.593346409E+02  8.208333421E+02  1.250000000E+02  0.00000E+00  9.000E+00
      25     1     1     2     0     0 -2.585126983E+02  1.964469329E+02  6.518287093E+02  7.388679713E+02  1.250000000E+02  0.00000E+00  9.000E+00
       2     1     1     2   502     0 -3.488043639E+00 -8.282963731E+01 -7.539368721E+02  7.584811945E+02  1.525878906E-05  0.00000E+00  9.000E+00
#rwgt            1           1   2.8254062646882301E-002           7       27101           0
</event>
<event>
      5   9999  3.19816E-02  1.64070E+02 -1.00000E+00  1.14871E-01
      21    -1     0     0   502   501  0.000000000E+00  0.000000000E+00  3.048966862E+02  3.048966862E+02  0.000000000E+00  0.00000E+00  9.000E+00
       1    -1     0     0   501     0  0.000000000E+00  0.000000000E+00 -1.941989212E+03  1.941989212E+03  0.000000000E+00  0.00000E+00  9.000E+00
      25     1     1     2     0     0  6.093989535E+01 -1.276169541E+02 -8.691243710E+01  2.077944406E+02  1.250000000E+02  0.00000E+00  9.000E+00
      25     1     1     2     0     0 -1.443561064E+02 -1.366532838E+01  2.025460279E+02  2.787029244E+02  1.250000000E+02  0.00000E+00  9.000E+00
       1     1     1     2   502     0  8.341621107E+01  1.412822825E+02 -1.752726117E+03  1.760388533E+03  3.737624730E-05  0.00000E+00  9.000E+00
#rwgt            2          12   2.4707809638095592E-003           7       27188           0
</event>
<event>
      5   9999  3.19816E-02  3.26261E+02 -1.00000E+00  1.04421E-01
      21    -1     0     0   502   501  0.000000000E+00  0.000000000E+00  3.702696861E+03  3.702696861E+03  0.000000000E+00  0.00000E+00  9.000E+00
      21    -1     0     0   501   511  0.000000000E+00  0.000000000E+00 -4.905067969E+01  4.905067969E+01  0.000000000E+00  0.00000E+00  9.000E+00
      25     1     1     2     0     0  2.403903052E+01  1.336811567E+01  1.084043167E+03  1.091572796E+03  1.250000000E+02  0.00000E+00  9.000E+00
      25     1     1     2     0     0 -1.999164595E+02  2.614290282E+02  1.557204222E+03  1.596502965E+03  1.250000000E+02  0.00000E+00  9.000E+00
      21     1     1     2   502   511  1.758774289E+02 -2.747971439E+02  1.012398793E+03  1.063671780E+03  2.157918644E-05  0.00000E+00  9.000E+00
#rwgt            2          11   2.0071592360881799E-003           7       27207           0
</event>
<event>
      5   9999  3.19816E-02  3.04795E+01 -1.00000E+00  1.52563E-01
      21    -1     0     0   512   501  0.000000000E+00  0.000000000E+00  1.455322991E+03  1.455322991E+03  0.000000000E+00  0.00000E+00  9.000E+00
      21    -1     0     0   501   502  0.000000000E+00  0.000000000E+00 -2.179916344E+02  2.179916344E+02  0.000000000E+00  0.00000E+00  9.000E+00
      25     1     1     2     0     0 -8.195604935E+01  3.181405718E+02  4.659598607E+02  5.836726901E+02  1.250000000E+02  0.00000E+00  9.000E+00
      25     1     1     2     0     0  9.782042683E+01 -2.921152246E+02  1.514137961E+01  3.327978391E+02  1.250000000E+02  0.00000E+00  9.000E+00
      21     1     1     2   512   502 -1.586437748E+01 -2.602534726E+01  7.562301159E+02  7.568440959E+02  0.000000000E+00  0.00000E+00  9.000E+00
#rwgt            1           1   2.9112890222133155E-002           7       27227           0
</event>
<event>
      5   9999  3.19816E-02  1.34294E+01 -1.00000E+00  1.82032E-01
      21    -1     0     0   502   511  0.000000000E+00  0.000000000E+00  5.125069117E+02  5.125069117E+02  0.000000000E+00  0.00000E+00  9.000E+00
      21    -1     0     0   501   502  0.000000000E+00  0.000000000E+00 -1.709783021E+03  1.709783021E+03  0.000000000E+00  0.00000E+00  9.000E+00
      25     1     1     2     0     0  3.944252695E+02  1.146767436E+02 -1.566318338E+03  1.624099808E+03  1.250000000E+02  0.00000E+00  9.000E+00
      25     1     1     2     0     0 -3.811255798E+02 -1.165385959E+02  2.680303606E+02  4.962894580E+02  1.250000000E+02  0.00000E+00  9.000E+00
      21     1     1     2   501   511 -1.329968961E+01  1.861852241E+00  1.010118687E+02  1.019006666E+02  0.000000000E+00  0.00000E+00  9.000E+00
#rwgt            1           1   2.4692087594956464E-002           7       27393           0
</event>
<event>
      5   9999  3.19816E-02  1.44484E+02 -1.00000E+00  1.17042E-01
      21    -1     0     0   502   512  0.000000000E+00  0.000000000E+00  5.503780539E+02  5.503780539E+02  0.000000000E+00  0.00000E+00  9.000E+00
      21    -1     0     0   501   502  0.000000000E+00  0.000000000E+00 -7.462699413E+02  7.462699413E+02  0.000000000E+00  0.00000E+00  9.000E+00
      25     1     1     2     0     0  1.879235502E+02 -2.826537468E+02  1.605231258E+02  3.957285373E+02  1.250000000E+02  0.00000E+00  9.000E+00
      25     1     1     2     0     0 -1.367745523E+02  4.177805830E+02 -5.135443552E+02  6.874595977E+02  1.250000000E+02  0.00000E+00  9.000E+00
      21     1     1     2   501   512 -5.114899787E+01 -1.351268362E+02  1.571293419E+02  2.134598602E+02  0.000000000E+00  0.00000E+00  9.000E+00
#rwgt            1           1   3.0101491813442391E-002           7       27672           0
</event>
<event>
      5   9999  3.19816E-02  1.69428E+02 -1.00000E+00  1.14335E-01
      21    -1     0     0   502   501  0.000000000E+00  0.000000000E+00  1.176962452E+03  1.176962452E+03  0.000000000E+00  0.00000E+00  9.000E+00
       2    -1     0     0   501     0  0.000000000E+00  0.000000000E+00 -1.216203329E+02  1.216203329E+02  0.000000000E+00  0.00000E+00  9.000E+00
      25     1     1     2     0     0  1.198546413E+02 -7.000118345E+01  1.762582926E+02  2.568215070E+02  1.250000000E+02  0.00000E+00  9.000E+00
      25     1     1     2     0     0 -2.059121907E+02  2.159458505E+02  7.825015109E+02  8.467384810E+02  1.250000000E+02  0.00000E+00  9.000E+00
       2     1     1     2   502     0  8.605754941E+01 -1.459446671E+02  9.658231570E+01  1.950227971E+02  2.336015456E-06  0.00000E+00  9.000E+00
#rwgt            1           1   1.7549583424447551E-002           7       27781           0
</event>
<event>
      5   9999  3.19816E-02  6.81660E+01 -1.00000E+00  1.31807E-01
      21    -1     0     0   502   501  0.000000000E+00  0.000000000E+00  3.118529308E+02  3.118529308E+02  0.000000000E+00  0.00000E+00  9.000E+00
      21    -1     0     0   501   511  0.000000000E+00  0.000000000E+00 -1.554072164E+03  1.554072164E+03  0.000000000E+00  0.00000E+00  9.000E+00
      25     1     1     2     0     0  5.601177730E+02  8.734286455E+01 -2.226455413E+02  6.217368677E+02  1.250000000E+02  0.00000E+00  9.000E+00
      25     1     1     2     0     0 -6.185342659E+02 -1.224728488E+02 -8.911974776E+02  1.098836740E+03  1.250000000E+02  0.00000E+00  9.000E+00
      21     1     1     2   502   511  5.841649297E+01  3.512998423E+01 -1.283762139E+02  1.453514869E+02  1.907348633E-06  0.00000E+00  9.000E+00
#rwgt            1           1   2.6882817548818435E-002           7       27913           0
</event>
<event>
      5   9999  3.19816E-02  3.25021E+01 -1.00000E+00  1.50662E-01
      21    -1     0     0   512   501  0.000000000E+00  0.000000000E+00  1.240077108E+03  1.240077108E+03  0.000000000E+00  0.00000E+00  9.000E+00
      21    -1     0     0   501   502  0.000000000E+00  0.000000000E+00 -1.610770225E+02  1.610770225E+02  0.000000000E+00  0.00000E+00  9.000E+00
      25     1     1     2     0     0 -1.285455149E+02  3.425362610E+02  5.780059085E+02  6.953926011E+02  1.250000000E+02  0.00000E+00  9.000E+00
      25     1     1     2     0     0  1.233770642E+02 -3.746248144E+02  3.232049028E+02  5.250257715E+02  1.250000000E+02  0.00000E+00  9.000E+00
      21     1     1     2   512   502  5.168450681E+00  3.208855339E+01  1.777892740E+02  1.807357576E+02  2.697398305E-06  0.00000E+00  9.000E+00
#rwgt            1           1   2.8859559087447868E-002           7       28008           0
</event>
<event>
      5   9999  3.19816E-02  4.60519E+01 -1.00000E+00  1.41145E-01
      21    -1     0     0   502   501  0.000000000E+00  0.000000000E+00  8.942135665E+02  8.942135665E+02  0.000000000E+00  0.00000E+00  9.000E+00
      21    -1     0     0   501   511  0.000000000E+00  0.000000000E+00 -5.080207684E+02  5.080207684E+02  0.000000000E+00  0.00000E+00  9.000E+00
      25     1     1     2     0     0  2.432959244E+02 -1.465441170E+02 -2.017311877E+02  3.701196524E+02  1.250000000E+02  0.00000E+00  9.000E+00
      25     1     1     2     0     0 -2.321490653E+02  1.018616771E+02  7.825927398E+02  8.320729452E+02  1.250000000E+02  0.00000E+00  9.000E+00
      21     1     1     2   502   511 -1.114685903E+01  4.468243995E+01 -1.946687540E+02  2.000417373E+02  4.672030912E-06  0.00000E+00  9.000E+00
#rwgt            1           1   3.1893457648937182E-002           7       28188           0
</event>
<event>
      5   9999  3.19816E-02  1.68185E+02 -1.00000E+00  1.14458E-01
      21    -1     0     0   502   501  0.000000000E+00  0.000000000E+00  8.100697727E+02  8.100697727E+02  0.000000000E+00  0.00000E+00  9.000E+00
      21    -1     0     0   512   502  0.000000000E+00  0.000000000E+00 -7.530090310E+02  7.530090310E+02  0.000000000E+00  0.00000E+00  9.000E+00
      25     1     1     2     0     0 -5.735754660E+01 -3.115778171E+02 -1.854182652E+02  3.877828740E+02  1.250000000E+02  0.00000E+00  9.000E+00
      25     1     1     2     0     0 -6.878861557E+01  4.228132800E+02  6.189077834E+02  7.630037927E+02  1.250000000E+02  0.00000E+00  9.000E+00
      21     1     1     2   512   501  1.261461622E+02 -1.112354629E+02 -3.764287765E+02  4.122921370E+02  5.394796609E-06  0.00000E+00  9.000E+00
#rwgt            1           1   2.8816372765589866E-002           7       28335           0
</event>
<event>
      5   9999  3.19816E-02  1.71426E+02 -1.00000E+00  1.14141E-01
      21    -1     0     0   502   501  0.000000000E+00  0.000000000E+00  4.193618992E+02  4.193618992E+02  0.000000000E+00  0.00000E+00  9.000E+00
       3    -1     0     0   501     0  0.000000000E+00  0.000000000E+00 -1.095382726E+03  1.095382726E+03  0.000000000E+00  0.00000E+00  9.000E+00
      25     1     1     2     0     0  2.675986638E+02 -9.887119946E+01  1.232638084E+02  3.349679468E+02  1.250000000E+02  0.00000E+00  9.000E+00
      25     1     1     2     0     0 -3.878324507E+02 -2.332061949E+01 -5.007589964E+01  4.112061002E+02  1.250000000E+02  0.00000E+00  9.000E+00
       3     1     1     2   502     0  1.202337870E+02  1.221918190E+02 -7.492087358E+02  7.685705783E+02  0.000000000E+00  0.00000E+00  9.000E+00
#rwgt            1           1   2.6005474008776876E-002           7       28382           0
</event>
<event>
      5   9999  3.19816E-02  6.93764E+01 -1.00000E+00  1.31418E-01
      21    -1     0     0   502   501  0.000000000E+00  0.000000000E+00  3.489431213E+02  3.489431213E+02  0.000000000E+00  0.00000E+00  9.000E+00
       2    -1     0     0   501     0  0.000000000E+00  0.000000000E+00 -2.136056982E+03  2.136056982E+03  0.000000000E+00  0.00000E+00  9.000E+00
      25     1     1     2     0     0  4.561190245E+02  1.891021448E+02  2.826660683E+01  5.101256578E+02  1.250000000E+02  0.00000E+00  9.000E+00
      25     1     1     2     0     0 -5.112584134E+02 -1.469982919E+02 -8.728817791E+02  1.029825841E+03  1.250000000E+02  0.00000E+00  9.000E+00
       2     1     1     2   502     0  5.513938889E+01 -4.210385293E+01 -9.424986887E+02  9.450486044E+02  0.000000000E+00  0.00000E+00  9.000E+00
#rwgt            1           1   2.8955677559593981E-002           7       28489           0
</event>
<event>
      5   9999  3.49342E-02  6.60149E+01 -1.00000E+00  1.32523E-01
      21    -1     0     0   502   501  0.000000000E+00  0.000000000E+00  1.137303209E+02  1.137303209E+02  0.000000000E+00  0.00000E+00  9.000E+00
      21    -1     0     0   511   502  0.000000000E+00  0.000000000E+00 -9.610543790E+02  9.610543790E+02  0.000000000E+00  0.00000E+00  9.000E+00
      25     1     1     2     0     0  5.889917453E+01 -2.898690894E+01  6.741289270E+00  1.413499156E+02  1.250000000E+02  0.00000E+00  9.000E+00
      25     1     1     2     0     0 -9.584846807E+01 -2.571881164E+01 -1.285854325E+02  2.049575555E+02  1.250000000E+02  0.00000E+00  9.000E+00
      21     1     1     2   511   501  3.694929353E+01  5.470572058E+01 -7.254799148E+02  7.284772289E+02  1.078959322E-05  0.00000E+00  9.000E+00
#rwgt            1           1   9.2141292087709950E-002           7       28629           0
</event>
<event>
      5   9999  3.19816E-02  2.27833E+01 -1.00000E+00  1.61832E-01
      21    -1     0     0   502   501  0.000000000E+00  0.000000000E+00  6.328386832E+02  6.328386832E+02  0.000000000E+00  0.00000E+00  9.000E+00
      21    -1     0     0   501   512  0.000000000E+00  0.000000000E+00 -1.472637122E+02  1.472637122E+02  0.000000000E+00  0.00000E+00  9.000E+00
      25     1     1     2     0     0 -2.702682054E+02 -1.220750803E+01  2.360404726E+02  3.801763154E+02  1.250000000E+02  0.00000E+00  9.000E+00
      25     1     1     2     0     0  2.601050778E+02 -8.183391859E+00  2.391590541E+02  3.748915478E+02  1.250000000E+02  0.00000E+00  9.000E+00
      21     1     1     2   502   512  1.016312756E+01  2.039089989E+01  1.037544422E+01  2.503453221E+01  3.769728732E-07  0.00000E+00  9.000E+00
#rwgt            1           1   3.0443287229586224E-002           7       28731           0
</event>
<event>
      5   9999  3.19816E-02  1.06886E+02 -1.00000E+00  1.22541E-01
      21    -1     0     0   511   501  0.000000000E+00  0.000000000E+00  1.085782535E+03  1.085782535E+03  0.000000000E+00  0.00000E+00  9.000E+00
      21    -1     0     0   501   502  0.000000000E+00  0.000000000E+00 -1.080500714E+02  1.080500714E+02  0.000000000E+00  0.00000E+00  9.000E+00
      25     1     1     2     0     0  2.339617510E+02 -8.740373667E+00  3.240946619E+02  4.188995643E+02  1.250000000E+02  0.00000E+00  9.000E+00
      25     1     1     2     0     0 -2.250042845E+02 -9.777013022E+01  3.079175915E+02  4.130667858E+02  1.250000000E+02  0.00000E+00  9.000E+00
      21     1     1     2   511   502 -8.957466524E+00  1.065105039E+02  3.457202104E+02  3.618662565E+02  5.394796609E-06  0.00000E+00  9.000E+00
#rwgt            1           1   2.9135498963441045E-002           7       28836           0
</event>
<event>
      5   9999  3.19816E-02  4.43448E+01 -1.00000E+00  1.42116E-01
      21    -1     0     0   502   501  0.000000000E+00  0.000000000E+00  5.609724287E+02  5.609724287E+02  0.000000000E+00  0.00000E+00  9.000E+00
       1    -1     0     0   501     0  0.000000000E+00  0.000000000E+00 -3.245165117E+02  3.245165117E+02  0.000000000E+00  0.00000E+00  9.000E+00
      25     1     1     2     0     0 -1.881577889E+02 -1.946604506E+02 -8.181405684E+01  3.092160805E+02  1.250000000E+02  0.00000E+00  9.000E+00
      25     1     1     2     0     0  2.109529337E+02  2.326978071E+02  9.854222759E+01  3.521150101E+02  1.250000000E+02  0.00000E+00  9.000E+00
       1     1     1     2   502     0 -2.279514481E+01 -3.803735652E+01  2.197277463E+02  2.241578498E+02  2.697398305E-06  0.00000E+00  9.000E+00
#rwgt            1           1   2.7340667008174311E-002           7       28914           0
</event>
<event>
      5   9999  3.19816E-02  6.51262E+01 -1.00000E+00  1.32828E-01
      21    -1     0     0   502   511  0.000000000E+00  0.000000000E+00  2.053129248E+02  2.053129248E+02  0.000000000E+00  0.00000E+00  9.000E+00
      21    -1     0     0   501   502  0.000000000E+00  0.000000000E+00 -2.214769084E+02  2.214769084E+02  0.000000000E+00  0.00000E+00  9.000E+00
      25     1     1     2     0     0 -6.697527558E+00  4.824106023E+01  2.747754060E+01  1.369382051E+02  1.250000000E+02  0.00000E+00  9.000E+00
      25     1     1     2     0     0  6.933932948E+01 -3.042454950E+01 -1.202811662E+02  1.892779828E+02  1.250000000E+02  0.00000E+00  9.000E+00
      21     1     1     2   501   511 -6.264180192E+01 -1.781651073E+01  7.663964209E+01  1.005736454E+02  1.651812370E-06  0.00000E+00  9.000E+00
#rwgt            1           1   5.3253075931595305E-002           7       29003           0
</event>
<event>
      5   9999  3.19816E-02  3.23917E+01 -1.00000E+00  1.50762E-01
      21    -1     0     0   502   501  0.000000000E+00  0.000000000E+00  3.979857782E+02  3.979857782E+02  0.000000000E+00  0.00000E+00  9.000E+00
      21    -1     0     0   512   502  0.000000000E+00  0.000000000E+00 -6.593479717E+02  6.593479717E+02  0.000000000E+00  0.00000E+00  9.000E+00
      25     1     1     2     0     0  1.156991382E+02  3.478414851E+01  1.122190849E+02  2.069162888E+02  1.250000000E+02  0.00000E+00  9.000E+00
      25     1     1     2     0     0 -1.252478020E+02 -3.831889436E+00  2.050541153E+02  2.708761442E+02  1.250000000E+02  0.00000E+00  9.000E+00
      21     1     1     2   512   501  9.548663810E+00 -3.095225907E+01 -5.786353936E+02  5.795413170E+02  1.321449896E-05  0.00000E+00  9.000E+00
#rwgt            1           1   2.7853656970159155E-002           7       29089           0
</event>
<event>
      5   9999  3.19816E-02  2.40585E+01 -1.00000E+00  1.60010E-01
      21    -1     0     0   502   501  0.000000000E+00  0.000000000E+00  1.295413610E+02  1.295413610E+02  0.000000000E+00  0.00000E+00  9.000E+00
      21    -1     0     0   511   502  0.000000000E+00  0.000000000E+00 -1.657708395E+03  1.657708395E+03  0.000000000E+00  0.00000E+00  9.000E+00
      25     1     1     2     0     0  8.689075991E+01  2.037719345E+02 -9.050151273E+02  9.400799892E+02  1.250000000E+02  0.00000E+00  9.000E+00
      25     1     1     2     0     0 -7.870921378E+01 -2.263965840E+02 -5.171566386E+01  2.752272942E+02  1.250000000E+02  0.00000E+00  9.000E+00
      21     1     1     2   511   501 -8.181546132E+00  2.262464947E+01 -5.714362424E+02  5.719424723E+02  7.629394531E-06  0.00000E+00  9.000E+00
#rwgt            1           1   2.5868127972467143E-002           7       29220           0
</event>
<event>
      5   9999  3.19816E-02  1.66308E+01 -1.00000E+00  1.73263E-01
       2    -1     0     0   502     0  0.000000000E+00  0.000000000E+00  2.513405312E+03  2.513405312E+03  0.000000000E+00  0.00000E+00  9.000E+00
      21    -1     0     0   501   502  0.000000000E+00  0.000000000E+00 -1.054260833E+02  1.054260833E+02  0.000000000E+00  0.00000E+00  9.000E+00
      25     1     1     2     0     0  6.513314169E+01 -5.619701073E+01 -9.029179142E+00  1.520097242E+02  1.250000000E+02  0.00000E+00  9.000E+00
      25     1     1     2     0     0 -7.060884024E+01  7.190052453E+01  2.342239513E+02  2.839738599E+02  1.250000000E+02  0.00000E+00  9.000E+00
       2     1     1     2   501     0  5.475698556E+00 -1.570351380E+01  2.182784457E+03  2.182847812E+03  4.315837288E-05  0.00000E+00  9.000E+00
#rwgt            1           1   3.1693160027392961E-002           7       29376           0
</event>
<event>
      5   9999  3.19816E-02  9.85428E+01 -1.00000E+00  1.24115E-01
      21    -1     0     0   502   501  0.000000000E+00  0.000000000E+00  5.168582840E+02  5.168582840E+02  0.000000000E+00  0.00000E+00  9.000E+00
      21    -1     0     0   511   502  0.000000000E+00  0.000000000E+00 -7.795632414E+02  7.795632414E+02  0.000000000E+00  0.00000E+00  9.000E+00
      25     1     1     2     0     0  7.178404401E+01 -3.684818759E+02  1.217931620E+02  4.139932562E+02  1.250000000E+02  0.00000E+00  9.000E+00
      25     1     1     2     0     0  2.422069145E+01  3.907028173E+02  7.045757362E+01  4.169227782E+02  1.250000000E+02  0.00000E+00  9.000E+00
      21     1     1     2   511   501 -9.600473546E+01 -2.222094142E+01 -4.549556931E+02  4.655054910E+02  0.000000000E+00  0.00000E+00  9.000E+00
#rwgt            1           1   2.9956017829148189E-002           7       29536           0
</event>
<event>
      5   9999  3.19816E-02  1.52406E+02 -1.00000E+00  1.16120E-01
      21    -1     0     0   502   501  0.000000000E+00  0.000000000E+00  6.895455395E+02  6.895455395E+02  0.000000000E+00  0.00000E+00  9.000E+00
      21    -1     0     0   501   512  0.000000000E+00  0.000000000E+00 -4.487534431E+02  4.487534431E+02  0.000000000E+00  0.00000E+00  9.000E+00
      25     1     1     2     0     0 -2.108875993E+02 -1.206772376E+02  5.474888948E+02  6.118869709E+02  1.250000000E+02  0.00000E+00  9.000E+00
      25     1     1     2     0     0  9.617914603E+01  2.210251583E+02 -1.615779963E+02  3.159667667E+02  1.250000000E+02  0.00000E+00  9.000E+00
      21     1     1     2   502   512  1.147084533E+02 -1.003479208E+02 -1.451188021E+02  2.104452451E+02  1.907348633E-06  0.00000E+00  9.000E+00
#rwgt            2          11   3.4291744869201992E-003           7       29707           0
</event>
<event>
      5   9999  3.19816E-02  6.29640E+01 -1.00000E+00  1.33594E-01
       1    -1     0     0   502     0  0.000000000E+00  0.000000000E+00  4.042841900E+02  4.042841900E+02  0.000000000E+00  0.00000E+00  9.000E+00
      21    -1     0     0   501   502  0.000000000E+00  0.000000000E+00 -3.348328268E+02  3.348328268E+02  0.000000000E+00  0.00000E+00  9.000E+00
      25     1     1     2     0     0  9.604504934E+01  7.538787114E+01 -2.075822492E+02  2.713362726E+02  1.250000000E+02  0.00000E+00  9.000E+00
      25     1     1     2     0     0 -3.308118953E+01 -7.524982761E+01 -3.150160223E+01  1.528864042E+02  1.250000000E+02  0.00000E+00  9.000E+00
       1     1     1     2   501     0 -6.296385980E+01 -1.380435294E-01  3.085352147E+02  3.148943401E+02  5.394796609E-06  0.00000E+00  9.000E+00
#rwgt            1           1   2.1878225068283304E-002           7       29742           0
</event>
<event>
      5   9999  3.19816E-02  5.54923E+01 -1.00000E+00  1.36541E-01
      21    -1     0     0   511   501  0.000000000E+00  0.000000000E+00  1.179655957E+02  1.179655957E+02  0.000000000E+00  0.00000E+00  9.000E+00
      21    -1     0     0   501   502  0.000000000E+00  0.000000000E+00 -9.899399293E+02  9.899399293E+02  0.000000000E+00  0.00000E+00  9.000E+00
      25     1     1     2     0     0  1.134427988E+02  1.636851798E+02 -5.340606888E+01  2.411209549E+02  1.250000000E+02  0.00000E+00  9.000E+00
      25     1     1     2     0     0 -6.125057556E+01 -1.448340201E+02 -7.600085241E+02  7.861084423E+02  1.250000000E+02  0.00000E+00  9.000E+00
      21     1     1     2   511   502 -5.219222319E+01 -1.885115972E+01 -5.855974061E+01  8.067612785E+01  1.348699152E-06  0.00000E+00  9.000E+00
#rwgt            1           1   2.9400954051365859E-002           7       29787           0
</event>
<event>
      5   9999  3.19816E-02  6.35218E+01 -1.00000E+00  1.33393E-01
      21    -1     0     0   502   501  0.000000000E+00  0.000000000E+00  6.627387010E+02  6.627387010E+02  0.000000000E+00  0.00000E+00  9.000E+00
      21    -1     0     0   501   512  0.000000000E+00  0.000000000E+00 -2.497377875E+02  2.497377875E+02  0.000000000E+00  0.00000E+00  9.000E+00
      25     1     1     2     0     0 -1.605165831E+02 -2.669161884E+02  2.367507785E+02  4.107137157E+02  1.250000000E+02  0.00000E+00  9.000E+00
      25     1     1     2     0     0  9.704868173E+01  2.695334896E+02  2.530109456E+02  4.021272028E+02  1.250000000E+02  0.00000E+00  9.000E+00
      21     1     1     2   502   512  6.346790142E+01 -2.617301224E+00 -7.676081060E+01  9.963557006E+01  2.523185073E-06  0.00000E+00  9.000E+00
#rwgt            1           1   3.2027104908052551E-002           7       29867           0
</event>
<event>
      5   9999  3.19816E-02  5.86849E+01 -1.00000E+00  1.35220E-01
      21    -1     0     0   502   501  0.000000000E+00  0.000000000E+00  5.299264534E+02  5.299264534E+02  0.000000000E+00  0.00000E+00  9.000E+00
      21    -1     0     0   501   511  0.000000000E+00  0.000000000E+00 -3.083738057E+02  3.083738057E+02  0.000000000E+00  0.00000E+00  9.000E+00
      25     1     1     2     0     0  4.483606987E+01  2.887400375E+02  2.993835600E+01  3.192215337E+02  1.250000000E+02  0.00000E+00  9.000E+00
      25     1     1     2     0     0 -1.016125078E+02 -3.035843723E+02  2.585414550E+02  4.300665725E+02  1.250000000E+02  0.00000E+00  9.000E+00
      21     1     1     2   502   511  5.677643794E+01  1.484433478E+01 -6.692716326E+01  8.901215289E+01  9.536743164E-07  0.00000E+00  9.000E+00
#rwgt            2          11   2.1669454316709542E-003           7       30110           0
</event>
<event>
      5   9999  3.19816E-02  1.02835E+02 -1.00000E+00  1.23284E-01
      21    -1     0     0   502   501  0.000000000E+00  0.000000000E+00  4.376455949E+02  4.376455949E+02  0.000000000E+00  0.00000E+00  9.000E+00
      21    -1     0     0   512   502  0.000000000E+00  0.000000000E+00 -1.984543937E+03  1.984543937E+03  0.000000000E+00  0.00000E+00  9.000E+00
      25     1     1     2     0     0  3.036412254E+01  3.742505240E+02  2.156572058E+02  4.506866595E+02  1.250000000E+02  0.00000E+00  9.000E+00
      25     1     1     2     0     0 -1.145124129E+02 -3.151390725E+02 -2.087118721E+02  4.142600309E+02  1.250000000E+02  0.00000E+00  9.000E+00
      21     1     1     2   512   501  8.414829032E+01 -5.911145150E+01 -1.553843676E+03  1.557242841E+03  2.157918644E-05  0.00000E+00  9.000E+00
#rwgt            1           1   2.5405896235344914E-002           7       30130           0
</event>
<event>
      5   9999  3.19816E-02  1.38950E+02 -1.00000E+00  1.17726E-01
       2    -1     0     0   502     0  0.000000000E+00  0.000000000E+00  2.899047812E+03  2.899047812E+03  0.000000000E+00  0.00000E+00  9.000E+00
      21    -1     0     0   501   502  0.000000000E+00  0.000000000E+00 -2.082277946E+02  2.082277946E+02  0.000000000E+00  0.00000E+00  9.000E+00
      25     1     1     2     0     0 -3.203529109E+02 -5.597524010E+02  1.039861093E+03  1.229993834E+03  1.250000000E+02  0.00000E+00  9.000E+00
      25     1     1     2     0     0  2.513333054E+02  6.803487775E+02  1.223461677E+03  1.427769717E+03  1.250000000E+02  0.00000E+00  9.000E+00
       2     1     1     2   501     0  6.901960549E+01 -1.205963765E+02  4.274972477E+02  4.495120563E+02  5.394796609E-06  0.00000E+00  9.000E+00
#rwgt            1           1   3.2460510901374529E-002           7       30233           0
</event>
<event>
      5   9999  3.19816E-02  5.69455E+01 -1.00000E+00  1.35927E-01
      21    -1     0     0   502   511  0.000000000E+00  0.000000000E+00  1.727800170E+03  1.727800170E+03  0.000000000E+00  0.00000E+00  9.000E+00
      21    -1     0     0   501   502  0.000000000E+00  0.000000000E+00 -1.224856058E+02  1.224856058E+02  0.000000000E+00  0.00000E+00  9.000E+00
      25     1     1     2     0     0  2.830114557E+01 -3.230142588E+02  1.242414236E+03  1.290099725E+03  1.250000000E+02  0.00000E+00  9.000E+00
      25     1     1     2     0     0 -3.316769822E+01  2.662770472E+02  1.351306380E+02  3.254056720E+02  1.250000000E+02  0.00000E+00  9.000E+00
      21     1     1     2   501   511  4.866552655E+00  5.673721168E+01  2.277696906E+02  2.347803792E+02  2.697398305E-06  0.00000E+00  9.000E+00
#rwgt            1           1   2.8953485745109749E-002           7       30299           0
</event>
<event>
      5   9999  3.19816E-02  1.46819E+02 -1.00000E+00  1.16764E-01
      21    -1     0     0   502   501  0.000000000E+00  0.000000000E+00  2.308963362E+02  2.308963362E+02  0.000000000E+00  0.00000E+00  9.000E+00
      21    -1     0     0   501   512  0.000000000E+00  0.000000000E+00 -1.835598314E+03  1.835598314E+03  0.000000000E+00  0.00000E+00  9.000E+00
      25     1     1     2     0     0 -2.213405388E+01  4.999683610E+02 -9.165819402E+02  1.051763154E+03  1.250000000E+02  0.00000E+00  9.000E+00
      25     1     1     2     0     0  1.566654031E+02 -4.411705422E+02 -2.352354498E+02  5.386429362E+02  1.250000000E+02  0.00000E+00  9.000E+00
      21     1     1     2   502   512 -1.345313492E+02 -5.879781883E+01 -4.528845882E+02  4.760885607E+02  0.000000000E+00  0.00000E+00  9.000E+00
#rwgt            1           1   2.5062194025462278E-002           7       30377           0
</event>
<event>
      5   9999  3.19816E-02  2.58313E+01 -1.00000E+00  1.57694E-01
      21    -1     0     0   502   501  0.000000000E+00  0.000000000E+00  8.280733536E+02  8.280733536E+02  0.000000000E+00  0.00000E+00  9.000E+00
      21    -1     0     0   501   511  0.000000000E+00  0.000000000E+00 -1.007130382E+02  1.007130382E+02  0.000000000E+00  0.00000E+00  9.000E+00
      25     1     1     2     0     0 -9.788931477E+01 -2.007506963E+02  4.507798920E+02  5.183731002E+02  1.250000000E+02  0.00000E+00  9.000E+00
      25     1     1     2     0     0  9.898594443E+01  2.265587129E+02  2.582256188E+02  3.787248841E+02  1.250000000E+02  0.00000E+00  9.000E+00
      21     1     1     2   502   511 -1.096629658E+00 -2.580801665E+01  1.835480455E+01  3.168840750E+01  2.384185791E-07  0.00000E+00  9.000E+00
#rwgt            1           1   3.3866092319300142E-002           7       30494           0
</event>
<event>
      5   9999  3.19816E-02  9.01775E+00 -1.00000E+00  2.01095E-01
      21    -1     0     0   502   512  0.000000000E+00  0.000000000E+00  1.548258871E+03  1.548258871E+03  0.000000000E+00  0.00000E+00  9.000E+00
      21    -1     0     0   501   502  0.000000000E+00  0.000000000E+00 -1.382641780E+03  1.382641780E+03  0.000000000E+00  0.00000E+00  9.000E+00
      25     1     1     2     0     0  1.009493194E+03  8.676475332E+02  5.819054010E+02  1.458124702E+03  1.250000000E+02  0.00000E+00  9.000E+00
      25     1     1     2     0     0 -1.011794468E+03 -8.589283604E+02 -4.736362077E+02  1.414723376E+03  1.250000000E+02  0.00000E+00  9.000E+00
      21     1     1     2   501   512  2.301274230E+00 -8.719172722E+00  5.734789749E+01  5.805257257E+01  6.743495762E-07  0.00000E+00  9.000E+00
#rwgt            1           1   5.3206809647109790E-002           7       30638           0
</event>
<event>
      5   9999  3.19816E-02  1.45133E+02 -1.00000E+00  1.16964E-01
      21    -1     0     0   502   511  0.000000000E+00  0.000000000E+00  2.353730144E+02  2.353730144E+02  0.000000000E+00  0.00000E+00  9.000E+00
      21    -1     0     0   501   502  0.000000000E+00  0.000000000E+00 -1.856868626E+03  1.856868626E+03  0.000000000E+00  0.00000E+00  9.000E+00
      25     1     1     2     0     0  2.253679458E+02 -1.373431767E+02 -1.537630890E+03  1.565115847E+03  1.250000000E+02  0.00000E+00  9.000E+00
      25     1     1     2     0     0 -1.890021594E+02  2.778459772E+02 -1.190652315E+02  3.777852997E+02  1.250000000E+02  0.00000E+00  9.000E+00
      21     1     1     2   501   511 -3.636578642E+01 -1.405028005E+02  3.520050970E+01  1.493404943E+02  3.126830351E-06  0.00000E+00  9.000E+00
#rwgt            1           1   3.1084908343921306E-002           7       31104           0
</event>
<event>
      5   9999  3.19816E-02  1.00076E+02 -1.00000E+00  1.23813E-01
       1    -1     0     0   502     0  0.000000000E+00  0.000000000E+00  1.117282843E+03  1.117282843E+03  0.000000000E+00  0.00000E+00  9.000E+00
      21    -1     0     0   501   502  0.000000000E+00  0.000000000E+00 -1.356035568E+03  1.356035568E+03  0.000000000E+00  0.00000E+00  9.000E+00
      25     1     1     2     0     0  3.805739810E+02 -2.795453178E+01 -3.469312023E+02  5.306639897E+02  1.250000000E+02  0.00000E+00  9.000E+00
      25     1     1     2     0     0 -3.921691197E+02 -7.144742602E+01 -8.669754737E+02  9.623787327E+02  1.250000000E+02  0.00000E+00  9.000E+00
       1     1     1     2   501     0  1.159513876E+01  9.940195780E+01  9.751539508E+02  9.802756879E+02  1.078959322E-05  0.00000E+00  9.000E+00
#rwgt            1           1   3.0474627953491658E-002           7       31152           0
</event>
<event>
      5   9999  3.19816E-02  1.91090E+01 -1.00000E+00  1.68019E-01
      21    -1     0     0   502   501  0.000000000E+00  0.000000000E+00  1.049628535E+02  1.049628535E+02  0.000000000E+00  0.00000E+00  9.000E+00
      21    -1     0     0   501   511  0.000000000E+00  0.000000000E+00 -2.728397532E+03  2.728397532E+03  0.000000000E+00  0.00000E+00  9.000E+00
      25     1     1     2     0     0 -1.491468940E+02 -4.032920229E+01 -1.689937767E+02  2.608737953E+02  1.250000000E+02  0.00000E+00  9.000E+00
      25     1     1     2     0     0  1.479254183E+02  2.125925563E+01 -1.019022137E+02  2.198702947E+02  1.250000000E+02  0.00000E+00  9.000E+00
      21     1     1     2   502   511  1.221475657E+00  1.906994666E+01 -2.352538688E+03  2.352616295E+03  0.000000000E+00  0.00000E+00  9.000E+00
#rwgt            1           1   2.7705150982949556E-002           7       31211           0
</event>
<event>
      5   9999  3.19816E-02  1.17621E+02 -1.00000E+00  1.20739E-01
      21    -1     0     0   502   501  0.000000000E+00  0.000000000E+00  4.437419183E+02  4.437419183E+02  0.000000000E+00  0.00000E+00  9.000E+00
      21    -1     0     0   512   502  0.000000000E+00  0.000000000E+00 -4.207783072E+02  4.207783072E+02  0.000000000E+00  0.00000E+00  9.000E+00
      25     1     1     2     0     0 -8.929304245E+01 -2.720920425E+02  2.325329370E+02  3.894918405E+02  1.250000000E+02  0.00000E+00  9.000E+00
      25     1     1     2     0     0  7.116243610E+01  1.558764705E+02  2.406045413E+01  2.134607032E+02  1.250000000E+02  0.00000E+00  9.000E+00
      21     1     1     2   512   501  1.813060635E+01  1.162155720E+02 -2.336297800E+02  2.615676819E+02  0.000000000E+00  0.00000E+00  9.000E+00
#rwgt            1           1   2.9820174198998378E-002           7       31399           0
</event>
<event>
      5   9999  3.19816E-02  3.74902E+01 -1.00000E+00  1.46607E-01
      21    -1     0     0   502   501  0.000000000E+00  0.000000000E+00  2.485081815E+03  2.485081815E+03  0.000000000E+00  0.00000E+00  9.000E+00
      21    -1     0     0   501   511  0.000000000E+00  0.000000000E+00 -4.231761069E+02  4.231761069E+02  0.000000000E+00  0.00000E+00  9.000E+00
      25     1     1     2     0     0 -3.578728517E+02 -1.418918722E+02  2.122066094E+03  2.160323075E+03  1.250000000E+02  0.00000E+00  9.000E+00
      25     1     1     2     0     0  3.416444037E+02  1.756876741E+02  2.235748989E+02  4.617334651E+02  1.250000000E+02  0.00000E+00  9.000E+00
      21     1     1     2   502   511  1.622844796E+01 -3.379580193E+01 -2.837352850E+02  2.862013814E+02  3.814697266E-06  0.00000E+00  9.000E+00
#rwgt            1           1   2.6112235475049751E-002           7       31454           0
</event>
<event>
      5   9999  3.19816E-02  1.66999E+02  7.55638E-03  1.14575E-01
       2    -1     0     0   501     0  0.000000000E+00  0.000000000E+00  4.026880055E+02  4.026880055E+02  0.000000000E+00  0.00000E+00  9.000E+00
      -2    -1     0     0     0   502  0.000000000E+00  0.000000000E+00 -7.042783375E+02  7.042783375E+02  0.000000000E+00  0.00000E+00  9.000E+00
      25     1     1     2     0     0  2.046285898E+01  2.891442270E+02 -5.561720967E+02  6.395119340E+02  1.250000000E+02  0.00000E+00  9.000E+00
      25     1     1     2     0     0  8.198690986E+01 -1.572622882E+02  9.637942700E+01  2.374179324E+02  1.250000000E+02  0.00000E+00  9.000E+00
      21     1     1     2   501   502 -1.024497688E+02 -1.318819389E+02  1.582023377E+02  2.300364766E+02  3.814697266E-06  0.00000E+00  9.000E+00
#rwgt            3           7   2.9572750781316294E-006           7       31640           0
</event>
<event>
      5   9999  3.19816E-02  2.51645E+00 -1.00000E+00  3.22134E-01
      21    -1     0     0   502   501  0.000000000E+00  0.000000000E+00  4.016310214E+02  4.016310214E+02  0.000000000E+00  0.00000E+00  9.000E+00
      21    -1     0     0   501   511  0.000000000E+00  0.000000000E+00 -5.310380775E+02  5.310380775E+02  0.000000000E+00  0.00000E+00  9.000E+00
      25     1     1     2     0     0  4.511315479E+00 -3.262804901E+02  1.880494295E+02  3.968209900E+02  1.250000000E+02  0.00000E+00  9.000E+00
      25     1     1     2     0     0 -6.666175119E+00  3.275801470E+02 -1.723975178E+02  3.907673154E+02  1.250000000E+02  0.00000E+00  9.000E+00
      21     1     1     2   502   511  2.154859640E+00 -1.299656915E+00 -1.450589678E+02  1.450807935E+02  2.697398305E-06  0.00000E+00  9.000E+00
#rwgt            1           1   3.1531032843277670E-002           7       31659           0
</event>
<event>
      5   9999  3.19816E-02  4.63764E+01 -1.00000E+00  1.40966E-01
      21    -1     0     0   502   512  0.000000000E+00  0.000000000E+00  4.626393725E+02  4.626393725E+02  0.000000000E+00  0.00000E+00  9.000E+00
      21    -1     0     0   501   502  0.000000000E+00  0.000000000E+00 -8.233600222E+02  8.233600222E+02  0.000000000E+00  0.00000E+00  9.000E+00
      25     1     1     2     0     0  3.348270327E+01 -8.723054613E+01 -6.485069707E+02  6.670206523E+02  1.250000000E+02  0.00000E+00  9.000E+00
      25     1     1     2     0     0 -7.253523391E+01  6.221709848E+01 -1.266325044E+02  2.019730642E+02  1.250000000E+02  0.00000E+00  9.000E+00
      21     1     1     2   501   512  3.905253064E+01  2.501344765E+01  4.144188254E+02  4.170056781E+02  9.344061824E-06  0.00000E+00  9.000E+00
#rwgt            1           1   3.7718214581678941E-002           7       32363           0
</event>
<event>
      5   9999  3.19816E-02  5.76767E+01 -1.00000E+00  1.35626E-01
      21    -1     0     0   502   501  0.000000000E+00  0.000000000E+00  7.932552910E+02  7.932552910E+02  0.000000000E+00  0.00000E+00  9.000E+00
      21    -1     0     0   501   511  0.000000000E+00  0.000000000E+00 -1.087149569E+02  1.087149569E+02  0.000000000E+00  0.00000E+00  9.000E+00
      25     1     1     2     0     0  2.131476916E+02  3.153198955E+00  3.750027705E+02  4.491035059E+02  1.250000000E+02  0.00000E+00  9.000E+00
      25     1     1     2     0     0 -2.251382645E+02  5.326335428E+01  2.911652296E+02  3.923345690E+02  1.250000000E+02  0.00000E+00  9.000E+00
      21     1     1     2   502   511  1.199057291E+01 -5.641655323E+01  1.837233398E+01  6.053217304E+01  2.384185791E-07  0.00000E+00  9.000E+00
#rwgt            1           1   3.2097672153874095E-002           7       32477           0
</event>
<event>
      5   9999  3.19816E-02  1.58056E+01 -1.00000E+00  1.75270E-01
      21    -1     0     0   502   501  0.000000000E+00  0.000000000E+00  1.660047749E+03  1.660047749E+03  0.000000000E+00  0.00000E+00  9.000E+00
      21    -1     0     0   501   512  0.000000000E+00  0.000000000E+00 -1.552232886E+02  1.552232886E+02  0.000000000E+00  0.00000E+00  9.000E+00
      25     1     1     2     0     0 -4.386304707E+01  1.904663611E+02  1.594961733E+02  2.815411709E+02  1.250000000E+02  0.00000E+00  9.000E+00
      25     1     1     2     0     0  3.212036768E+01 -2.010459330E+02  1.428870665E+03  1.448705478E+03  1.250000000E+02  0.00000E+00  9.000E+00
      21     1     1     2   502   512  1.174267939E+01  1.057957193E+01 -8.354237752E+01  8.502438888E+01  1.907348633E-06  0.00000E+00  9.000E+00
#rwgt            1           1   2.4715527009229878E-002           7       32521           0
</event>
<event>
      5   9999  3.19816E-02  1.70937E+02 -1.00000E+00  1.14188E-01
      21    -1     0     0   502   501  0.000000000E+00  0.000000000E+00  3.208393191E+02  3.208393191E+02  0.000000000E+00  0.00000E+00  9.000E+00
      -1    -1     0     0     0   502  0.000000000E+00  0.000000000E+00 -1.357268591E+03  1.357268591E+03  0.000000000E+00  0.00000E+00  9.000E+00
      25     1     1     2     0     0 -1.268102742E+02  3.140844110E+02  4.303531357E+01  3.636026692E+02  1.250000000E+02  0.00000E+00  9.000E+00
      25     1     1     2     0     0 -1.788241946E+01 -4.050981506E+02 -3.079790539E+02  5.243094412E+02  1.250000000E+02  0.00000E+00  9.000E+00
      -1     1     1     2     0   501  1.446926936E+02  9.101373959E+01 -7.714855312E+02  7.901957993E+02  1.078959322E-05  0.00000E+00  9.000E+00
#rwgt            1           1   3.3589740844467184E-002           7       32676           0
</event>
<event>
      5   9999  3.19816E-02  1.36915E+01 -1.00000E+00  1.81201E-01
      21    -1     0     0   511   501  0.000000000E+00  0.000000000E+00  4.525286924E+02  4.525286924E+02  0.000000000E+00  0.00000E+00  9.000E+00
      21    -1     0     0   501   502  0.000000000E+00  0.000000000E+00 -3.686512777E+02  3.686512777E+02  0.000000000E+00  0.00000E+00  9.000E+00
      25     1     1     2     0     0 -2.142379828E+02 -3.234248266E+01 -2.466134041E+02  3.512650289E+02  1.250000000E+02  0.00000E+00  9.000E+00
      25     1     1     2     0     0  2.038358293E+02  4.124490585E+01  1.424302809E+02  2.813566642E+02  1.250000000E+02  0.00000E+00  9.000E+00
      21     1     1     2   511   502  1.040215354E+01 -8.902423192E+00  1.880605379E+02  1.885582771E+02  0.000000000E+00  0.00000E+00  9.000E+00
#rwgt            1           1   2.9576615512685860E-002           7       32731           0
</event>
<event>
      5   9999  3.19816E-02  1.01035E+02 -1.00000E+00  1.23627E-01
      -1    -1     0     0     0   501  0.000000000E+00  0.000000000E+00  4.683914754E+02  4.683914754E+02  0.000000000E+00  0.00000E+00  9.000E+00
      21    -1     0     0   501   502  0.000000000E+00  0.000000000E+00 -1.877445644E+03  1.877445644E+03  0.000000000E+00  0.00000E+00  9.000E+00
      25     1     1     2     0     0 -4.195597649E+01 -9.902770033E+01 -1.529317067E+02  2.248997472E+02  1.250000000E+02  0.00000E+00  9.000E+00
      25     1     1     2     0     0  2.420078931E+01 -4.345700973E-01 -1.680186413E+03  1.685003635E+03  1.250000000E+02  0.00000E+00  9.000E+00
      -1     1     1     2     0   502  1.775518719E+01  9.946227043E+01  4.240639504E+02  4.359337380E+02  7.629394531E-06  0.00000E+00  9.000E+00
#rwgt            1           1   2.6430742297788551E-002           7       32907           0
</event>
<event>
      5   9999  3.19816E-02  1.90422E+02 -1.00000E+00  1.12429E-01
      21    -1     0     0   511   501  0.000000000E+00  0.000000000E+00  2.427234481E+02  2.427234481E+02  0.000000000E+00  0.00000E+00  9.000E+00
      21    -1     0     0   501   502  0.000000000E+00  0.000000000E+00 -1.142026579E+03  1.142026579E+03  0.000000000E+00  0.00000E+00  9.000E+00
      25     1     1     2     0     0  1.898836021E+02 -9.695513274E+00 -8.437394203E+02  8.738827122E+02  1.250000000E+02  0.00000E+00  9.000E+00
      25     1     1     2     0     0 -1.127056945E+02  1.837762377E+02  9.644527249E+01  2.672133412E+02  1.250000000E+02  0.00000E+00  9.000E+00
      21     1     1     2   511   502 -7.717790758E+01 -1.740807244E+02 -1.520089835E+02  2.436539741E+02  2.697398305E-06  0.00000E+00  9.000E+00
#rwgt            1           1   2.9462591161604160E-002           7       32989           0
</event>
<event>
      5   9999  3.19816E-02  6.51505E+01 -1.00000E+00  1.32820E-01
      21    -1     0     0   502   501  0.000000000E+00  0.000000000E+00  1.608105769E+02  1.608105769E+02  0.000000000E+00  0.00000E+00  9.000E+00
       1    -1     0     0   501     0  0.000000000E+00  0.000000000E+00 -1.092212380E+03  1.092212380E+03  0.000000000E+00  0.00000E+00  9.000E+00
      25     1     1     2     0     0  6.451736485E+01 -4.351294347E+01  9.631458687E+01  1.759470553E+02  1.250000000E+02  0.00000E+00  9.000E+00
      25     1     1     2     0     0 -8.116328433E+01  1.065010457E+02 -3.393537424E+02  3.856370236E+02  1.250000000E+02  0.00000E+00  9.000E+00
       1     1     1     2   502     0  1.664591948E+01 -6.298810222E+01 -6.883626473E+02  6.914388778E+02  7.629394531E-06  0.00000E+00  9.000E+00
#rwgt            1           1   2.7699355847022458E-002           7       33082           0
</event>
<event>
      5   9999  3.19816E-02  2.32734E+02 -1.00000E+00  1.09303E-01
      21    -1     0     0   502   501  0.000000000E+00  0.000000000E+00  4.156780281E+02  4.156780281E+02  0.000000000E+00  0.00000E+00  9.000E+00
       2    -1     0     0   501     0  0.000000000E+00  0.000000000E+00 -3.286101584E+03  3.286101584E+03  0.000000000E+00  0.00000E+00  9.000E+00
      25     1     1     2     0     0 -4.029771397E+02  3.672733167E+02 -5.821155811E+02  8.073189048E+02  1.250000000E+02  0.00000E+00  9.000E+00
      25     1     1     2     0     0  6.236450148E+02 -2.933082347E+02 -1.162880904E+02  7.100075669E+02  1.250000000E+02  0.00000E+00  9.000E+00
       2     1     1     2   502     0 -2.206678751E+02 -7.396508194E+01 -2.172019884E+03  2.184453140E+03  0.000000000E+00  0.00000E+00  9.000E+00
#rwgt            1           1   2.4586044086518759E-002           7       33150           0
</event>
<event>
      5   9999  3.88325E-02  3.34689E+01 -1.00000E+00  1.49811E-01
      21    -1     0     0   511   501  0.000000000E+00  0.000000000E+00  1.373187234E+02  1.373187234E+02  0.000000000E+00  0.00000E+00  9.000E+00
      21    -1     0     0   501   502  0.000000000E+00  0.000000000E+00 -1.099154947E+03  1.099154947E+03  0.000000000E+00  0.00000E+00  9.000E+00
      25     1     1     2     0     0  4.899465341E+01  5.307653817E+01 -3.022058912E+02  3.349193868E+02  1.250000000E+02  0.00000E+00  9.000E+00
      25     1     1     2     0     0 -2.026646997E+01 -7.024793352E+01 -7.714032603E+02  7.848780109E+02  1.250000000E+02  0.00000E+00  9.000E+00
      21     1     1     2   511   502 -2.872818344E+01  1.717139535E+01  1.117729276E+02  1.166762731E+02  0.000000000E+00  0.00000E+00  9.000E+00
#rwgt            1           1  0.10394385803318570                7       33248           0
</event>
<event>
      5   9999  3.19816E-02  3.49150E+02 -1.00000E+00  1.03494E-01
      21    -1     0     0   502   501  0.000000000E+00  0.000000000E+00  6.136003878E+02  6.136003878E+02  0.000000000E+00  0.00000E+00  9.000E+00
      -2    -1     0     0     0   502  0.000000000E+00  0.000000000E+00 -3.960801277E+02  3.960801277E+02  0.000000000E+00  0.00000E+00  9.000E+00
      25     1     1     2     0     0  1.166031469E+02  2.081541579E+01  1.833721777E+02  2.515550257E+02  1.250000000E+02  0.00000E+00  9.000E+00
      25     1     1     2     0     0 -1.737705349E+02  3.236227545E+02  1.047639967E+02  4.019059356E+02  1.250000000E+02  0.00000E+00  9.000E+00
      -2     1     1     2     0   501  5.716738804E+01 -3.444381703E+02 -7.061591432E+01  3.562195542E+02  3.015782986E-06  0.00000E+00  9.000E+00
#rwgt            2           9   1.0015242548507562E-004           7       33391           0
</event>
<event>
      5   9999  3.19816E-02  1.60553E+02 -1.00000E+00  1.15235E-01
      21    -1     0     0   502   501  0.000000000E+00  0.000000000E+00  1.202844066E+02  1.202844066E+02  0.000000000E+00  0.00000E+00  9.000E+00
       2    -1     0     0   501     0  0.000000000E+00  0.000000000E+00 -1.945561622E+03  1.945561622E+03  0.000000000E+00  0.00000E+00  9.000E+00
      25     1     1     2     0     0 -1.612325535E+01  4.162461351E+02 -1.045549869E+03  1.132395837E+03  1.250000000E+02  0.00000E+00  9.000E+00
      25     1     1     2     0     0 -6.542859176E+01 -2.779476531E+02 -3.210055707E+02  4.474431527E+02  1.250000000E+02  0.00000E+00  9.000E+00
       2     1     1     2   502     0  8.155184711E+01 -1.382984820E+02 -4.587217755E+02  4.860070382E+02  5.394796609E-06  0.00000E+00  9.000E+00
#rwgt            1           1   2.8405122087415430E-002           7       33440           0
</event>
<event>
      5   9999  3.19816E-02  6.28997E+01 -1.00000E+00  1.33617E-01
      21    -1     0     0   502   501  0.000000000E+00  0.000000000E+00  2.569451464E+03  2.569451464E+03  0.000000000E+00  0.00000E+00  9.000E+00
      21    -1     0     0   501   511  0.000000000E+00  0.000000000E+00 -4.622898824E+02  4.622898824E+02  0.000000000E+00  0.00000E+00  9.000E+00
      25     1     1     2     0     0  1.235216757E+01  1.139670459E+02  2.535591683E+03  2.541257808E+03  1.250000000E+02  0.00000E+00  9.000E+00
      25     1     1     2     0     0 -3.702427055E+01 -5.610811677E+01 -3.939855295E+02  4.187702411E+02  1.250000000E+02  0.00000E+00  9.000E+00
      21     1     1     2   502   511  2.467210298E+01 -5.785892916E+01 -3.444457248E+01  7.171329669E+01  1.581489940E-06  0.00000E+00  9.000E+00
#rwgt            1           1   2.1963019106323544E-002           7       33495           0
</event>
<event>
      5   9999  3.19816E-02  5.96420E+01 -1.00000E+00  1.34842E-01
      21    -1     0     0   502   501  0.000000000E+00  0.000000000E+00  1.190487263E+02  1.190487263E+02  0.000000000E+00  0.00000E+00  9.000E+00
       2    -1     0     0   501     0  0.000000000E+00  0.000000000E+00 -1.314338678E+03  1.314338678E+03  0.000000000E+00  0.00000E+00  9.000E+00
      25     1     1     2     0     0  2.869481098E+02 -1.449884066E+02 -7.000116726E+02  7.803859286E+02  1.250000000E+02  0.00000E+00  9.000E+00
      25     1     1     2     0     0 -2.354518662E+02  1.149000329E+02 -2.018294529E+02  3.535530044E+02  1.250000000E+02  0.00000E+00  9.000E+00
       2     1     1     2   502     0 -5.149624356E+01  3.008837377E+01 -2.934488263E+02  2.994484714E+02  3.814697266E-06  0.00000E+00  9.000E+00
#rwgt            1           1   2.5676965139010917E-002           7       33647           0
</event>
<event>
      5   9999  3.19816E-02  4.85733E+00 -1.00000E+00  2.45061E-01
      21    -1     0     0   502   511  0.000000000E+00  0.000000000E+00  5.910755461E+02  5.910755461E+02  0.000000000E+00  0.00000E+00  9.000E+00
      21    -1     0     0   501   502  0.000000000E+00  0.000000000E+00 -6.124381042E+01  6.124381042E+01  0.000000000E+00  0.00000E+00  9.000E+00
      25     1     1     2     0     0  7.861654784E+01  7.214416451E+01  1.025782752E+02  1.937334370E+02  1.250000000E+02  0.00000E+00  9.000E+00
      25     1     1     2     0     0 -7.433603025E+01 -6.984833287E+01  4.083003664E+02  4.390203004E+02  1.250000000E+02  0.00000E+00  9.000E+00
      21     1     1     2   501   511 -4.280517589E+00 -2.295831647E+00  1.895309408E+01  1.956561906E+01  4.129530925E-07  0.00000E+00  9.000E+00
#rwgt            1           1   2.7951172011243770E-002           7       33740           0
</event>
<event>
      5   9999  3.19816E-02  8.89066E+01 -1.00000E+00  1.26169E-01
      21    -1     0     0   502   501  0.000000000E+00  0.000000000E+00  6.579426870E+02  6.579426870E+02  0.000000000E+00  0.00000E+00  9.000E+00
      21    -1     0     0   512   502  0.000000000E+00  0.000000000E+00 -1.733656607E+03  1.733656607E+03  0.000000000E+00  0.00000E+00  9.000E+00
      25     1     1     2     0     0 -7.965987199E+02  1.208596042E+02 -6.645463405E+02  1.051866628E+03  1.250000000E+02  0.00000E+00  9.000E+00
      25     1     1     2     0     0  7.095006086E+02 -1.387006001E+02  1.689351233E+02  7.528565905E+02  1.250000000E+02  0.00000E+00  9.000E+00
      21     1     1     2   512   501  8.709811136E+01  1.784099581E+01 -5.801027025E+02  5.868760751E+02  7.629394531E-06  0.00000E+00  9.000E+00
#rwgt            1           1   3.3749116506701239E-002           7       34058           0
</event>
<event>
      5   9999  3.19816E-02  1.24295E+02 -1.00000E+00  1.19724E-01
      21    -1     0     0   502   511  0.000000000E+00  0.000000000E+00  5.882210227E+02  5.882210227E+02  0.000000000E+00  0.00000E+00  9.000E+00
      21    -1     0     0   501   502  0.000000000E+00  0.000000000E+00 -2.209439520E+03  2.209439520E+03  0.000000000E+00  0.00000E+00  9.000E+00
      25     1     1     2     0     0  6.208446488E+02 -2.543929654E+02 -1.854411825E+03  1.976014189E+03  1.250000000E+02  0.00000E+00  9.000E+00
      25     1     1     2     0     0 -6.233153565E+02  1.301222905E+02  2.516402592E+02  6.959897012E+02  1.250000000E+02  0.00000E+00  9.000E+00
      21     1     1     2   501   511  2.470707730E+00  1.242706748E+02 -1.844693153E+01  1.256566524E+02  2.861022949E-06  0.00000E+00  9.000E+00
#rwgt            1           1   2.5859283214200727E-002           7       34125           0
</event>
<event>
      5   9999  3.30884E-02  7.18242E+01 -1.00000E+00  1.30657E-01
      21    -1     0     0   512   501  0.000000000E+00  0.000000000E+00  5.181871993E+02  5.181871993E+02  0.000000000E+00  0.00000E+00  9.000E+00
      21    -1     0     0   501   502  0.000000000E+00  0.000000000E+00 -6.235520411E+02  6.235520411E+02  0.000000000E+00  0.00000E+00  9.000E+00
      25     1     1     2     0     0 -8.747096597E+01 -6.157607998E+01  3.952567155E+02  4.281304178E+02  1.250000000E+02  0.00000E+00  9.000E+00
      25     1     1     2     0     0  1.592043941E+02  5.796591414E+01 -5.737165392E+02  6.111315355E+02  1.250000000E+02  0.00000E+00  9.000E+00
      21     1     1     2   512   502 -7.173342813E+01  3.610165838E+00  7.309498183E+01  1.024772871E+02  1.348699152E-06  0.00000E+00  9.000E+00
#rwgt            1           1   3.4844672830629739E-002           7       34215           0
</event>
<event>
      5   9999  3.19816E-02  2.52161E+01 -1.00000E+00  1.58471E-01
      21    -1     0     0   502   511  0.000000000E+00  0.000000000E+00  1.211912914E+03  1.211912914E+03  0.000000000E+00  0.00000E+00  9.000E+00
      21    -1     0     0   501   502  0.000000000E+00  0.000000000E+00 -1.626931602E+02  1.626931602E+02  0.000000000E+00  0.00000E+00  9.000E+00
      25     1     1     2     0     0 -1.137594299E+02  1.152392008E+02 -7.594722432E+01  2.182069251E+02  1.250000000E+02  0.00000E+00  9.000E+00
      25     1     1     2     0     0  1.387932507E+02 -1.122125384E+02  7.671618142E+02  7.975070341E+02  1.250000000E+02  0.00000E+00  9.000E+00
      21     1     1     2   501   511 -2.503382083E+01 -3.026662389E+00  3.580051641E+02  3.588921152E+02  5.394796609E-06  0.00000E+00  9.000E+00
#rwgt            1           1   2.8396600883544763E-002           7       34338           0
</event>
<event>
      5   9999  3.19816E-02  7.23401E+00 -1.00000E+00  2.13555E-01
      21    -1     0     0   502   501  0.000000000E+00  0.000000000E+00  2.867309580E+02  2.867309580E+02  0.000000000E+00  0.00000E+00  9.000E+00
      21    -1     0     0   501   512  0.000000000E+00  0.000000000E+00 -1.129129946E+03  1.129129946E+03  0.000000000E+00  0.00000E+00  9.000E+00
      25     1     1     2     0     0 -1.951667204E+02  4.202796386E+01  2.219210561E+02  3.236206941E+02  1.250000000E+02  0.00000E+00  9.000E+00
      25     1     1     2     0     0  1.947448598E+02 -3.480626053E+01 -9.775715863E+02  1.005190650E+03  1.250000000E+02  0.00000E+00  9.000E+00
      21     1     1     2   502   512  4.218605910E-01 -7.221703322E+00 -8.674845829E+01  8.704956048E+01  1.348699152E-06  0.00000E+00  9.000E+00
#rwgt            1           1   3.0083899623781288E-002           7       34556           0
</event>
<event>
      5   9999  3.19816E-02  7.72773E+01 -1.00000E+00  1.29082E-01
      21    -1     0     0   502   501  0.000000000E+00  0.000000000E+00  2.718964927E+02  2.718964927E+02  0.000000000E+00  0.00000E+00  9.000E+00
      21    -1     0     0   501   511  0.000000000E+00  0.000000000E+00 -3.354006198E+02  3.354006198E+02  0.000000000E+00  0.00000E+00  9.000E+00
      25     1     1     2     0     0 -1.418262421E+02 -3.185742811E+01  1.494309219E+02  2.430723742E+02  1.250000000E+02  0.00000E+00  9.000E+00
      25     1     1     2     0     0  1.242928226E+02 -4.340451519E+01 -5.714904826E+01  1.903251728E+02  1.250000000E+02  0.00000E+00  9.000E+00
      21     1     1     2   502   511  1.753341949E+01  7.526194330E+01 -1.557860007E+02  1.738995656E+02  3.303624740E-06  0.00000E+00  9.000E+00
#rwgt            1           1   2.7229488875521696E-002           7       34863           0
</event>
<event>
      5   9999  3.19816E-02  1.38908E+02 -1.00000E+00  1.17731E-01
      21    -1     0     0   512   501  0.000000000E+00  0.000000000E+00  1.256165997E+03  1.256165997E+03  0.000000000E+00  0.00000E+00  9.000E+00
      21    -1     0     0   501   502  0.000000000E+00  0.000000000E+00 -7.058990238E+02  7.058990238E+02  0.000000000E+00  0.00000E+00  9.000E+00
      25     1     1     2     0     0  3.808669591E+02  1.382094705E+02 -4.596122100E+02  6.253238216E+02  1.250000000E+02  0.00000E+00  9.000E+00
      25     1     1     2     0     0 -3.227804528E+02 -1.202950331E+01  3.064201130E+01  3.477008233E+02  1.250000000E+02  0.00000E+00  9.000E+00
      21     1     1     2   512   502 -5.808650630E+01 -1.261799672E+02  9.792371720E+02  9.890403760E+02  1.078959322E-05  0.00000E+00  9.000E+00
#rwgt            1           1   2.6975418148135605E-002           7       34921           0
</event>
<event>
      5   9999  3.19816E-02  1.01153E+02 -1.00000E+00  1.23604E-01
      21    -1     0     0   502   501  0.000000000E+00  0.000000000E+00  4.229852612E+02  4.229852612E+02  0.000000000E+00  0.00000E+00  9.000E+00
       2    -1     0     0   501     0  0.000000000E+00  0.000000000E+00 -1.590712290E+03  1.590712290E+03  0.000000000E+00  0.00000E+00  9.000E+00
      25     1     1     2     0     0 -1.860932480E+02  1.721805482E+01  3.588568582E+02  4.234742059E+02  1.250000000E+02  0.00000E+00  9.000E+00
      25     1     1     2     0     0  2.859147296E+02 -3.357459730E+01 -8.494189582E+02  9.055451688E+02  1.250000000E+02  0.00000E+00  9.000E+00
       2     1     1     2   502     0 -9.982148159E+01  1.635654248E+01 -6.771649292E+02  6.846781770E+02  1.321449896E-05  0.00000E+00  9.000E+00
#rwgt            1           1   3.2357582111569319E-002           7       34971           0
</event>
<event>
      5   9999  3.19816E-02  2.26626E+02 -1.00000E+00  1.09707E-01
      21    -1     0     0   502   501  0.000000000E+00  0.000000000E+00  3.497507754E+03  3.497507754E+03  0.000000000E+00  0.00000E+00  9.000E+00
       4    -1     0     0   501     0  0.000000000E+00  0.000000000E+00 -4.154470703E+01  4.154470703E+01  0.000000000E+00  0.00000E+00  9.000E+00
      25     1     1     2     0     0  6.769177148E+01  9.325387814E+01  1.474127273E+03  1.483898473E+03  1.250000000E+02  0.00000E+00  9.000E+00
      25     1     1     2     0     0 -2.844982130E+02 -2.726772072E+01  1.288393291E+03  1.325618736E+03  1.250000000E+02  0.00000E+00  9.000E+00
       4     1     1     2   502     0  2.168064415E+02 -6.598615742E+01  6.934424833E+02  7.295352518E+02  1.078959322E-05  0.00000E+00  9.000E+00
#rwgt            1           1   4.4627499786022755E-002           7       35030           0
</event>
<event>
      5   9999  3.19816E-02  6.54203E+01 -1.00000E+00  1.32726E-01
      21    -1     0     0   502   501  0.000000000E+00  0.000000000E+00  4.786863058E+02  4.786863058E+02  0.000000000E+00  0.00000E+00  9.000E+00
      21    -1     0     0   511   502  0.000000000E+00  0.000000000E+00 -5.250220334E+02  5.250220334E+02  0.000000000E+00  0.00000E+00  9.000E+00
      25     1     1     2     0     0 -1.022000647E+02 -3.140207195E+02  2.994934325E+02  4.630066756E+02  1.250000000E+02  0.00000E+00  9.000E+00
      25     1     1     2     0     0  1.132370444E+02  2.495382077E+02 -1.545206904E+02  3.385167486E+02  1.250000000E+02  0.00000E+00  9.000E+00
      21     1     1     2   511   501 -1.103697966E+01  6.448251183E+01 -1.913084697E+02  2.021849150E+02  2.697398305E-06  0.00000E+00  9.000E+00
#rwgt            1           1   2.9683866929514774E-002           7       35073           0
</event>
<event>
      5   9999  3.19816E-02  6.94985E+01 -1.00000E+00  1.31379E-01
      21    -1     0     0   502   501  0.000000000E+00  0.000000000E+00  7.201650277E+02  7.201650277E+02  0.000000000E+00  0.00000E+00  9.000E+00
       2    -1     0     0   501     0  0.000000000E+00  0.000000000E+00 -6.501778957E+02  6.501778957E+02  0.000000000E+00  0.00000E+00  9.000E+00
      25     1     1     2     0     0  1.878816893E+02 -2.171528282E+02  2.786412590E+02  4.191906859E+02  1.250000000E+02  0.00000E+00  9.000E+00
      25     1     1     2     0     0 -1.368801698E+02  2.643639780E+02  2.982247807E+02  4.395310155E+02  1.250000000E+02  0.00000E+00  9.000E+00
       2     1     1     2   502     0 -5.100151951E+01 -4.721114988E+01 -5.068789077E+02  5.116212220E+02  5.394796609E-06  0.00000E+00  9.000E+00
#rwgt            1           1   3.2345298260428895E-002           7       35139           0
</event>
<event>
      5   9999  3.19816E-02  4.93868E+01 -1.00000E+00  1.39382E-01
       2    -1     0     0   502     0  0.000000000E+00  0.000000000E+00  3.180168510E+03  3.180168510E+03  0.000000000E+00  0.00000E+00  9.000E+00
      21    -1     0     0   501   502  0.000000000E+00  0.000000000E+00 -3.845935087E+01  3.845935087E+01  0.000000000E+00  0.00000E+00  9.000E+00
      25     1     1     2     0     0  6.905361607E+01 -2.212124498E+02  7.662088422E+02  8.101878422E+02  1.250000000E+02  0.00000E+00  9.000E+00
      25     1     1     2     0     0 -2.557770212E+01  1.977837674E+02  8.456727554E+02  8.778154969E+02  1.250000000E+02  0.00000E+00  9.000E+00
       2     1     1     2   501     0 -4.347591395E+01  2.342868240E+01  1.529827561E+03  1.530624521E+03  2.157918644E-05  0.00000E+00  9.000E+00
#rwgt            1           1   3.5297902802002935E-002           7       35216           0
</event>
<event>
      5   9999  3.19816E-02  9.34930E+01 -1.00000E+00  1.25157E-01
      21    -1     0     0   502   501  0.000000000E+00  0.000000000E+00  2.052988039E+02  2.052988039E+02  0.000000000E+00  0.00000E+00  9.000E+00
      21    -1     0     0   501   511  0.000000000E+00  0.000000000E+00 -4.856399562E+02  4.856399562E+02  0.000000000E+00  0.00000E+00  9.000E+00
      25     1     1     2     0     0  6.189595315E+01 -9.332799449E+01 -2.905987067E+02  3.355798443E+02  1.250000000E+02  0.00000E+00  9.000E+00
      25     1     1     2     0     0 -1.076300685E+02  1.748714749E+02  6.232935127E+01  2.483429331E+02  1.250000000E+02  0.00000E+00  9.000E+00
      21     1     1     2   502   511  4.573411533E+01 -8.154348043E+01 -5.207179686E+01  1.070159826E+02  1.348699152E-06  0.00000E+00  9.000E+00
#rwgt            1           1   2.4870376369906935E-002           7       35316           0
</event>
<event>
      5   9999  3.19816E-02  2.03937E+02 -1.00000E+00  1.11341E-01
      21    -1     0     0   502   501  0.000000000E+00  0.000000000E+00  7.877103600E+02  7.877103600E+02  0.000000000E+00  0.00000E+00  9.000E+00
      21    -1     0     0   501   512  0.000000000E+00  0.000000000E+00 -3.493396646E+02  3.493396646E+02  0.000000000E+00  0.00000E+00  9.000E+00
      25     1     1     2     0     0 -1.012753367E+02 -7.265551620E+01  4.524473350E+02  4.856635757E+02  1.250000000E+02  0.00000E+00  9.000E+00
      25     1     1     2     0     0  3.049978806E+02  6.329619928E+01  1.703757013E+02  3.764080174E+02  1.250000000E+02  0.00000E+00  9.000E+00
      21     1     1     2   502   512 -2.037225439E+02  9.359316923E+00 -1.844523409E+02  2.749784315E+02  0.000000000E+00  0.00000E+00  9.000E+00
#rwgt            2          11   4.6067725261359311E-003           7       35451           0
</event>
<event>
      5   9999  3.19816E-02  1.86188E+01 -1.00000E+00  1.68975E-01
      21    -1     0     0   502   501  0.000000000E+00  0.000000000E+00  6.533495699E+01  6.533495699E+01  0.000000000E+00  0.00000E+00  9.000E+00
      21    -1     0     0   511   502  0.000000000E+00  0.000000000E+00 -7.491191544E+02  7.491191544E+02  0.000000000E+00  0.00000E+00  9.000E+00
      25     1     1     2     0     0 -6.088263387E+01  1.089275198E+02 -1.376682195E+02  2.239407027E+02  1.250000000E+02  0.00000E+00  9.000E+00
      25     1     1     2     0     0  4.447313884E+01 -1.001305411E+02 -2.941910980E+02  3.379014464E+02  1.250000000E+02  0.00000E+00  9.000E+00
      21     1     1     2   511   501  1.640949503E+01 -8.796978648E+00 -2.519248799E+02  2.526119622E+02  3.814697266E-06  0.00000E+00  9.000E+00
#rwgt            1           1   3.1826467899324952E-002           7       35486           0
</event>
<event>
      5   9999  3.34575E-02  6.12482E+01 -1.00000E+00  1.34227E-01
      21    -1     0     0   502   512  0.000000000E+00  0.000000000E+00  1.157505789E+03  1.157505789E+03  0.000000000E+00  0.00000E+00  9.000E+00
      21    -1     0     0   501   502  0.000000000E+00  0.000000000E+00 -1.330935674E+03  1.330935674E+03  0.000000000E+00  0.00000E+00  9.000E+00
      25     1     1     2     0     0  6.713576925E+02 -2.788093322E+02 -1.074027284E+03  1.302925709E+03  1.250000000E+02  0.00000E+00  9.000E+00
      25     1     1     2     0     0 -6.227595097E+02  3.160861229E+02  8.210580896E+02  1.085127288E+03  1.250000000E+02  0.00000E+00  9.000E+00
      21     1     1     2   501   512 -4.859818278E+01 -3.727679072E+01  7.953930917E+01  1.003884665E+02  1.348699152E-06  0.00000E+00  9.000E+00
#rwgt            1           1   7.6814932274204870E-002           7       35583           0
</event>
<event>
      5   9999  3.19816E-02  8.82329E+01 -1.00000E+00  1.26324E-01
      21    -1     0     0   502   501  0.000000000E+00  0.000000000E+00  2.237349954E+02  2.237349954E+02  0.000000000E+00  0.00000E+00  9.000E+00
      21    -1     0     0   501   511  0.000000000E+00  0.000000000E+00 -4.121088861E+02  4.121088861E+02  0.000000000E+00  0.00000E+00  9.000E+00
      25     1     1     2     0     0 -1.719179197E+01  9.621076491E+01 -2.992515843E+02  3.387160754E+02  1.250000000E+02  0.00000E+00  9.000E+00
      25     1     1     2     0     0 -1.746038055E+01 -1.506726131E+01  1.533695933E+02  1.991961832E+02  1.250000000E+02  0.00000E+00  9.000E+00
      21     1     1     2   502   511  3.465217252E+01 -8.114350360E+01 -4.249189972E+01  9.793162298E+01  4.768371582E-07  0.00000E+00  9.000E+00
#rwgt            1           1   2.5954494852185109E-002           7       35730           0
</event>
<event>
      5   9999  3.19816E-02  1.16306E+02 -1.00000E+00  1.20948E-01
      21    -1     0     0   502   501  0.000000000E+00  0.000000000E+00  2.881199452E+03  2.881199452E+03  0.000000000E+00  0.00000E+00  9.000E+00
      21    -1     0     0   512   502  0.000000000E+00  0.000000000E+00 -4.089110098E+02  4.089110098E+02  0.000000000E+00  0.00000E+00  9.000E+00
      25     1     1     2     0     0 -3.377688393E+02  5.807431857E+02  2.254994642E+03  2.356263200E+03  1.250000000E+02  0.00000E+00  9.000E+00
      25     1     1     2     0     0  4.289934414E+02 -6.528897873E+02  2.020436457E+02  8.165458235E+02  1.250000000E+02  0.00000E+00  9.000E+00
      21     1     1     2   512   501 -9.122460217E+01  7.214660154E+01  1.525015529E+01  1.173014382E+02  2.078484985E-06  0.00000E+00  9.000E+00
#rwgt            1           1   3.3411867001499139E-002           7       35784           0
</event>
<event>
      5   9999  3.19816E-02  5.25550E+01 -1.00000E+00  1.37852E-01
      21    -1     0     0   502   501  0.000000000E+00  0.000000000E+00  3.118288518E+02  3.118288518E+02  0.000000000E+00  0.00000E+00  9.000E+00
      21    -1     0     0   511   502  0.000000000E+00  0.000000000E+00 -1.629027068E+02  1.629027068E+02  0.000000000E+00  0.00000E+00  9.000E+00
      25     1     1     2     0     0  3.331441993E+01  1.365982680E+02  1.535548563E+01  1.887583862E+02  1.250000000E+02  0.00000E+00  9.000E+00
      25     1     1     2     0     0  1.739695025E+01 -1.503963694E+02  1.249352417E+02  2.327134212E+02  1.250000000E+02  0.00000E+00  9.000E+00
      21     1     1     2   511   501 -5.071137018E+01  1.379810132E+01  8.635417624E+00  5.325975125E+01  5.840038640E-07  0.00000E+00  9.000E+00
#rwgt            1           1   2.4967833845241000E-002           7       35899           0
</event>
<event>
      5   9999  3.19816E-02  8.05709E+01 -1.00000E+00  1.28200E-01
       1    -1     0     0   502     0  0.000000000E+00  0.000000000E+00  3.770295687E+02  3.770295687E+02  0.000000000E+00  0.00000E+00  9.000E+00
      21    -1     0     0   501   502  0.000000000E+00  0.000000000E+00 -5.538225272E+02  5.538225272E+02  0.000000000E+00  0.00000E+00  9.000E+00
      25     1     1     2     0     0  1.179203779E+02 -1.448050387E+02 -1.415556414E+02  2.655874891E+02  1.250000000E+02  0.00000E+00  9.000E+00
      25     1     1     2     0     0 -9.098643096E+01  6.886931152E+01 -3.239610431E+02  3.655096033E+02  1.250000000E+02  0.00000E+00  9.000E+00
       1     1     1     2   501     0 -2.693394692E+01  7.593572716E+01  2.887237260E+02  2.997550035E+02  5.394796609E-06  0.00000E+00  9.000E+00
#rwgt            1           1   3.1603398614701655E-002           7       35963           0
</event>
<event>
      5   9999  3.19816E-02  4.66374E+01 -1.00000E+00  1.40823E-01
       2    -1     0     0   502     0  0.000000000E+00  0.000000000E+00  9.193059838E+02  9.193059838E+02  0.000000000E+00  0.00000E+00  9.000E+00
      21    -1     0     0   501   502  0.000000000E+00  0.000000000E+00 -7.108560780E+02  7.108560780E+02  0.000000000E+00  0.00000E+00  9.000E+00
      25     1     1     2     0     0 -7.024358377E+01 -3.158189787E+01  8.330301163E+02  8.458698197E+02  1.250000000E+02  0.00000E+00  9.000E+00
      25     1     1     2     0     0  4.168204164E+01  6.845037537E+01 -6.889688644E+02  7.047878706E+02  1.250000000E+02  0.00000E+00  9.000E+00
       2     1     1     2   501     0  2.856154212E+01 -3.686847750E+01  6.438865395E+01  7.950437145E+01  9.536743164E-07  0.00000E+00  9.000E+00
#rwgt            1           1   2.2318379380718040E-002           7       36045           0
</event>
<event>
      5   9999  3.19816E-02  5.64088E+01 -1.00000E+00  1.36152E-01
      21    -1     0     0   502   511  0.000000000E+00  0.000000000E+00  2.079737371E+03  2.079737371E+03  0.000000000E+00  0.00000E+00  9.000E+00
      21    -1     0     0   501   502  0.000000000E+00  0.000000000E+00 -8.905459054E+01  8.905459054E+01  0.000000000E+00  0.00000E+00  9.000E+00
      25     1     1     2     0     0  3.816032634E+01  1.321869224E+02  1.470279641E+03  1.481984081E+03  1.250000000E+02  0.00000E+00  9.000E+00
      25     1     1     2     0     0 -6.723140995E+00 -8.535038893E+01 -1.147894520E+01  1.519429357E+02  1.250000000E+02  0.00000E+00  9.000E+00
      21     1     1     2   501   511 -3.143718535E+01 -4.683653349E+01  5.318820848E+02  5.348649452E+02  7.629394531E-06  0.00000E+00  9.000E+00
#rwgt            1           1   2.9248406183283577E-002           7       36188           0
</event>
<event>
      5   9999  3.19816E-02  4.49121E+01 -1.00000E+00  1.41788E-01
       2    -1     0     0   502     0  0.000000000E+00  0.000000000E+00  1.999073921E+03  1.999073921E+03  0.000000000E+00  0.00000E+00  9.000E+00
      21    -1     0     0   501   502  0.000000000E+00  0.000000000E+00 -8.567409586E+02  8.567409586E+02  0.000000000E+00  0.00000E+00  9.000E+00
      25     1     1     2     0     0  1.581746494E+02  2.202145707E+02 -7.547406202E+02  8.116477565E+02  1.250000000E+02  0.00000E+00  9.000E+00
      25     1     1     2     0     0 -1.141238789E+02 -2.114609938E+02  1.771264993E+02  3.236337566E+02  1.250000000E+02  0.00000E+00  9.000E+00
       2     1     1     2   501     0 -4.405077051E+01 -8.753576828E+00  1.719947083E+03  1.720533366E+03  2.157918644E-05  0.00000E+00  9.000E+00
#rwgt            1           1   2.6351448630838662E-002           7       36298           0
</event>
<event>
      5   9999  3.19816E-02  1.53811E+02 -1.00000E+00  1.15963E-01
       2    -1     0     0   502     0  0.000000000E+00  0.000000000E+00  4.439059288E+03  4.439059288E+03  0.000000000E+00  0.00000E+00  9.000E+00
      21    -1     0     0   501   502  0.000000000E+00  0.000000000E+00 -5.365853294E+02  5.365853294E+02  0.000000000E+00  0.00000E+00  9.000E+00
      25     1     1     2     0     0  5.915962739E+02 -1.028973723E+02  4.125450802E+02  7.391836468E+02  1.250000000E+02  0.00000E+00  9.000E+00
      25     1     1     2     0     0 -4.456261923E+02  1.513799605E+02 -2.121700241E+02  5.311682547E+02  1.250000000E+02  0.00000E+00  9.000E+00
       2     1     1     2   501     0 -1.459700816E+02 -4.848258815E+01  3.702098903E+03  3.705292716E+03  4.315837288E-05  0.00000E+00  9.000E+00
#rwgt            1           1   3.1029553681398227E-002           7       36403           0
</event>
<event>
      5   9999  3.19816E-02  5.41158E+02 -1.00000E+00  9.78857E-02
      21    -1     0     0   502   501  0.000000000E+00  0.000000000E+00  5.244298001E+02  5.244298001E+02  0.000000000E+00  0.00000E+00  9.000E+00
      21    -1     0     0   501   511  0.000000000E+00  0.000000000E+00 -1.625717021E+03  1.625717021E+03  0.000000000E+00  0.00000E+00  9.000E+00
      25     1     1     2     0     0 -2.497393436E+02  4.920426238E+02 -5.274683100E+02  7.735137371E+02  1.250000000E+02  0.00000E+00  9.000E+00
      25     1     1     2     0     0 -2.898886065E+02 -5.327045013E+02 -4.637441350E+01  6.209549710E+02  1.250000000E+02  0.00000E+00  9.000E+00
      21     1     1     2   502   511  5.396279501E+02  4.066187740E+01 -5.274444976E+02  7.556781133E+02  0.000000000E+00  0.00000E+00  9.000E+00
#rwgt            2          11   1.7981475272371571E-003           7       36545           0
</event>
<event>
      5   9999  3.68046E-02  3.58808E+01 -1.00000E+00  1.47829E-01
      21    -1     0     0   512   501  0.000000000E+00  0.000000000E+00  2.100929706E+02  2.100929706E+02  0.000000000E+00  0.00000E+00  9.000E+00
      21    -1     0     0   501   502  0.000000000E+00  0.000000000E+00 -2.189602621E+03  2.189602621E+03  0.000000000E+00  0.00000E+00  9.000E+00
      25     1     1     2     0     0  2.255398114E+02 -2.158471840E+02 -8.134091167E+02  8.801804386E+02  1.250000000E+02  0.00000E+00  9.000E+00
      25     1     1     2     0     0 -2.011202562E+02  1.895581168E+02 -1.323635290E+03  1.357945882E+03  1.250000000E+02  0.00000E+00  9.000E+00
      21     1     1     2   512   502 -2.441955522E+01  2.628906717E+01  1.575347566E+02  1.615692708E+02  8.529922400E-06  0.00000E+00  9.000E+00
#rwgt            1           1  0.11361856640403989                7       36565           0
</event>
<event>
      5   9999  3.19816E-02  4.45201E+01 -1.00000E+00  1.42014E-01
      21    -1     0     0   502   511  0.000000000E+00  0.000000000E+00  3.565194735E+02  3.565194735E+02  0.000000000E+00  0.00000E+00  9.000E+00
      21    -1     0     0   501   502  0.000000000E+00  0.000000000E+00 -1.317360947E+03  1.317360947E+03  0.000000000E+00  0.00000E+00  9.000E+00
      25     1     1     2     0     0  7.483841719E+01 -6.395255023E+01  3.567763983E+01  1.630601464E+02  1.250000000E+02  0.00000E+00  9.000E+00
      25     1     1     2     0     0 -3.047020101E+01  6.762643209E+01 -1.247491046E+03  1.255930204E+03  1.250000000E+02  0.00000E+00  9.000E+00
      21     1     1     2   501   511 -4.436821618E+01 -3.673881861E+00  2.509719335E+02  2.548900693E+02  2.697398305E-06  0.00000E+00  9.000E+00
#rwgt            1           1   2.2962075420922694E-002           7       36644           0
</event>
<event>
      5   9999  3.19816E-02  5.26198E+01 -1.00000E+00  1.37822E-01
      21    -1     0     0   512   501  0.000000000E+00  0.000000000E+00  2.957987044E+02  2.957987044E+02  0.000000000E+00  0.00000E+00  9.000E+00
      21    -1     0     0   501   502  0.000000000E+00  0.000000000E+00 -5.405546358E+02  5.405546358E+02  0.000000000E+00  0.00000E+00  9.000E+00
      25     1     1     2     0     0 -6.274489904E+01 -2.722431095E+02  1.021170432E+02  3.226548056E+02  1.250000000E+02  0.00000E+00  9.000E+00
      25     1     1     2     0     0  1.155245583E+01  2.844160918E+02 -3.398759972E+02  4.606155295E+02  1.250000000E+02  0.00000E+00  9.000E+00
      21     1     1     2   512   502  5.119244321E+01 -1.217298228E+01 -6.996977407E+00  5.308300512E+01  3.153981341E-07  0.00000E+00  9.000E+00
#rwgt            1           1   2.6900786802333588E-002           7       36783           0
</event>
<event>
      5   9999  3.19816E-02  2.67593E+01 -1.00000E+00  1.56570E-01
      21    -1     0     0   502   501  0.000000000E+00  0.000000000E+00  4.607472962E+02  4.607472962E+02  0.000000000E+00  0.00000E+00  9.000E+00
       2    -1     0     0   501     0  0.000000000E+00  0.000000000E+00 -9.201581548E+02  9.201581548E+02  0.000000000E+00  0.00000E+00  9.000E+00
      25     1     1     2     0     0  2.672562076E+02  3.161221622E+01  2.442642837E+02  3.843374208E+02  1.250000000E+02  0.00000E+00  9.000E+00
      25     1     1     2     0     0 -2.730291986E+02 -5.483093044E+00 -8.062992872E+00  3.004413744E+02  1.250000000E+02  0.00000E+00  9.000E+00
       2     1     1     2   502     0  5.772991079E+00 -2.612912318E+01 -6.956121494E+02  6.961266558E+02  0.000000000E+00  0.00000E+00  9.000E+00
#rwgt            1           1   2.7587734851294139E-002           7       36885           0
</event>
<event>
      5   9999  3.19816E-02  9.21816E+01 -1.00000E+00  1.25439E-01
      21    -1     0     0   502   501  0.000000000E+00  0.000000000E+00  1.888062839E+02  1.888062839E+02  0.000000000E+00  0.00000E+00  9.000E+00
      21    -1     0     0   511   502  0.000000000E+00  0.000000000E+00 -5.044645864E+02  5.044645864E+02  0.000000000E+00  0.00000E+00  9.000E+00
      25     1     1     2     0     0 -1.014319409E+02 -2.377793690E+01 -1.648709264E+02  2.316489829E+02  1.250000000E+02  0.00000E+00  9.000E+00
      25     1     1     2     0     0  1.933545290E+02  1.687218721E+01  5.395949379E+01  2.370807279E+02  1.250000000E+02  0.00000E+00  9.000E+00
      21     1     1     2   511   501 -9.192258815E+01  6.905749689E+00 -2.047468698E+02  2.245411594E+02  3.814697266E-06  0.00000E+00  9.000E+00
#rwgt            1           1   2.5294865794961163E-002           7       37032           0
</event>
<event>
      5   9999  3.19816E-02  1.42986E+02 -1.00000E+00  1.17224E-01
      21    -1     0     0   502   512  0.000000000E+00  0.000000000E+00  9.026889463E+02  9.026889463E+02  0.000000000E+00  0.00000E+00  9.000E+00
      21    -1     0     0   501   502  0.000000000E+00  0.000000000E+00 -4.336115436E+02  4.336115436E+02  0.000000000E+00  0.00000E+00  9.000E+00
      25     1     1     2     0     0 -4.144319839E+02  7.019476336E+01  3.259250333E+02  5.463820105E+02  1.250000000E+02  0.00000E+00  9.000E+00
      25     1     1     2     0     0  2.714978096E+02 -6.633596862E+01 -2.347932144E+02  3.858294635E+02  1.250000000E+02  0.00000E+00  9.000E+00
      21     1     1     2   501   512  1.429341744E+02 -3.858794743E+00  3.779455838E+02  4.040890159E+02  5.394796609E-06  0.00000E+00  9.000E+00
#rwgt            1           1   2.9265557521127510E-002           7       37085           0
</event>
<event>
      5   9999  3.19816E-02  2.64155E+02 -1.00000E+00  1.07419E-01
      21    -1     0     0   502   501  0.000000000E+00  0.000000000E+00  6.347295367E+02  6.347295367E+02  0.000000000E+00  0.00000E+00  9.000E+00
      21    -1     0     0   501   511  0.000000000E+00  0.000000000E+00 -1.348375998E+03  1.348375998E+03  0.000000000E+00  0.00000E+00  9.000E+00
      25     1     1     2     0     0 -3.186520385E+02 -3.080055681E+02  3.807924781E+02  5.975236088E+02  1.250000000E+02  0.00000E+00  9.000E+00
      25     1     1     2     0     0  3.355732919E+02  4.439329820E+01 -1.266974420E+02  3.824361920E+02  1.250000000E+02  0.00000E+00  9.000E+00
      21     1     1     2   502   511 -1.692125331E+01  2.636122699E+02 -9.677414975E+02  1.003145734E+03  1.525878906E-05  0.00000E+00  9.000E+00
#rwgt            2          11   2.6921633325907011E-003           7       37182           0
</event>
<event>
      5   9999  3.41879E-02  1.19496E+02 -1.00000E+00  1.20446E-01
      21    -1     0     0   502   501  0.000000000E+00  0.000000000E+00  1.075367322E+03  1.075367322E+03  0.000000000E+00  0.00000E+00  9.000E+00
      21    -1     0     0   501   512  0.000000000E+00  0.000000000E+00 -1.404078788E+03  1.404078788E+03  0.000000000E+00  0.00000E+00  9.000E+00
      25     1     1     2     0     0 -9.459907576E+02  3.000174463E+02 -6.932531160E+02  1.217018432E+03  1.250000000E+02  0.00000E+00  9.000E+00
      25     1     1     2     0     0  1.003181004E+03 -1.950962639E+02  4.415374065E+02  1.120274502E+03  1.250000000E+02  0.00000E+00  9.000E+00
      21     1     1     2   502   512 -5.719024629E+01 -1.049211824E+02 -7.699575666E+01  1.421531756E+02  1.907348633E-06  0.00000E+00  9.000E+00
#rwgt            1           1   7.7675546475044974E-002           7       37217           0
</event>
<event>
      5   9999  3.19816E-02  1.87427E+01 -1.00000E+00  1.68730E-01
      21    -1     0     0   502   501  0.000000000E+00  0.000000000E+00  4.983331408E+01  4.983331408E+01  0.000000000E+00  0.00000E+00  9.000E+00
      21    -1     0     0   501   511  0.000000000E+00  0.000000000E+00 -1.632405199E+03  1.632405199E+03  0.000000000E+00  0.00000E+00  9.000E+00
      25     1     1     2     0     0 -1.240443458E+02 -3.927022752E+01 -1.751581643E+02  2.514647749E+02  1.250000000E+02  0.00000E+00  9.000E+00
      25     1     1     2     0     0  1.059822943E+02  3.426508014E+01 -5.940106300E+02  6.171547383E+02  1.250000000E+02  0.00000E+00  9.000E+00
      21     1     1     2   502   511  1.806205143E+01  5.005147377E+00 -8.134030908E+02  8.136190001E+02  1.525878906E-05  0.00000E+00  9.000E+00
#rwgt            1           1   2.9207242881220043E-002           7       37377           0
</event>
<event>
      5   9999  3.19816E-02  3.63112E+02 -1.00000E+00  1.02966E-01
      21    -1     0     0   502   501  0.000000000E+00  0.000000000E+00  4.100921300E+02  4.100921300E+02  0.000000000E+00  0.00000E+00  9.000E+00
       3    -1     0     0   501     0  0.000000000E+00  0.000000000E+00 -9.484133299E+02  9.484133299E+02  0.000000000E+00  0.00000E+00  9.000E+00
      25     1     1     2     0     0  3.821905021E+01  1.698970549E+02 -2.400835177E+02  3.218552478E+02  1.250000000E+02  0.00000E+00  9.000E+00
      25     1     1     2     0     0 -3.909159391E+02 -8.355190760E+01 -4.745934126E+02  6.329771717E+02  1.250000000E+02  0.00000E+00  9.000E+00
       3     1     1     2   502     0  3.526968888E+02 -8.634514726E+01  1.763557304E+02  4.036730404E+02  7.629394531E-06  0.00000E+00  9.000E+00
#rwgt            2          14   1.6877624183069442E-005           7       37540           0
</event>
<event>
      5   9999  3.19816E-02  1.08338E+02 -1.00000E+00  1.22283E-01
      -1    -1     0     0     0   501  0.000000000E+00  0.000000000E+00  1.408726403E+03  1.408726403E+03  0.000000000E+00  0.00000E+00  9.000E+00
      21    -1     0     0   501   502  0.000000000E+00  0.000000000E+00 -2.492421630E+02  2.492421630E+02  0.000000000E+00  0.00000E+00  9.000E+00
      25     1     1     2     0     0 -2.636777271E+02  2.293809586E+02  9.214420501E+01  3.824357756E+02  1.250000000E+02  0.00000E+00  9.000E+00
      25     1     1     2     0     0  2.427236296E+02 -1.230883070E+02  1.209875282E+02  3.229991853E+02  1.250000000E+02  0.00000E+00  9.000E+00
      -1     1     1     2     0   502  2.095409743E+01 -1.062926515E+02  9.463525071E+02  9.525336055E+02  1.078959322E-05  0.00000E+00  9.000E+00
#rwgt            1           1   2.6332497611179454E-002           7       37574           0
</event>
<event>
      5   9999  3.19816E-02  1.71323E+02 -1.00000E+00  1.14151E-01
      21    -1     0     0   502   501  0.000000000E+00  0.000000000E+00  1.397560931E+03  1.397560931E+03  0.000000000E+00  0.00000E+00  9.000E+00
       4    -1     0     0   501     0  0.000000000E+00  0.000000000E+00 -1.231777909E+03  1.231777909E+03  0.000000000E+00  0.00000E+00  9.000E+00
      25     1     1     2     0     0  4.860370481E+02 -1.171359446E+02  4.631206713E+02  6.928626111E+02  1.250000000E+02  0.00000E+00  9.000E+00
      25     1     1     2     0     0 -5.938957913E+02  2.502447379E+02  6.794479324E+02  9.447799387E+02  1.250000000E+02  0.00000E+00  9.000E+00
       4     1     1     2   502     0  1.078587432E+02 -1.331087933E+02 -9.767855817E+02  9.916962901E+02  1.525878906E-05  0.00000E+00  9.000E+00
#rwgt            1           1   2.5271401290469384E-002           7       37657           0
</event>
<event>
      5   9999  3.19816E-02  1.43424E+01 -1.00000E+00  1.79237E-01
       2    -1     0     0   502     0  0.000000000E+00  0.000000000E+00  2.556434078E+02  2.556434078E+02  0.000000000E+00  0.00000E+00  9.000E+00
      21    -1     0     0   501   502  0.000000000E+00  0.000000000E+00 -2.196685878E+02  2.196685878E+02  0.000000000E+00  0.00000E+00  9.000E+00
      25     1     1     2     0     0  8.294465736E+01 -8.464497054E+01 -5.905479120E+01  1.820907894E+02  1.250000000E+02  0.00000E+00  9.000E+00
      25     1     1     2     0     0 -9.712104698E+01  8.246882106E+01 -1.789942181E+01  1.793850426E+02  1.250000000E+02  0.00000E+00  9.000E+00
       2     1     1     2   501     0  1.417638963E+01  2.176149477E+00  1.129290330E+02  1.138361636E+02  0.000000000E+00  0.00000E+00  9.000E+00
#rwgt            1           1   2.4985518741001123E-002           7       37702           0
</event>
<event>
      5   9999  3.19816E-02  1.57479E+02 -1.00000E+00  1.15562E-01
      21    -1     0     0   502   511  0.000000000E+00  0.000000000E+00  2.391844574E+02  2.391844574E+02  0.000000000E+00  0.00000E+00  9.000E+00
      21    -1     0     0   501   502  0.000000000E+00  0.000000000E+00 -3.561366877E+03  3.561366877E+03  0.000000000E+00  0.00000E+00  9.000E+00
      25     1     1     2     0     0  1.371686771E+01 -6.342908516E+02 -2.641602024E+03  2.719595428E+03  1.250000000E+02  0.00000E+00  9.000E+00
      25     1     1     2     0     0  1.434943617E+02  6.434635575E+02 -4.756119993E+02  8.224765988E+02  1.250000000E+02  0.00000E+00  9.000E+00
      21     1     1     2   501   511 -1.572112294E+02 -9.172705928E+00 -2.049683960E+02  2.584793077E+02  3.814697266E-06  0.00000E+00  9.000E+00
#rwgt            1           1   5.2574570573642829E-002           7       37903           0
</event>
<event>
      5   9999  3.19816E-02  1.75879E+02 -1.00000E+00  1.13718E-01
       2    -1     0     0   502     0  0.000000000E+00  0.000000000E+00  3.602811213E+03  3.602811213E+03  0.000000000E+00  0.00000E+00  9.000E+00
      21    -1     0     0   501   502  0.000000000E+00  0.000000000E+00 -5.802264578E+02  5.802264578E+02  0.000000000E+00  0.00000E+00  9.000E+00
      25     1     1     2     0     0  1.413783446E+02  2.736492250E+02 -4.899921345E+02  5.921055873E+02  1.250000000E+02  0.00000E+00  9.000E+00
      25     1     1     2     0     0 -5.743248058E+01 -1.190967749E+02  1.877367583E+02  2.614433438E+02  1.250000000E+02  0.00000E+00  9.000E+00
       2     1     1     2   501     0 -8.394586405E+01 -1.545524502E+02  3.324840131E+03  3.329488739E+03  4.315837288E-05  0.00000E+00  9.000E+00
#rwgt            2          18   3.4696475507853541E-002           7       38129           0
</event>
<event>
      5   9999  3.19816E-02  6.12123E+01 -1.00000E+00  1.34241E-01
      21    -1     0     0   502   511  0.000000000E+00  0.000000000E+00  8.145953258E+02  8.145953258E+02  0.000000000E+00  0.00000E+00  9.000E+00
      21    -1     0     0   501   502  0.000000000E+00  0.000000000E+00 -1.308657977E+02  1.308657977E+02  0.000000000E+00  0.00000E+00  9.000E+00
      25     1     1     2     0     0 -1.413395754E+02  1.422222619E+01  5.531570799E+02  5.846254376E+02  1.250000000E+02  0.00000E+00  9.000E+00
      25     1     1     2     0     0  9.127069766E+01  2.099215286E+01 -5.487148066E+01  1.655502646E+02  1.250000000E+02  0.00000E+00  9.000E+00
      21     1     1     2   501   511  5.006887776E+01 -3.521437906E+01  1.854439289E+02  1.952854213E+02  0.000000000E+00  0.00000E+00  9.000E+00
#rwgt            1           1   2.6911899987057984E-002           7       38148           0
</event>
<event>
      5   9999  3.19816E-02  3.10247E+01 -1.00000E+00  1.52034E-01
      21    -1     0     0   502   501  0.000000000E+00  0.000000000E+00  2.349595853E+02  2.349595853E+02  0.000000000E+00  0.00000E+00  9.000E+00
      21    -1     0     0   512   502  0.000000000E+00  0.000000000E+00 -2.284933684E+02  2.284933684E+02  0.000000000E+00  0.00000E+00  9.000E+00
      25     1     1     2     0     0  2.922202997E+00  3.720500369E+01  1.775598988E+02  2.203299100E+02  1.250000000E+02  0.00000E+00  9.000E+00
      25     1     1     2     0     0 -2.489950782E+01 -5.910320521E+01 -1.505057917E+02  2.058887265E+02  1.250000000E+02  0.00000E+00  9.000E+00
      21     1     1     2   512   501  2.197730483E+01  2.189820152E+01 -2.058789019E+01  3.723431723E+01  5.331201500E-07  0.00000E+00  9.000E+00
#rwgt            1           1   3.1752705487952906E-002           7       38216           0
</event>
<event>
      5   9999  3.19816E-02  1.17041E+02 -1.00000E+00  1.20830E-01
      21    -1     0     0   502   501  0.000000000E+00  0.000000000E+00  8.049004503E+02  8.049004503E+02  0.000000000E+00  0.00000E+00  9.000E+00
      21    -1     0     0   511   502  0.000000000E+00  0.000000000E+00 -4.176124382E+02  4.176124382E+02  0.000000000E+00  0.00000E+00  9.000E+00
      25     1     1     2     0     0 -1.798789034E+02 -3.793634316E+02 -1.306501697E+02  4.571296315E+02  1.250000000E+02  0.00000E+00  9.000E+00
      25     1     1     2     0     0  2.577430110E+02  2.919798571E+02  5.015581933E+02  6.472011418E+02  1.250000000E+02  0.00000E+00  9.000E+00
      21     1     1     2   511   501 -7.786410762E+01  8.738357454E+01  1.637998852E+01  1.181821153E+02  1.348699152E-06  0.00000E+00  9.000E+00
#rwgt            1           1   2.8990597675102019E-002           7       38300           0
</event>
<event>
      5   9999  3.19816E-02  9.11140E+01 -1.00000E+00  1.25673E-01
      21    -1     0     0   502   501  0.000000000E+00  0.000000000E+00  1.765886471E+03  1.765886471E+03  0.000000000E+00  0.00000E+00  9.000E+00
      21    -1     0     0   512   502  0.000000000E+00  0.000000000E+00 -1.720192920E+03  1.720192920E+03  0.000000000E+00  0.00000E+00  9.000E+00
      25     1     1     2     0     0 -6.757495869E+02  1.433346431E+03  2.996431416E+02  1.617569321E+03  1.250000000E+02  0.00000E+00  9.000E+00
      25     1     1     2     0     0  6.069568871E+02 -1.493090266E+03 -1.919839495E+01  1.616696874E+03  1.250000000E+02  0.00000E+00  9.000E+00
      21     1     1     2   512   501  6.879269981E+01  5.974383504E+01 -2.347511958E+02  2.518131952E+02  2.697398305E-06  0.00000E+00  9.000E+00
#rwgt            1           1   3.2675581705883132E-002           7       38380           0
</event>
<event>
      5   9999  3.19816E-02  8.00914E+01 -1.00000E+00  1.28325E-01
      21    -1     0     0   511   501  0.000000000E+00  0.000000000E+00  6.740559932E+02  6.740559932E+02  0.000000000E+00  0.00000E+00  9.000E+00
      21    -1     0     0   501   502  0.000000000E+00  0.000000000E+00 -3.196732270E+02  3.196732270E+02  0.000000000E+00  0.00000E+00  9.000E+00
      25     1     1     2     0     0 -3.757010044E+02 -5.498716426E+00  1.163697154E+02  4.127328328E+02  1.250000000E+02  0.00000E+00  9.000E+00
      25     1     1     2     0     0  4.287370133E+02 -5.451638101E+01  2.034477592E+02  4.937645725E+02  1.250000000E+02  0.00000E+00  9.000E+00
      21     1     1     2   511   502 -5.303600891E+01  6.001509743E+01  3.456529157E+01  8.723181497E+01  1.261592536E-06  0.00000E+00  9.000E+00
#rwgt            1           1   2.8959566190270920E-002           7       38529           0
</event>
<event>
      5   9999  3.19816E-02  5.31004E+02 -1.00000E+00  9.81154E-02
       2    -1     0     0   502     0  0.000000000E+00  0.000000000E+00  2.085340995E+03  2.085340995E+03  0.000000000E+00  0.00000E+00  9.000E+00
      21    -1     0     0   501   502  0.000000000E+00  0.000000000E+00 -5.483910574E+02  5.483910574E+02  0.000000000E+00  0.00000E+00  9.000E+00
      25     1     1     2     0     0  1.485941061E+02 -2.029163487E+02  9.073156049E+00  2.810028027E+02  1.250000000E+02  0.00000E+00  9.000E+00
      25     1     1     2     0     0 -5.374720981E+02  5.644957601E+02  5.990822325E+01  7.916727320E+02  1.250000000E+02  0.00000E+00  9.000E+00
       2     1     1     2   501     0  3.888779920E+02 -3.615794114E+02  1.467968559E+03  1.561056518E+03  0.000000000E+00  0.00000E+00  9.000E+00
#rwgt            2          18   1.7895372569126454E-003           7       38660           0
</event>
<event>
      5   9999  3.19816E-02  2.51803E+01 -1.00000E+00  1.58517E-01
      21    -1     0     0   502   501  0.000000000E+00  0.000000000E+00  3.187367493E+02  3.187367493E+02  0.000000000E+00  0.00000E+00  9.000E+00
      21    -1     0     0   511   502  0.000000000E+00  0.000000000E+00 -1.587897606E+02  1.587897606E+02  0.000000000E+00  0.00000E+00  9.000E+00
      25     1     1     2     0     0 -1.636986668E+02 -6.840170795E+01  1.307266467E+02  2.533584483E+02  1.250000000E+02  0.00000E+00  9.000E+00
      25     1     1     2     0     0  1.399199389E+02  6.011805632E+01  2.431547670E+01  1.985145143E+02  1.250000000E+02  0.00000E+00  9.000E+00
      21     1     1     2   511   501  2.377872795E+01  8.283651629E+00  4.904865351E+00  2.565354735E+01  4.256623047E-07  0.00000E+00  9.000E+00
#rwgt            1           1   2.9730052030098694E-002           7       38679           0
</event>
<event>
      5   9999  3.19816E-02  5.17210E+01 -1.00000E+00  1.38242E-01
      21    -1     0     0   502   512  0.000000000E+00  0.000000000E+00  1.170840368E+03  1.170840368E+03  0.000000000E+00  0.00000E+00  9.000E+00
      21    -1     0     0   501   502  0.000000000E+00  0.000000000E+00 -1.610900346E+02  1.610900346E+02  0.000000000E+00  0.00000E+00  9.000E+00
      25     1     1     2     0     0 -2.605798303E+02  5.903906139E+01  1.212776481E+02  3.189368694E+02  1.250000000E+02  0.00000E+00  9.000E+00
      25     1     1     2     0     0  3.022245891E+02 -2.836697235E+01  3.811258965E+02  5.030172326E+02  1.250000000E+02  0.00000E+00  9.000E+00
      21     1     1     2   501   512 -4.164475878E+01 -3.067208904E+01  5.073467889E+02  5.099763006E+02  7.629394531E-06  0.00000E+00  9.000E+00
#rwgt            1           1   2.7029828784525461E-002           7       38779           0
</event>
<event>
      5   9999  3.19816E-02  2.75273E+02 -1.00000E+00  1.06820E-01
      21    -1     0     0   502   511  0.000000000E+00  0.000000000E+00  1.895354152E+03  1.895354152E+03  0.000000000E+00  0.00000E+00  9.000E+00
      21    -1     0     0   501   502  0.000000000E+00  0.000000000E+00 -8.994827643E+01  8.994827643E+01  0.000000000E+00  0.00000E+00  9.000E+00
      25     1     1     2     0     0  7.248391050E+01 -1.945473253E+02  4.731767346E+02  5.316237403E+02  1.250000000E+02  0.00000E+00  9.000E+00
      25     1     1     2     0     0 -2.011414291E+02 -4.880906749E+01  2.996619363E+02  3.850486666E+02  1.250000000E+02  0.00000E+00  9.000E+00
      21     1     1     2   501   511  1.286575186E+02  2.433563927E+02  1.032567205E+03  1.068630022E+03  1.525878906E-05  0.00000E+00  9.000E+00
#rwgt            2          11   1.9137083234665171E-003           7       38873           0
</event>
<event>
      5   9999  3.19816E-02  2.65264E+01 -1.00000E+00  1.56847E-01
      21    -1     0     0   512   501  0.000000000E+00  0.000000000E+00  4.873458940E+02  4.873458940E+02  0.000000000E+00  0.00000E+00  9.000E+00
      21    -1     0     0   501   502  0.000000000E+00  0.000000000E+00 -3.365933299E+02  3.365933299E+02  0.000000000E+00  0.00000E+00  9.000E+00
      25     1     1     2     0     0 -5.383688454E+01 -2.155801074E+02  2.363638989E+02  3.476580008E+02  1.250000000E+02  0.00000E+00  9.000E+00
      25     1     1     2     0     0  7.768000409E+01  2.039544724E+02 -2.231348391E+02  3.362227926E+02  1.250000000E+02  0.00000E+00  9.000E+00
      21     1     1     2   512   502 -2.384311955E+01  1.162563506E+01  1.375235042E+02  1.400584305E+02  0.000000000E+00  0.00000E+00  9.000E+00
#rwgt            1           1   2.9635881231805654E-002           7       38908           0
</event>
<event>
      5   9999  3.19816E-02  3.18912E+02 -1.00000E+00  1.04736E-01
       2    -1     0     0   502     0  0.000000000E+00  0.000000000E+00  5.292197687E+02  5.292197687E+02  0.000000000E+00  0.00000E+00  9.000E+00
      21    -1     0     0   501   502  0.000000000E+00  0.000000000E+00 -2.936208275E+03  2.936208275E+03  0.000000000E+00  0.00000E+00  9.000E+00
      25     1     1     2     0     0 -2.278792414E+02 -1.036189230E+03 -2.079407523E+03  2.337771955E+03  1.250000000E+02  0.00000E+00  9.000E+00
      25     1     1     2     0     0  1.036366080E+02  7.424740052E+02 -2.239866326E+02  7.923403350E+02  1.250000000E+02  0.00000E+00  9.000E+00
       2     1     1     2   501     0  1.242426334E+02  2.937152246E+02 -1.035943510E+02  3.353157537E+02  4.264961200E-06  0.00000E+00  9.000E+00
#rwgt            2          18   2.9324314542246281E-004           7       39108           0
</event>
<event>
      5   9999  3.19816E-02  4.29744E+01 -1.00000E+00  1.42934E-01
      -2    -1     0     0     0   501  0.000000000E+00  0.000000000E+00  7.562344794E+02  7.562344794E+02  0.000000000E+00  0.00000E+00  9.000E+00
      21    -1     0     0   501   502  0.000000000E+00  0.000000000E+00 -1.164495912E+02  1.164495912E+02  0.000000000E+00  0.00000E+00  9.000E+00
      25     1     1     2     0     0  2.422959836E+01  1.016272906E+02  1.736202894E+02  2.380844063E+02  1.250000000E+02  0.00000E+00  9.000E+00
      25     1     1     2     0     0 -6.690015920E+01 -9.652639732E+01  5.157835433E+00  1.715942305E+02  1.250000000E+02  0.00000E+00  9.000E+00
      -2     1     1     2     0   502  4.267056084E+01 -5.100893253E+00  4.610067633E+02  4.630054338E+02  5.394796609E-06  0.00000E+00  9.000E+00
#rwgt            1           1   2.0198420737554398E-002           7       39142           0
</event>
<event>
      5   9999  3.19816E-02  1.76389E+02 -1.00000E+00  1.13671E-01
       1    -1     0     0   502     0  0.000000000E+00  0.000000000E+00  8.336202358E+02  8.336202358E+02  0.000000000E+00  0.00000E+00  9.000E+00
      21    -1     0     0   501   502  0.000000000E+00  0.000000000E+00 -3.306024422E+02  3.306024422E+02  0.000000000E+00  0.00000E+00  9.000E+00
      25     1     1     2     0     0  2.912548009E+01  1.510838074E+02  1.115515254E+01  1.985548989E+02  1.250000000E+02  0.00000E+00  9.000E+00
      25     1     1     2     0     0  4.896843549E+01  7.075593280E+00 -2.059296252E+02  2.459267823E+02  1.250000000E+02  0.00000E+00  9.000E+00
       1     1     1     2   501     0 -7.809391558E+01 -1.581594007E+02  6.977922663E+02  7.197409968E+02  7.629394531E-06  0.00000E+00  9.000E+00
#rwgt            1           1   3.7096041026359890E-002           7       39213           0
</event>
<event>
      5   9999  3.19816E-02  2.70131E+01 -1.00000E+00  1.56272E-01
      21    -1     0     0   502   501  0.000000000E+00  0.000000000E+00  6.423862716E+01  6.423862716E+01  0.000000000E+00  0.00000E+00  9.000E+00
      21    -1     0     0   501   511  0.000000000E+00  0.000000000E+00 -7.458891039E+02  7.458891039E+02  0.000000000E+00  0.00000E+00  9.000E+00
      25     1     1     2     0     0 -1.233760093E+02 -1.817110396E+01 -4.019889109E+02  4.390579838E+02  1.250000000E+02  0.00000E+00  9.000E+00
      25     1     1     2     0     0  1.186074582E+02 -8.417745866E+00 -1.224637961E+02  2.115678826E+02  1.250000000E+02  0.00000E+00  9.000E+00
      21     1     1     2   502   511  4.768551076E+00  2.658884983E+01 -1.571977697E+02  1.595018646E+02  1.907348633E-06  0.00000E+00  9.000E+00
#rwgt            1           1   2.9448966046698624E-002           7       39263           0
</event>
<event>
      5   9999  3.19816E-02  3.24882E+01 -1.00000E+00  1.50675E-01
      21    -1     0     0   512   501  0.000000000E+00  0.000000000E+00  6.280384483E+02  6.280384483E+02  0.000000000E+00  0.00000E+00  9.000E+00
      21    -1     0     0   501   502  0.000000000E+00  0.000000000E+00 -8.485001469E+01  8.485001469E+01  0.000000000E+00  0.00000E+00  9.000E+00
      25     1     1     2     0     0  1.613681882E+02  9.594952299E-02  2.885116986E+02  3.534171778E+02  1.250000000E+02  0.00000E+00  9.000E+00
      25     1     1     2     0     0 -1.792515269E+02  2.702723973E+01  2.104229957E+02  3.045725180E+02  1.250000000E+02  0.00000E+00  9.000E+00
      21     1     1     2   512   502  1.788333865E+01 -2.712318926E+01  4.425373929E+01  5.489876718E+01  6.743495762E-07  0.00000E+00  9.000E+00
#rwgt            1           1   2.3293079251156316E-002           7       39363           0
</event>
<event>
      5   9999  3.19816E-02  2.12033E+02 -1.00000E+00  1.10732E-01
      21    -1     0     0   511   501  0.000000000E+00  0.000000000E+00  5.556525116E+02  5.556525116E+02  0.000000000E+00  0.00000E+00  9.000E+00
      21    -1     0     0   501   502  0.000000000E+00  0.000000000E+00 -1.079715870E+03  1.079715870E+03  0.000000000E+00  0.00000E+00  9.000E+00
      25     1     1     2     0     0  4.838207304E+02 -1.602079258E+02 -7.779973101E+02  9.384316135E+02  1.250000000E+02  0.00000E+00  9.000E+00
      25     1     1     2     0     0 -3.062690230E+02  2.761103699E+02  2.142859083E+02  4.812287411E+02  1.250000000E+02  0.00000E+00  9.000E+00
      21     1     1     2   511   502 -1.775517074E+02 -1.159024440E+02  3.964804390E+01  2.157080266E+02  6.743495762E-07  0.00000E+00  9.000E+00
#rwgt            2          11   5.5066655547314622E-003           7       39486           0
</event>
<event>
      5   9999  3.19816E-02  1.02164E+01 -1.00000E+00  1.94689E-01
      21    -1     0     0   502   501  0.000000000E+00  0.000000000E+00  2.674747737E+01  2.674747737E+01  0.000000000E+00  0.00000E+00  9.000E+00
       1    -1     0     0   501     0  0.000000000E+00  0.000000000E+00 -4.187106994E+03  4.187106994E+03  0.000000000E+00  0.00000E+00  9.000E+00
      25     1     1     2     0     0  2.919201940E+01 -1.977645416E+02 -6.898453413E+02  7.290230331E+02  1.250000000E+02  0.00000E+00  9.000E+00
      25     1     1     2     0     0 -2.713602291E+01  1.877571846E+02 -1.799310652E+03  1.813596688E+03  1.250000000E+02  0.00000E+00  9.000E+00
       1     1     1     2   502     0 -2.055996491E+00  1.000735697E+01 -1.671203523E+03  1.671234750E+03  0.000000000E+00  0.00000E+00  9.000E+00
#rwgt            1           1   4.5718913153441169E-002           7       39506           0
</event>
<event>
      5   9999  3.19816E-02  2.01174E+02 -1.00000E+00  1.11556E-01
      21    -1     0     0   502   501  0.000000000E+00  0.000000000E+00  2.885167972E+02  2.885167972E+02  0.000000000E+00  0.00000E+00  9.000E+00
      21    -1     0     0   511   502  0.000000000E+00  0.000000000E+00 -7.316241226E+02  7.316241226E+02  0.000000000E+00  0.00000E+00  9.000E+00
      25     1     1     2     0     0  2.995897479E+02 -1.340698179E+02 -1.021247403E+02  3.657638524E+02  1.250000000E+02  0.00000E+00  9.000E+00
      25     1     1     2     0     0 -1.138930333E+02  2.114497359E+02 -1.481496605E+01  2.711588042E+02  1.250000000E+02  0.00000E+00  9.000E+00
      21     1     1     2   511   501 -1.856967146E+02 -7.737991801E+01 -3.261676191E+02  3.832182632E+02  3.814697266E-06  0.00000E+00  9.000E+00
#rwgt            1           1   3.4259834430085172E-002           7       39627           0
</event>
<event>
      5   9999  3.19816E-02  8.67997E+01 -1.00000E+00  1.26658E-01
      21    -1     0     0   502   501  0.000000000E+00  0.000000000E+00  7.787703175E+02  7.787703175E+02  0.000000000E+00  0.00000E+00  9.000E+00
      21    -1     0     0   501   512  0.000000000E+00  0.000000000E+00 -1.728623292E+02  1.728623292E+02  0.000000000E+00  0.00000E+00  9.000E+00
      25     1     1     2     0     0  1.822897820E+02  9.425767838E+01  1.798657978E+02  3.001512615E+02  1.250000000E+02  0.00000E+00  9.000E+00
      25     1     1     2     0     0 -1.990028428E+02 -1.794331738E+02  4.691632718E+02  5.545607009E+02  1.250000000E+02  0.00000E+00  9.000E+00
      21     1     1     2   502   512  1.671306088E+01  8.517549539E+01 -4.312108129E+01  9.692068443E+01  1.846782373E-06  0.00000E+00  9.000E+00
#rwgt            1           1   2.7633644648087621E-002           7       39698           0
</event>
<event>
      5   9999  3.19816E-02  2.56876E+01 -1.00000E+00  1.57873E-01
      21    -1     0     0   502   511  0.000000000E+00  0.000000000E+00  3.028355517E+02  3.028355517E+02  0.000000000E+00  0.00000E+00  9.000E+00
      21    -1     0     0   501   502  0.000000000E+00  0.000000000E+00 -1.737638192E+02  1.737638192E+02  0.000000000E+00  0.00000E+00  9.000E+00
      25     1     1     2     0     0 -7.087061565E+00 -1.567612915E+02  4.513223405E+01  2.056362018E+02  1.250000000E+02  0.00000E+00  9.000E+00
      25     1     1     2     0     0  2.085316961E+01  1.784487862E+02  4.364725453E+01  2.231790914E+02  1.250000000E+02  0.00000E+00  9.000E+00
      21     1     1     2   501   511 -1.376610805E+01 -2.168749476E+01  4.029224394E+01  4.778407770E+01  4.768371582E-07  0.00000E+00  9.000E+00
#rwgt            1           1   2.4357264246028999E-002           7       39773           0
</event>
<event>
      5   9999  3.19816E-02  2.95813E+01 -1.00000E+00  1.53465E-01
      21    -1     0     0   502   501  0.000000000E+00  0.000000000E+00  7.153352066E+02  7.153352066E+02  0.000000000E+00  0.00000E+00  9.000E+00
       1    -1     0     0   501     0  0.000000000E+00  0.000000000E+00 -1.081231328E+03  1.081231328E+03  0.000000000E+00  0.00000E+00  9.000E+00
      25     1     1     2     0     0 -2.238166262E+02 -8.255982559E+01  6.372483197E+02  6.918239862E+02  1.250000000E+02  0.00000E+00  9.000E+00
      25     1     1     2     0     0  2.066574222E+02  5.846388556E+01 -2.551473630E+02  3.561607683E+02  1.250000000E+02  0.00000E+00  9.000E+00
       1     1     1     2   502     0  1.715920402E+01  2.409594003E+01 -7.479970783E+02  7.485817802E+02  1.078959322E-05  0.00000E+00  9.000E+00
#rwgt            1           1   2.9232970488882935E-002           7       39943           0
</event>
<event>
      5   9999  3.19816E-02  1.57158E+01 -1.00000E+00  1.75497E-01
      21    -1     0     0   502   511  0.000000000E+00  0.000000000E+00  7.249991140E+02  7.249991140E+02  0.000000000E+00  0.00000E+00  9.000E+00
      21    -1     0     0   501   502  0.000000000E+00  0.000000000E+00 -2.188873616E+02  2.188873616E+02  0.000000000E+00  0.00000E+00  9.000E+00
      25     1     1     2     0     0  2.059667554E+02 -7.368460190E+00  4.138589935E+01  2.445698084E+02  1.250000000E+02  0.00000E+00  9.000E+00
      25     1     1     2     0     0 -1.903518124E+02  9.145862803E+00 -6.331901321E+00  2.279968251E+02  1.250000000E+02  0.00000E+00  9.000E+00
      21     1     1     2   501   511 -1.561494297E+01 -1.777402613E+00  4.710577543E+02  4.713198421E+02  0.000000000E+00  0.00000E+00  9.000E+00
#rwgt            1           1   2.8071178277621404E-002           7       40137           0
</event>
<event>
      5   9999  3.19816E-02  1.61295E+02 -1.00000E+00  1.15158E-01
      21    -1     0     0   502   512  0.000000000E+00  0.000000000E+00  3.737642478E+03  3.737642478E+03  0.000000000E+00  0.00000E+00  9.000E+00
      21    -1     0     0   501   502  0.000000000E+00  0.000000000E+00 -3.768573256E+02  3.768573256E+02  0.000000000E+00  0.00000E+00  9.000E+00
      25     1     1     2     0     0 -1.362283958E+02 -8.644420205E+02  8.845859095E+02  1.250574034E+03  1.250000000E+02  0.00000E+00  9.000E+00
      25     1     1     2     0     0  2.327108607E+02  7.351851297E+02  6.109985387E+02  9.917639507E+02  1.250000000E+02  0.00000E+00  9.000E+00
      21     1     1     2   501   512 -9.648246489E+01  1.292568909E+02  1.865200704E+03  1.872161819E+03  2.157918644E-05  0.00000E+00  9.000E+00
#rwgt            2          11   3.2444804699548841E-004           7       40357           0
</event>
<event>
      5   9999  3.19816E-02  1.63971E+01 -1.00000E+00  1.73816E-01
      21    -1     0     0   511   501  0.000000000E+00  0.000000000E+00  1.573453564E+02  1.573453564E+02  0.000000000E+00  0.00000E+00  9.000E+00
      21    -1     0     0   501   502  0.000000000E+00  0.000000000E+00 -2.057907322E+02  2.057907322E+02  0.000000000E+00  0.00000E+00  9.000E+00
      25     1     1     2     0     0  3.868694384E+00 -1.249378385E+01  9.037977611E+01  1.548049268E+02  1.250000000E+02  0.00000E+00  9.000E+00
      25     1     1     2     0     0 -1.390523629E+01  2.546036526E+01 -1.422536735E+02  1.915794703E+02  1.250000000E+02  0.00000E+00  9.000E+00
      21     1     1     2   511   502  1.003654191E+01 -1.296658140E+01  3.428521619E+00  1.675169148E+01  2.632069846E-07  0.00000E+00  9.000E+00
#rwgt            1           1   3.0370846387685779E-002           7       40377           0
</event>
<event>
      5   9999  3.19816E-02  3.74066E+01 -1.00000E+00  1.46669E-01
       1    -1     0     0   502     0  0.000000000E+00  0.000000000E+00  2.776171667E+03  2.776171667E+03  0.000000000E+00  0.00000E+00  9.000E+00
      21    -1     0     0   501   502  0.000000000E+00  0.000000000E+00 -3.822347595E+01  3.822347595E+01  0.000000000E+00  0.00000E+00  9.000E+00
      25     1     1     2     0     0 -1.828398174E+02 -1.757173069E+02  1.583231747E+03  1.608276946E+03  1.250000000E+02  0.00000E+00  9.000E+00
      25     1     1     2     0     0  1.812060038E+02  2.130882041E+02  9.554216011E+02  1.003343229E+03  1.250000000E+02  0.00000E+00  9.000E+00
       1     1     1     2   501     0  1.633813604E+00 -3.737089726E+01  1.992948434E+02  2.027749686E+02  2.697398305E-06  0.00000E+00  9.000E+00
#rwgt            1           1   6.9421683515130686E-002           7       40527           0
</event>
<event>
      5   9999  3.23354E-02  8.36043E+01 -1.00000E+00  1.27430E-01
       2    -1     0     0   502     0  0.000000000E+00  0.000000000E+00  1.314351085E+03  1.314351085E+03  0.000000000E+00  0.00000E+00  9.000E+00
      21    -1     0     0   501   502  0.000000000E+00  0.000000000E+00 -4.804842404E+01  4.804842404E+01  0.000000000E+00  0.00000E+00  9.000E+00
      25     1     1     2     0     0 -1.296128781E+02  1.155989497E+02  3.937549292E+02  4.481412273E+02  1.250000000E+02  0.00000E+00  9.000E+00
      25     1     1     2     0     0  4.603848565E+01 -1.133638075E+02  4.360285886E+02  4.698050927E+02  1.250000000E+02  0.00000E+00  9.000E+00
       2     1     1     2   501     0  8.357439244E+01 -2.235142198E+00  4.365191429E+02  4.444531888E+02  5.394796609E-06  0.00000E+00  9.000E+00
#rwgt            1           1   3.0289864505169482E-002           7       40617           0
</event>
<event>
      5   9999  3.19816E-02  1.35762E+02 -1.00000E+00  1.18136E-01
      21    -1     0     0   502   501  0.000000000E+00  0.000000000E+00  9.649203945E+02  9.649203945E+02  0.000000000E+00  0.00000E+00  9.000E+00
      21    -1     0     0   501   511  0.000000000E+00  0.000000000E+00 -2.330251549E+02  2.330251549E+02  0.000000000E+00  0.00000E+00  9.000E+00
      25     1     1     2     0     0  2.097540040E+01 -1.822875172E+02  4.331201992E+02  4.867101944E+02  1.250000000E+02  0.00000E+00  9.000E+00
      25     1     1     2     0     0  1.049649947E+02  1.315897063E+02  4.569698692E+02  5.027722767E+02  1.250000000E+02  0.00000E+00  9.000E+00
      21     1     1     2   502   511 -1.259403951E+02  5.069781096E+01 -1.581948288E+02  2.084630783E+02  6.607249480E-06  0.00000E+00  9.000E+00
#rwgt            1           1   2.5082428723893598E-002           7       40659           0
</event>
<event>
      5   9999  3.19816E-02  2.62808E+01 -1.00000E+00  1.57143E-01
       2    -1     0     0   502     0  0.000000000E+00  0.000000000E+00  2.991413444E+03  2.991413444E+03  0.000000000E+00  0.00000E+00  9.000E+00
      21    -1     0     0   501   502  0.000000000E+00  0.000000000E+00 -1.669527369E+02  1.669527369E+02  0.000000000E+00  0.00000E+00  9.000E+00
      25     1     1     2     0     0 -3.927613792E+02 -1.169561775E+02  9.084802573E+02  1.004440952E+03  1.250000000E+02  0.00000E+00  9.000E+00
      25     1     1     2     0     0  4.186582426E+02  1.124802581E+02  3.092502701E+02  5.469801295E+02  1.250000000E+02  0.00000E+00  9.000E+00
       2     1     1     2   501     0 -2.589686335E+01  4.475919413E+00  1.606730180E+03  1.606945099E+03  2.157918644E-05  0.00000E+00  9.000E+00
#rwgt            1           1   2.6674464761149558E-002           7       40722           0
</event>
<event>
      5   9999  3.19816E-02  2.17642E+02 -1.00000E+00  1.10328E-01
       2    -1     0     0   502     0  0.000000000E+00  0.000000000E+00  2.702252089E+02  2.702252089E+02  0.000000000E+00  0.00000E+00  9.000E+00
      21    -1     0     0   501   502  0.000000000E+00  0.000000000E+00 -5.756226839E+02  5.756226839E+02  0.000000000E+00  0.00000E+00  9.000E+00
      25     1     1     2     0     0 -1.300297558E+02  2.408990830E+02 -1.049414873E+01  3.011232850E+02  1.250000000E+02  0.00000E+00  9.000E+00
      25     1     1     2     0     0 -7.607677416E+01 -1.709839225E+02 -2.195561859E+02  3.144091221E+02  1.250000000E+02  0.00000E+00  9.000E+00
       2     1     1     2   501     0  2.061065300E+02 -6.991516057E+01 -7.534714036E+01  2.303154856E+02  2.861022949E-06  0.00000E+00  9.000E+00
#rwgt            1           1   2.8423326119035374E-002           7       40986           0
</event>
<event>
      5   9999  3.19816E-02  2.16688E+01 -1.00000E+00  1.63548E-01
      21    -1     0     0   511   501  0.000000000E+00  0.000000000E+00  2.712253014E+02  2.712253014E+02  0.000000000E+00  0.00000E+00  9.000E+00
      21    -1     0     0   501   502  0.000000000E+00  0.000000000E+00 -4.416911331E+02  4.416911331E+02  0.000000000E+00  0.00000E+00  9.000E+00
      25     1     1     2     0     0  1.169788963E+02  3.952689585E+01  2.050613073E+02  2.700399552E+02  1.250000000E+02  0.00000E+00  9.000E+00
      25     1     1     2     0     0 -1.035282035E+02 -5.651561384E+01 -3.831308286E+02  4.199122948E+02  1.250000000E+02  0.00000E+00  9.000E+00
      21     1     1     2   511   502 -1.345069273E+01  1.698871799E+01  7.603689540E+00  2.296418447E+01  3.576278687E-07  0.00000E+00  9.000E+00
#rwgt            1           1   2.8274494198840643E-002           7       41017           0
</event>
<event>
      5   9999  3.19816E-02  9.34559E+00 -1.00000E+00  1.99217E-01
      21    -1     0     0   512   501  0.000000000E+00  0.000000000E+00  5.439516860E+02  5.439516860E+02  0.000000000E+00  0.00000E+00  9.000E+00
      21    -1     0     0   501   502  0.000000000E+00  0.000000000E+00 -5.370859058E+02  5.370859058E+02  0.000000000E+00  0.00000E+00  9.000E+00
      25     1     1     2     0     0  4.401361658E+02 -2.616470777E+02  8.509299947E+01  5.338959227E+02  1.250000000E+02  0.00000E+00  9.000E+00
      25     1     1     2     0     0 -4.336558931E+02  2.549131268E+02 -9.592417090E+01  5.271286203E+02  1.250000000E+02  0.00000E+00  9.000E+00
      21     1     1     2   512   502 -6.480272688E+00  6.733950916E+00  1.769695158E+01  2.001304885E+01  0.000000000E+00  0.00000E+00  9.000E+00
#rwgt            1           1   2.6292870984258011E-002           7       41133           0
</event>
<event>
      5   9999  3.19816E-02  8.56868E+01 -1.00000E+00  1.26922E-01
      21    -1     0     0   502   501  0.000000000E+00  0.000000000E+00  1.615489942E+02  1.615489942E+02  0.000000000E+00  0.00000E+00  9.000E+00
       1    -1     0     0   501     0  0.000000000E+00  0.000000000E+00 -4.654167983E+02  4.654167983E+02  0.000000000E+00  0.00000E+00  9.000E+00
      25     1     1     2     0     0 -1.382848457E+01 -5.707926353E+01  5.815477857E+01  1.498540876E+02  1.250000000E+02  0.00000E+00  9.000E+00
      25     1     1     2     0     0  9.123048622E+01  2.032118978E+01 -6.692087222E+01  1.698215402E+02  1.250000000E+02  0.00000E+00  9.000E+00
       1     1     1     2   502     0 -7.740200165E+01  3.675807375E+01 -2.951017104E+02  3.072901647E+02  5.394796609E-06  0.00000E+00  9.000E+00
#rwgt            1           1   5.4074515609866688E-002           7       41505           0
</event>
<event>
      5   9999  3.19816E-02  3.57693E+01 -1.00000E+00  1.47917E-01
      21    -1     0     0   502   511  0.000000000E+00  0.000000000E+00  3.831886640E+02  3.831886640E+02  0.000000000E+00  0.00000E+00  9.000E+00
      21    -1     0     0   501   502  0.000000000E+00  0.000000000E+00 -1.250145594E+02  1.250145594E+02  0.000000000E+00  0.00000E+00  9.000E+00
      25     1     1     2     0     0 -5.267218266E+01 -8.980668846E+01  1.901374362E+02  2.502335804E+02  1.250000000E+02  0.00000E+00  9.000E+00
      25     1     1     2     0     0  8.819473409E+01  9.400063373E+01 -1.736864979E+00  1.795618193E+02  1.250000000E+02  0.00000E+00  9.000E+00
      21     1     1     2   501   511 -3.552255143E+01 -4.193945271E+00  6.977353342E+01  7.840782361E+01  0.000000000E+00  0.00000E+00  9.000E+00
#rwgt            1           1   2.9004869506177478E-002           7       41551           0
</event>
<event>
      5   9999  3.19816E-02  5.25084E+01 -1.00000E+00  1.37873E-01
      21    -1     0     0   512   501  0.000000000E+00  0.000000000E+00  1.051367913E+03  1.051367913E+03  0.000000000E+00  0.00000E+00  9.000E+00
      21    -1     0     0   501   502  0.000000000E+00  0.000000000E+00 -7.421618885E+01  7.421618885E+01  0.000000000E+00  0.00000E+00  9.000E+00
      25     1     1     2     0     0 -1.035943905E+02  5.515796562E+00  7.451295449E+02  7.626304875E+02  1.250000000E+02  0.00000E+00  9.000E+00
      25     1     1     2     0     0  1.384354469E+02  3.376820589E+01  8.670436495E+01  2.084401871E+02  1.250000000E+02  0.00000E+00  9.000E+00
      21     1     1     2   512   502 -3.484105644E+01 -3.928400245E+01  1.453178145E+02  1.545134275E+02  1.907348633E-06  0.00000E+00  9.000E+00
#rwgt            2          11   2.6240721388851650E-003           7       41665           0
</event>
<event>
      5   9999  3.19816E-02  1.88526E+02 -1.00000E+00  1.12590E-01
      21    -1     0     0   502   501  0.000000000E+00  0.000000000E+00  2.060623561E+03  2.060623561E+03  0.000000000E+00  0.00000E+00  9.000E+00
      21    -1     0     0   501   511  0.000000000E+00  0.000000000E+00 -1.429561597E+03  1.429561597E+03  0.000000000E+00  0.00000E+00  9.000E+00
      25     1     1     2     0     0  6.299254573E+02  5.771973952E+02  1.683199978E+03  1.891758462E+03  1.250000000E+02  0.00000E+00  9.000E+00
      25     1     1     2     0     0 -6.558719862E+02 -7.639290181E+02 -8.979519030E+02  1.354879414E+03  1.250000000E+02  0.00000E+00  9.000E+00
      21     1     1     2   502   511  2.594652895E+01  1.867316230E+02 -1.541861112E+02  2.435472814E+02  2.697398305E-06  0.00000E+00  9.000E+00
#rwgt            1           1   3.5310323757667614E-002           7       41715           0
</event>
<event>
      5   9999  3.19816E-02  4.58743E+01 -1.00000E+00  1.41244E-01
      21    -1     0     0   502   512  0.000000000E+00  0.000000000E+00  5.497080518E+02  5.497080518E+02  0.000000000E+00  0.00000E+00  9.000E+00
      21    -1     0     0   501   502  0.000000000E+00  0.000000000E+00 -2.624281617E+02  2.624281617E+02  0.000000000E+00  0.00000E+00  9.000E+00
      25     1     1     2     0     0  3.243459949E+02  3.349938657E+01 -1.724306747E+00  3.492141271E+02  1.250000000E+02  0.00000E+00  9.000E+00
      25     1     1     2     0     0 -2.844550880E+02 -5.615253311E+01  2.534892522E+02  4.049069091E+02  1.250000000E+02  0.00000E+00  9.000E+00
      21     1     1     2   501   512 -3.989090690E+01  2.265314654E+01  3.551494465E+01  5.801517728E+01  8.259061849E-07  0.00000E+00  9.000E+00
#rwgt            1           1   2.9446141559063020E-002           7       41820           0
</event>
<event>
      5   9999  3.19816E-02  7.06527E+01 -1.00000E+00  1.31017E-01
      21    -1     0     0   511   501  0.000000000E+00  0.000000000E+00  8.046233016E+02  8.046233016E+02  0.000000000E+00  0.00000E+00  9.000E+00
      21    -1     0     0   501   502  0.000000000E+00  0.000000000E+00 -2.900089506E+02  2.900089506E+02  0.000000000E+00  0.00000E+00  9.000E+00
      25     1     1     2     0     0 -1.696344641E+02 -1.295089493E+02 -1.774349478E+02  3.043954337E+02  1.250000000E+02  0.00000E+00  9.000E+00
      25     1     1     2     0     0  2.402701095E+02  1.310600106E+02  6.209239517E+02  6.899840619E+02  1.250000000E+02  0.00000E+00  9.000E+00
      21     1     1     2   511   502 -7.063564541E+01 -1.551061286E+00  7.112534704E+01  1.002527565E+02  0.000000000E+00  0.00000E+00  9.000E+00
#rwgt            1           1   2.4826081787226773E-002           7       41912           0
</event>
<event>
      5   9999  3.19816E-02  1.07452E+02 -1.00000E+00  1.22440E-01
       2    -1     0     0   502     0  0.000000000E+00  0.000000000E+00  2.338466011E+03  2.338466011E+03  0.000000000E+00  0.00000E+00  9.000E+00
      21    -1     0     0   501   502  0.000000000E+00  0.000000000E+00 -4.355030807E+02  4.355030807E+02  0.000000000E+00  0.00000E+00  9.000E+00
      25     1     1     2     0     0 -9.253793927E+01 -7.257388748E+01 -4.024122186E+02  4.374823803E+02  1.250000000E+02  0.00000E+00  9.000E+00
      25     1     1     2     0     0  1.703111337E+02 -1.569808494E+00  2.028823496E+03  2.039793648E+03  1.250000000E+02  0.00000E+00  9.000E+00
       2     1     1     2   501     0 -7.777319438E+01  7.414369597E+01  2.765516528E+02  2.966930638E+02  0.000000000E+00  0.00000E+00  9.000E+00
#rwgt            1           1   2.9135741005936036E-002           7       42026           0
</event>
<event>
      5   9999  3.19816E-02  9.42408E+01 -1.00000E+00  1.24998E-01
      21    -1     0     0   502   501  0.000000000E+00  0.000000000E+00  1.124056052E+03  1.124056052E+03  0.000000000E+00  0.00000E+00  9.000E+00
      21    -1     0     0   501   511  0.000000000E+00  0.000000000E+00 -5.866380712E+02  5.866380712E+02  0.000000000E+00  0.00000E+00  9.000E+00
      25     1     1     2     0     0 -3.521388247E+02 -9.963703836E+01 -3.125909001E+02  4.972598537E+02  1.250000000E+02  0.00000E+00  9.000E+00
      25     1     1     2     0     0  2.888217498E+02  1.694387638E+02  9.855437669E+02  1.048355385E+03  1.250000000E+02  0.00000E+00  9.000E+00
      21     1     1     2   502   511  6.331707488E+01 -6.980172543E+01 -1.355348857E+02  1.650788844E+02  3.303624740E-06  0.00000E+00  9.000E+00
#rwgt            1           1   2.9697109780937207E-002           7       42181           0
</event>
<event>
      5   9999  3.19816E-02  2.14395E+01 -1.00000E+00  1.63916E-01
      21    -1     0     0   502   501  0.000000000E+00  0.000000000E+00  2.834947891E+02  2.834947891E+02  0.000000000E+00  0.00000E+00  9.000E+00
      21    -1     0     0   512   502  0.000000000E+00  0.000000000E+00 -4.669458544E+02  4.669458544E+02  0.000000000E+00  0.00000E+00  9.000E+00
      25     1     1     2     0     0  2.283578740E+02 -2.547770206E+01  1.649922595E+02  3.092634437E+02  1.250000000E+02  0.00000E+00  9.000E+00
      25     1     1     2     0     0 -2.106632712E+02  3.758367684E+01 -3.072563791E+02  3.947442578E+02  1.250000000E+02  0.00000E+00  9.000E+00
      21     1     1     2   512   501 -1.769460283E+01 -1.210597477E+01 -4.118694581E+01  4.643294196E+01  8.259061849E-07  0.00000E+00  9.000E+00
#rwgt            1           1   2.7447015133337336E-002           7       42245           0
</event>
<event>
      5   9999  3.19816E-02  5.78202E+01 -1.00000E+00  1.35568E-01
      21    -1     0     0   511   501  0.000000000E+00  0.000000000E+00  8.337393479E+01  8.337393479E+01  0.000000000E+00  0.00000E+00  9.000E+00
      21    -1     0     0   501   502  0.000000000E+00  0.000000000E+00 -1.653840585E+03  1.653840585E+03  0.000000000E+00  0.00000E+00  9.000E+00
      25     1     1     2     0     0 -2.109117438E+02  2.164039961E+02 -8.600598815E+02  9.201317585E+02  1.250000000E+02  0.00000E+00  9.000E+00
      25     1     1     2     0     0  2.615617208E+02 -1.885157847E+02 -6.129006755E+02  7.037222271E+02  1.250000000E+02  0.00000E+00  9.000E+00
      21     1     1     2   511   502 -5.064997698E+01 -2.788821145E+01 -9.750609301E+01  1.133605340E+02  1.907348633E-06  0.00000E+00  9.000E+00
#rwgt            2          11   4.9469943635487065E-003           7       42446           0
</event>
<event>
      5   9999  3.19816E-02  1.30791E+02 -1.00000E+00  1.18802E-01
      21    -1     0     0   502   501  0.000000000E+00  0.000000000E+00  1.708587942E+02  1.708587942E+02  0.000000000E+00  0.00000E+00  9.000E+00
      21    -1     0     0   501   512  0.000000000E+00  0.000000000E+00 -4.266169720E+02  4.266169720E+02  0.000000000E+00  0.00000E+00  9.000E+00
      25     1     1     2     0     0  9.767750097E+01 -3.239096596E+01  6.887593090E+01  1.759515920E+02  1.250000000E+02  0.00000E+00  9.000E+00
      25     1     1     2     0     0  2.549521684E+01 -1.159397300E+01 -2.176609884E+02  2.525583738E+02  1.250000000E+02  0.00000E+00  9.000E+00
      21     1     1     2   502   512 -1.231727178E+02  4.398493896E+01 -1.069731202E+02  1.689658005E+02  4.046097457E-06  0.00000E+00  9.000E+00
#rwgt            1           1   2.5467670400025809E-002           7       42466           0
</event>
<event>
      5   9999  3.19816E-02  1.39525E+02 -1.00000E+00  1.17653E-01
      21    -1     0     0   502   511  0.000000000E+00  0.000000000E+00  4.309932854E+02  4.309932854E+02  0.000000000E+00  0.00000E+00  9.000E+00
      21    -1     0     0   501   502  0.000000000E+00  0.000000000E+00 -1.911419937E+02  1.911419937E+02  0.000000000E+00  0.00000E+00  9.000E+00
      25     1     1     2     0     0 -1.110809044E+02 -5.013663246E+01 -9.149103061E+01  1.970996142E+02  1.250000000E+02  0.00000E+00  9.000E+00
      25     1     1     2     0     0 -2.011944398E+01  2.662732952E+00  1.536389734E+02  1.991025272E+02  1.250000000E+02  0.00000E+00  9.000E+00
      21     1     1     2   501   511  1.312003484E+02  4.747389950E+01  1.777033488E+02  2.259331377E+02  2.697398305E-06  0.00000E+00  9.000E+00
#rwgt            1           1   2.9502585422694631E-002           7       42533           0
</event>
<event>
      5   9999  3.19816E-02  1.08262E+02 -1.00000E+00  1.22297E-01
      21    -1     0     0   502   501  0.000000000E+00  0.000000000E+00  1.284252783E+03  1.284252783E+03  0.000000000E+00  0.00000E+00  9.000E+00
      21    -1     0     0   512   502  0.000000000E+00  0.000000000E+00 -1.356791620E+02  1.356791620E+02  0.000000000E+00  0.00000E+00  9.000E+00
      25     1     1     2     0     0  2.653065954E+02  6.982710437E+01  4.686368356E+02  5.572332526E+02  1.250000000E+02  0.00000E+00  9.000E+00
      25     1     1     2     0     0 -2.588855274E+02 -1.778988193E+02  6.742825424E+02  7.542888393E+02  1.250000000E+02  0.00000E+00  9.000E+00
      21     1     1     2   512   501 -6.421068057E+00  1.080717149E+02  5.654242446E+00  1.084098526E+02  1.161908429E-06  0.00000E+00  9.000E+00
#rwgt            1           1   2.8585673187628769E-002           7       42602           0
</event>
<event>
      5   9999  3.19816E-02  4.33049E+00 -1.00000E+00  2.55602E-01
      21    -1     0     0   502   501  0.000000000E+00  0.000000000E+00  1.087632320E+02  1.087632320E+02  0.000000000E+00  0.00000E+00  9.000E+00
      21    -1     0     0   511   502  0.000000000E+00  0.000000000E+00 -7.210561227E+02  7.210561227E+02  0.000000000E+00  0.00000E+00  9.000E+00
      25     1     1     2     0     0 -1.175537941E+01  2.294149449E+02 -1.715816693E+02  3.127853499E+02  1.250000000E+02  0.00000E+00  9.000E+00
      25     1     1     2     0     0  1.068165634E+01 -2.252196731E+02 -3.986285173E+02  4.747290741E+02  1.250000000E+02  0.00000E+00  9.000E+00
      21     1     1     2   511   501  1.073723069E+00 -4.195271779E+00 -4.208270408E+01  4.230493079E+01  4.768371582E-07  0.00000E+00  9.000E+00
#rwgt            1           1   2.7054204649239900E-002           7       42645           0
</event>
<event>
      5   9999  3.19816E-02  3.11361E+01 -1.00000E+00  1.51927E-01
      21    -1     0     0   512   501  0.000000000E+00  0.000000000E+00  8.753345672E+02  8.753345672E+02  0.000000000E+00  0.00000E+00  9.000E+00
      21    -1     0     0   501   502  0.000000000E+00  0.000000000E+00 -2.153135786E+02  2.153135786E+02  0.000000000E+00  0.00000E+00  9.000E+00
      25     1     1     2     0     0 -2.676243775E+02  1.285361124E+02 -3.147906382E+01  3.236669138E+02  1.250000000E+02  0.00000E+00  9.000E+00
      25     1     1     2     0     0  2.365153274E+02 -1.272392143E+02  5.807734727E+02  6.519602322E+02  1.250000000E+02  0.00000E+00  9.000E+00
      21     1     1     2   512   502  3.110905014E+01 -1.296898093E+00  1.107265796E+02  1.150209997E+02  1.348699152E-06  0.00000E+00  9.000E+00
#rwgt            1           1   2.7894687311338370E-002           7       43020           0
</event>
<event>
      5   9999  3.19816E-02  6.91665E+01 -1.00000E+00  1.31485E-01
       2    -1     0     0   502     0  0.000000000E+00  0.000000000E+00  2.419718952E+03  2.419718952E+03  0.000000000E+00  0.00000E+00  9.000E+00
      21    -1     0     0   501   502  0.000000000E+00  0.000000000E+00 -1.169260474E+02  1.169260474E+02  0.000000000E+00  0.00000E+00  9.000E+00
      25     1     1     2     0     0 -1.692410004E+02 -1.130032595E+02  2.257490774E+01  2.398893064E+02  1.250000000E+02  0.00000E+00  9.000E+00
      25     1     1     2     0     0  1.420023975E+02  4.942600427E+01  1.922064823E+03  1.931984937E+03  1.250000000E+02  0.00000E+00  9.000E+00
       2     1     1     2   501     0  2.723860288E+01  6.357725521E+01  3.581531732E+02  3.647707559E+02  3.814697266E-06  0.00000E+00  9.000E+00
#rwgt            1           1   3.8737391159591038E-002           7       43176           0
</event>
<event>
      5   9999  3.19816E-02  3.08900E+01 -1.00000E+00  1.52163E-01
      21    -1     0     0   511   501  0.000000000E+00  0.000000000E+00  2.528468639E+02  2.528468639E+02  0.000000000E+00  0.00000E+00  9.000E+00
      21    -1     0     0   501   502  0.000000000E+00  0.000000000E+00 -4.881619587E+02  4.881619587E+02  0.000000000E+00  0.00000E+00  9.000E+00
      25     1     1     2     0     0 -1.730944977E+02  4.900905248E+01  1.489337858E+02  2.648959511E+02  1.250000000E+02  0.00000E+00  9.000E+00
      25     1     1     2     0     0  1.795017458E+02 -1.879081079E+01 -3.871712703E+02  4.450848951E+02  1.250000000E+02  0.00000E+00  9.000E+00
      21     1     1     2   511   502 -6.407248058E+00 -3.021824169E+01  2.922389638E+00  3.102797640E+01  4.086288572E-07  0.00000E+00  9.000E+00
#rwgt            1           1   2.8748718468847485E-002           7       43286           0
</event>
<event>
      5   9999  3.19816E-02  2.97188E+01 -1.00000E+00  1.53324E-01
      21    -1     0     0   502   501  0.000000000E+00  0.000000000E+00  4.309192044E+02  4.309192044E+02  0.000000000E+00  0.00000E+00  9.000E+00
      -5    -1     0     0     0   502  0.000000000E+00  0.000000000E+00 -7.646311373E+02  7.646311373E+02  0.000000000E+00  0.00000E+00  9.000E+00
      25     1     1     2     0     0  1.056942059E+02  5.178050933E+02 -5.514621542E+01  5.458566523E+02  1.250000000E+02  0.00000E+00  9.000E+00
      25     1     1     2     0     0 -1.287714320E+02 -4.990794923E+02 -2.019451515E+02  5.675114674E+02  1.250000000E+02  0.00000E+00  9.000E+00
      -5     1     1     2     0   501  2.307722613E+01 -1.872560090E+01 -7.662056596E+01  8.218222206E+01  1.348699152E-06  0.00000E+00  9.000E+00
#rwgt            1           1   3.0083646753075857E-002           7       43519           0
</event>
<event>
      5   9999  3.19816E-02  6.24589E+01 -1.00000E+00  1.33778E-01
      21    -1     0     0   511   501  0.000000000E+00  0.000000000E+00  7.638799684E+01  7.638799684E+01  0.000000000E+00  0.00000E+00  9.000E+00
      21    -1     0     0   501   502  0.000000000E+00  0.000000000E+00 -1.634893337E+03  1.634893337E+03  0.000000000E+00  0.00000E+00  9.000E+00
      25     1     1     2     0     0 -2.394806844E+02  1.427124848E+02 -1.157225529E+03  1.196876675E+03  1.250000000E+02  0.00000E+00  9.000E+00
      25     1     1     2     0     0  2.055361748E+02 -9.028268908E+01 -3.461701814E+02  4.311088930E+02  1.250000000E+02  0.00000E+00  9.000E+00
      21     1     1     2   511   502  3.394450962E+01 -5.242979574E+01 -5.510962948E+01  8.329576506E+01  1.168007728E-06  0.00000E+00  9.000E+00
#rwgt            1           1   4.5471216925804785E-003           7       43705           0
</event>
<event>
      5   9999  3.19816E-02  1.27236E+01 -1.00000E+00  1.84394E-01
      21    -1     0     0   502   501  0.000000000E+00  0.000000000E+00  4.821115989E+02  4.821115989E+02  0.000000000E+00  0.00000E+00  9.000E+00
      21    -1     0     0   512   502  0.000000000E+00  0.000000000E+00 -3.784387800E+03  3.784387800E+03  0.000000000E+00  0.00000E+00  9.000E+00
      25     1     1     2     0     0 -4.157463362E+02 -6.360961107E+02 -3.327225422E+03  3.415189202E+03  1.250000000E+02  0.00000E+00  9.000E+00
      25     1     1     2     0     0  4.246590218E+02  6.270157401E+02  1.010458914E+02  7.741571516E+02  1.250000000E+02  0.00000E+00  9.000E+00
      21     1     1     2   512   501 -8.912685609E+00  9.080370523E+00 -7.609666993E+01  7.715304446E+01  9.536743164E-07  0.00000E+00  9.000E+00
#rwgt            1           1  0.11138760654746824                7       43766           0
</event>
<event>
      5   9999  3.19816E-02  8.18577E+01 -1.00000E+00  1.27869E-01
      21    -1     0     0   502   501  0.000000000E+00  0.000000000E+00  5.721331006E+02  5.721331006E+02  0.000000000E+00  0.00000E+00  9.000E+00
      21    -1     0     0   511   502  0.000000000E+00  0.000000000E+00 -4.813753674E+02  4.813753674E+02  0.000000000E+00  0.00000E+00  9.000E+00
      25     1     1     2     0     0  3.647988374E+02  6.456290725E+01  2.856790011E+02  4.842355340E+02  1.250000000E+02  0.00000E+00  9.000E+00
      25     1     1     2     0     0 -4.295320463E+02 -1.445998705E+01 -1.339342952E+02  4.671940341E+02  1.250000000E+02  0.00000E+00  9.000E+00
      21     1     1     2   511   501  6.473320896E+01 -5.010292021E+01 -6.098697266E+01  1.020788998E+02  1.348699152E-06  0.00000E+00  9.000E+00
#rwgt            1           1   2.3657392051165460E-002           7       44092           0
</event>
<event>
      5   9999  3.19816E-02  4.16671E+01 -1.00000E+00  1.43749E-01
      21    -1     0     0   502   512  0.000000000E+00  0.000000000E+00  3.770391467E+02  3.770391467E+02  0.000000000E+00  0.00000E+00  9.000E+00
      21    -1     0     0   501   502  0.000000000E+00  0.000000000E+00 -7.442642533E+02  7.442642533E+02  0.000000000E+00  0.00000E+00  9.000E+00
      25     1     1     2     0     0 -3.570814306E+02  1.836393397E+02 -4.498270481E+02  6.157921145E+02  1.250000000E+02  0.00000E+00  9.000E+00
      25     1     1     2     0     0  3.986565739E+02 -1.808726608E+02  8.736551820E+01  4.635727743E+02  1.250000000E+02  0.00000E+00  9.000E+00
      21     1     1     2   501   512 -4.157514327E+01 -2.766678907E+00 -4.763576771E+00  4.193851111E+01  1.332800375E-07  0.00000E+00  9.000E+00
#rwgt            1           1   2.7374650923482482E-002           7       44162           0
</event>
<event>
      5   9999  3.19816E-02  1.19202E+02 -1.00000E+00  1.20491E-01
      21    -1     0     0   502   501  0.000000000E+00  0.000000000E+00  7.306132988E+02  7.306132988E+02  0.000000000E+00  0.00000E+00  9.000E+00
       2    -1     0     0   501     0  0.000000000E+00  0.000000000E+00 -9.614208691E+02  9.614208691E+02  0.000000000E+00  0.00000E+00  9.000E+00
      25     1     1     2     0     0 -5.016436583E+02  2.348177064E+02  1.011574930E+02  5.767525930E+02  1.250000000E+02  0.00000E+00  9.000E+00
      25     1     1     2     0     0  4.027505890E+02 -3.013711222E+02  2.108242185E+02  5.595573620E+02  1.250000000E+02  0.00000E+00  9.000E+00
       2     1     1     2   502     0  9.889306924E+01  6.655341580E+01 -5.427892819E+02  5.557242129E+02  7.629394531E-06  0.00000E+00  9.000E+00
#rwgt            1           1   2.5407291097293429E-002           7       44318           0
</event>
<event>
      5   9999  3.19816E-02  5.14789E+01 -1.00000E+00  1.38357E-01
      21    -1     0     0   511   501  0.000000000E+00  0.000000000E+00  9.391421112E+02  9.391421112E+02  0.000000000E+00  0.00000E+00  9.000E+00
      21    -1     0     0   501   502  0.000000000E+00  0.000000000E+00 -1.210034065E+02  1.210034065E+02  0.000000000E+00  0.00000E+00  9.000E+00
      25     1     1     2     0     0 -2.023673455E+02 -5.114407977E+01  1.245467951E+02  2.733224535E+02  1.250000000E+02  0.00000E+00  9.000E+00
      25     1     1     2     0     0  2.527251617E+02  4.045936430E+01  4.139382124E+02  5.024707068E+02  1.250000000E+02  0.00000E+00  9.000E+00
      21     1     1     2   511   502 -5.035781622E+01  1.068471547E+01  2.796536972E+02  2.843523574E+02  5.394796609E-06  0.00000E+00  9.000E+00
#rwgt            1           1   2.6460156343025145E-002           7       44433           0
</event>
<event>
      5   9999  3.19816E-02  3.77717E+01 -1.00000E+00  1.46401E-01
      21    -1     0     0   502   501  0.000000000E+00  0.000000000E+00  4.008931014E+01  4.008931014E+01  0.000000000E+00  0.00000E+00  9.000E+00
      21    -1     0     0   512   502  0.000000000E+00  0.000000000E+00 -1.482556371E+03  1.482556371E+03  0.000000000E+00  0.00000E+00  9.000E+00
      25     1     1     2     0     0 -1.544505756E+01  1.652550040E+01 -8.779913559E+02  8.871332837E+02  1.250000000E+02  0.00000E+00  9.000E+00
      25     1     1     2     0     0  5.317260739E+01 -1.470006772E+01 -9.954323187E+01  1.690481386E+02  1.250000000E+02  0.00000E+00  9.000E+00
      21     1     1     2   512   501 -3.772754983E+01 -1.825432684E+00 -4.649324729E+02  4.664642586E+02  5.394796609E-06  0.00000E+00  9.000E+00
#rwgt            1           1   3.4128122810786324E-002           7       44586           0
</event>
<event>
      5   9999  3.19816E-02  1.56110E+01 -1.00000E+00  1.75766E-01
      21    -1     0     0   502   501  0.000000000E+00  0.000000000E+00  2.158038409E+02  2.158038409E+02  0.000000000E+00  0.00000E+00  9.000E+00
      21    -1     0     0   501   511  0.000000000E+00  0.000000000E+00 -2.070859552E+02  2.070859552E+02  0.000000000E+00  0.00000E+00  9.000E+00
      25     1     1     2     0     0  6.698767394E+01  8.063754625E+01  1.316976706E+02  2.096641094E+02  1.250000000E+02  0.00000E+00  9.000E+00
      25     1     1     2     0     0 -7.007223991E+01 -6.533432475E+01 -1.043734168E+02  1.889378282E+02  1.250000000E+02  0.00000E+00  9.000E+00
      21     1     1     2   502   511  3.084565966E+00 -1.530322150E+01 -1.860636808E+01  2.428785846E+01  5.331201500E-07  0.00000E+00  9.000E+00
#rwgt            1           1   2.4812631578111650E-002           7       44690           0
</event>
<event>
      5   9999  3.19816E-02  2.92490E+01 -1.00000E+00  1.53808E-01
      21    -1     0     0   512   501  0.000000000E+00  0.000000000E+00  3.059317676E+02  3.059317676E+02  0.000000000E+00  0.00000E+00  9.000E+00
      21    -1     0     0   501   502  0.000000000E+00  0.000000000E+00 -3.404244618E+02  3.404244618E+02  0.000000000E+00  0.00000E+00  9.000E+00
      25     1     1     2     0     0 -2.053430353E+02  1.562211572E+02 -1.089041856E+02  3.066853987E+02  1.250000000E+02  0.00000E+00  9.000E+00
      25     1     1     2     0     0  2.328896332E+02 -1.463879833E+02  6.664985179E+01  3.094094789E+02  1.250000000E+02  0.00000E+00  9.000E+00
      21     1     1     2   512   502 -2.754659789E+01 -9.833173907E+00  7.761639631E+00  3.026135182E+01  2.064765462E-07  0.00000E+00  9.000E+00
#rwgt            1           1   2.6782013563638435E-002           7       44831           0
</event>
<event>
      5   9999  3.19816E-02  3.26411E+01 -1.00000E+00  1.50538E-01
      21    -1     0     0   502   501  0.000000000E+00  0.000000000E+00  1.560067816E+02  1.560067816E+02  0.000000000E+00  0.00000E+00  9.000E+00
      21    -1     0     0   501   511  0.000000000E+00  0.000000000E+00 -3.192096460E+03  3.192096460E+03  0.000000000E+00  0.00000E+00  9.000E+00
      25     1     1     2     0     0  3.371970362E+02 -1.210973077E+02 -2.803887837E+03  2.829448428E+03  1.250000000E+02  0.00000E+00  9.000E+00
      25     1     1     2     0     0 -3.095046044E+02  1.038181057E+02 -7.424859115E+01  3.573641735E+02  1.250000000E+02  0.00000E+00  9.000E+00
      21     1     1     2   502   511 -2.769243174E+01  1.727920203E+01 -1.579532496E+02  1.612906403E+02  2.697398305E-06  0.00000E+00  9.000E+00
#rwgt            1           1   6.3858344917994705E-002           7       44960           0
</event>
<event>
      5   9999  3.19816E-02  3.50513E+01 -1.00000E+00  1.48489E-01
      21    -1     0     0   502   512  0.000000000E+00  0.000000000E+00  2.192219502E+02  2.192219502E+02  0.000000000E+00  0.00000E+00  9.000E+00
      21    -1     0     0   501   502  0.000000000E+00  0.000000000E+00 -1.024064485E+03  1.024064485E+03  0.000000000E+00  0.00000E+00  9.000E+00
      25     1     1     2     0     0 -1.761040339E+02  1.214085393E+02  1.099595349E+02  2.710512193E+02  1.250000000E+02  0.00000E+00  9.000E+00
      25     1     1     2     0     0  1.671397669E+02 -1.552942056E+02 -8.948613232E+02  9.319086756E+02  1.250000000E+02  0.00000E+00  9.000E+00
      21     1     1     2   501   512  8.964266912E+00  3.388566629E+01 -1.994074610E+01  4.032653985E+01  5.331201500E-07  0.00000E+00  9.000E+00
#rwgt            1           1   2.9504713321193445E-002           7       45127           0
</event>
<event>
      5   9999  3.19816E-02  6.40327E+01 -1.00000E+00  1.33211E-01
      21    -1     0     0   502   501  0.000000000E+00  0.000000000E+00  1.801353012E+02  1.801353012E+02  0.000000000E+00  0.00000E+00  9.000E+00
      21    -1     0     0   511   502  0.000000000E+00  0.000000000E+00 -6.683680768E+02  6.683680768E+02  0.000000000E+00  0.00000E+00  9.000E+00
      25     1     1     2     0     0 -2.152806317E+02 -2.197366470E+01 -2.922259688E+01  2.516099213E+02  1.250000000E+02  0.00000E+00  9.000E+00
      25     1     1     2     0     0  1.702786489E+02 -2.357855891E+01 -1.048673266E+02  2.370082760E+02  1.250000000E+02  0.00000E+00  9.000E+00
      21     1     1     2   511   501  4.500198279E+01  4.555222362E+01 -3.541428522E+02  3.598851807E+02  3.814697266E-06  0.00000E+00  9.000E+00
#rwgt            1           1   2.6829499665401487E-002           7       45281           0
</event>
<event>
      5   9999  3.19816E-02  1.25790E+02 -1.00000E+00  1.19506E-01
      21    -1     0     0   512   501  0.000000000E+00  0.000000000E+00  2.003964792E+02  2.003964792E+02  0.000000000E+00  0.00000E+00  9.000E+00
      21    -1     0     0   501   502  0.000000000E+00  0.000000000E+00 -1.012503574E+03  1.012503574E+03  0.000000000E+00  0.00000E+00  9.000E+00
      25     1     1     2     0     0 -8.931052562E+01 -3.982445797E+02 -2.760347372E+02  5.083259696E+02  1.250000000E+02  0.00000E+00  9.000E+00
      25     1     1     2     0     0  8.933080716E+01  2.724547605E+02 -4.640524425E+02  5.596259993E+02  1.250000000E+02  0.00000E+00  9.000E+00
      21     1     1     2   512   502 -2.028153616E-02  1.257898192E+02 -7.201991541E+01  1.449480846E+02  2.336015456E-06  0.00000E+00  9.000E+00
#rwgt            1           1   2.7579664507410784E-002           7       45362           0
</event>
<event>
      5   9999  3.19816E-02  2.35644E+02 -1.00000E+00  1.09115E-01
      21    -1     0     0   502   501  0.000000000E+00  0.000000000E+00  6.828166441E+02  6.828166441E+02  0.000000000E+00  0.00000E+00  9.000E+00
       2    -1     0     0   501     0  0.000000000E+00  0.000000000E+00 -1.952918804E+03  1.952918804E+03  0.000000000E+00  0.00000E+00  9.000E+00
      25     1     1     2     0     0 -7.384599554E+02 -1.372422176E+02 -2.892927079E+01  7.619845370E+02  1.250000000E+02  0.00000E+00  9.000E+00
      25     1     1     2     0     0  6.571175669E+02  3.584016118E+02 -1.709389370E+02  7.778819526E+02  1.250000000E+02  0.00000E+00  9.000E+00
       2     1     1     2   502     0  8.134238847E+01 -2.211593942E+02 -1.070233952E+03  1.095868959E+03  2.157918644E-05  0.00000E+00  9.000E+00
#rwgt            1           1   2.2274212687930475E-002           7       45448           0
</event>
<event>
      5   9999  3.19816E-02  1.09892E+01 -1.00000E+00  1.91138E-01
      21    -1     0     0   502   501  0.000000000E+00  0.000000000E+00  1.789389177E+02  1.789389177E+02  0.000000000E+00  0.00000E+00  9.000E+00
      21    -1     0     0   511   502  0.000000000E+00  0.000000000E+00 -6.343671590E+02  6.343671590E+02  0.000000000E+00  0.00000E+00  9.000E+00
      25     1     1     2     0     0  1.850682513E+02  1.471987487E+02 -1.420771654E+01  2.678518032E+02  1.250000000E+02  0.00000E+00  9.000E+00
      25     1     1     2     0     0 -1.954211467E+02 -1.435135708E+02 -3.065877546E+02  4.103737575E+02  1.250000000E+02  0.00000E+00  9.000E+00
      21     1     1     2   511   501  1.035289543E+01 -3.685177911E+00 -1.346327702E+02  1.350805160E+02  1.907348633E-06  0.00000E+00  9.000E+00
#rwgt            1           1   2.8997526056338933E-002           7       45547           0
</event>
<event>
      5   9999  3.19816E-02  9.58130E+00 -1.00000E+00  1.97929E-01
      21    -1     0     0   502   501  0.000000000E+00  0.000000000E+00  5.803009114E+01  5.803009114E+01  0.000000000E+00  0.00000E+00  9.000E+00
      21    -1     0     0   512   502  0.000000000E+00  0.000000000E+00 -1.318585086E+03  1.318585086E+03  0.000000000E+00  0.00000E+00  9.000E+00
      25     1     1     2     0     0 -5.083885187E+01  1.846976479E+02 -8.645415284E+02  8.942901455E+02  1.250000000E+02  0.00000E+00  9.000E+00
      25     1     1     2     0     0  5.490972972E+01 -1.760241623E+02 -2.454882871E+02  3.314952236E+02  1.250000000E+02  0.00000E+00  9.000E+00
      21     1     1     2   512   501 -4.070877849E+00 -8.673485646E+00 -1.505251789E+02  1.508298077E+02  2.697398305E-06  0.00000E+00  9.000E+00
#rwgt            1           1   2.8447314746429773E-002           7       45729           0
</event>
<event>
      5   9999  3.19816E-02  2.36077E+01 -1.00000E+00  1.60638E-01
      21    -1     0     0   502   501  0.000000000E+00  0.000000000E+00  2.547868440E+02  2.547868440E+02  0.000000000E+00  0.00000E+00  9.000E+00
      21    -1     0     0   501   511  0.000000000E+00  0.000000000E+00 -5.125194947E+02  5.125194947E+02  0.000000000E+00  0.00000E+00  9.000E+00
      25     1     1     2     0     0 -1.639519791E+02 -1.768554917E+01 -4.222615302E+02  4.702369934E+02  1.250000000E+02  0.00000E+00  9.000E+00
      25     1     1     2     0     0  1.569877335E+02 -4.871555298E+00  1.793585993E+02  2.691902444E+02  1.250000000E+02  0.00000E+00  9.000E+00
      21     1     1     2   502   511  6.964245527E+00  2.255710447E+01 -1.482971973E+01  2.787910087E+01  1.685873940E-07  0.00000E+00  9.000E+00
#rwgt            1           1   2.9244294627508521E-002           7       45967           0
</event>
<event>
      5   9999  3.19816E-02  4.75682E+01 -1.00000E+00  1.40322E-01
      21    -1     0     0   502   512  0.000000000E+00  0.000000000E+00  1.603556329E+02  1.603556329E+02  0.000000000E+00  0.00000E+00  9.000E+00
      21    -1     0     0   501   502  0.000000000E+00  0.000000000E+00 -8.004532466E+02  8.004532466E+02  0.000000000E+00  0.00000E+00  9.000E+00
      25     1     1     2     0     0 -3.554583161E+01 -3.039311462E+02 -2.897152883E+02  4.395424849E+02  1.250000000E+02  0.00000E+00  9.000E+00
      25     1     1     2     0     0  8.310916133E+01  3.032525278E+02 -3.079157641E+02  4.575001050E+02  1.250000000E+02  0.00000E+00  9.000E+00
      21     1     1     2   501   512 -4.756332972E+01  6.786183514E-01 -4.246656127E+01  6.376628955E+01  1.168007728E-06  0.00000E+00  9.000E+00
#rwgt            1           1   2.8928224950291806E-002           7       46195           0
</event>
<event>
      5   9999  3.19816E-02  1.47010E+01 -1.00000E+00  1.78211E-01
      21    -1     0     0   511   501  0.000000000E+00  0.000000000E+00  1.406770960E+03  1.406770960E+03  0.000000000E+00  0.00000E+00  9.000E+00
      21    -1     0     0   501   502  0.000000000E+00  0.000000000E+00 -1.264954153E+03  1.264954153E+03  0.000000000E+00  0.00000E+00  9.000E+00
      25     1     1     2     0     0  1.025386065E+03 -4.981192940E+02 -5.716386334E+02  1.281380170E+03  1.250000000E+02  0.00000E+00  9.000E+00
      25     1     1     2     0     0 -1.039022985E+03  5.036105143E+02  6.619560304E+02  1.336788353E+03  1.250000000E+02  0.00000E+00  9.000E+00
      21     1     1     2   511   502  1.363692048E+01 -5.491220263E+00  5.149941015E+01  5.355659012E+01  0.000000000E+00  0.00000E+00  9.000E+00
#rwgt            1           1   5.7420006246966145E-002           7       46289           0
</event>
<event>
      5   9999  3.19816E-02  1.68112E+01 -1.00000E+00  1.72843E-01
      21    -1     0     0   502   501  0.000000000E+00  0.000000000E+00  7.756236725E+01  7.756236725E+01  0.000000000E+00  0.00000E+00  9.000E+00
      21    -1     0     0   501   512  0.000000000E+00  0.000000000E+00 -6.750290440E+02  6.750290440E+02  0.000000000E+00  0.00000E+00  9.000E+00
      25     1     1     2     0     0 -1.043213314E+02 -2.490829553E+00 -5.127471919E+02  5.379812518E+02  1.250000000E+02  0.00000E+00  9.000E+00
      25     1     1     2     0     0  1.210999100E+02  1.443329139E+00 -5.878990366E+01  1.837077140E+02  1.250000000E+02  0.00000E+00  9.000E+00
      21     1     1     2   502   512 -1.677857861E+01  1.047500414E+00 -2.592958118E+01  3.090244550E+01  4.768371582E-07  0.00000E+00  9.000E+00
#rwgt            1           1   3.0810846792680865E-002           7       46591           0
</event>
<event>
      5   9999  3.19816E-02  1.42560E+02 -1.00000E+00  1.17276E-01
      21    -1     0     0   502   501  0.000000000E+00  0.000000000E+00  1.930058353E+02  1.930058353E+02  0.000000000E+00  0.00000E+00  9.000E+00
       1    -1     0     0   501     0  0.000000000E+00  0.000000000E+00 -7.575327704E+02  7.575327704E+02  0.000000000E+00  0.00000E+00  9.000E+00
      25     1     1     2     0     0 -9.265678187E+01  2.097120559E+02 -9.714932914E+01  2.786169732E+02  1.250000000E+02  0.00000E+00  9.000E+00
      25     1     1     2     0     0  1.906864859E+02 -1.062059502E+02 -8.772624990E+01  2.663868140E+02  1.250000000E+02  0.00000E+00  9.000E+00
       1     1     1     2   502     0 -9.802970402E+01 -1.035061056E+02 -3.796513561E+02  4.055348185E+02  0.000000000E+00  0.00000E+00  9.000E+00
#rwgt            1           1   2.7367837092348687E-002           7       46755           0
</event>
<event>
      5   9999  3.19816E-02  2.45048E+01 -1.00000E+00  1.59404E-01
      21    -1     0     0   502   501  0.000000000E+00  0.000000000E+00  1.732788649E+02  1.732788649E+02  0.000000000E+00  0.00000E+00  9.000E+00
       2    -1     0     0   501     0  0.000000000E+00  0.000000000E+00 -1.171706602E+03  1.171706602E+03  0.000000000E+00  0.00000E+00  9.000E+00
      25     1     1     2     0     0 -1.208171453E+01  9.990243453E+01 -4.317103876E+02  4.605706493E+02  1.250000000E+02  0.00000E+00  9.000E+00
      25     1     1     2     0     0  8.952074068E+00 -1.242065328E+02  1.095613508E+02  2.076923012E+02  1.250000000E+02  0.00000E+00  9.000E+00
       2     1     1     2   502     0  3.129640463E+00  2.430409823E+01 -6.762786998E+02  6.767225160E+02  7.629394531E-06  0.00000E+00  9.000E+00
#rwgt            1           1   3.0927250645078046E-002           7       46826           0
</event>
<event>
      5   9999  3.19816E-02  1.79496E+02 -1.00000E+00  1.13385E-01
      21    -1     0     0   502   501  0.000000000E+00  0.000000000E+00  5.824953893E+02  5.824953893E+02  0.000000000E+00  0.00000E+00  9.000E+00
       3    -1     0     0   501     0  0.000000000E+00  0.000000000E+00 -1.295965128E+03  1.295965128E+03  0.000000000E+00  0.00000E+00  9.000E+00
      25     1     1     2     0     0  3.183360126E+02 -6.621020423E+02 -5.203664777E+02  9.089131985E+02  1.250000000E+02  0.00000E+00  9.000E+00
      25     1     1     2     0     0 -3.261514410E+02  4.827759981E+02  1.207502994E+02  6.079910046E+02  1.250000000E+02  0.00000E+00  9.000E+00
       3     1     1     2   502     0  7.815428401E+00  1.793260442E+02 -3.138535606E+02  3.615563145E+02  0.000000000E+00  0.00000E+00  9.000E+00
#rwgt            2          14   3.4117628818149967E-005           7       47067           0
</event>
<event>
      5   9999  3.19816E-02  1.53263E+02 -1.00000E+00  1.16024E-01
      21    -1     0     0   502   501  0.000000000E+00  0.000000000E+00  6.219634924E+02  6.219634924E+02  0.000000000E+00  0.00000E+00  9.000E+00
      -4    -1     0     0     0   502  0.000000000E+00  0.000000000E+00 -1.525928822E+03  1.525928822E+03  0.000000000E+00  0.00000E+00  9.000E+00
      25     1     1     2     0     0  3.680966070E+02  5.708681555E+01  8.299906418E+01  4.015816993E+02  1.250000000E+02  0.00000E+00  9.000E+00
      25     1     1     2     0     0 -5.213501000E+02 -5.537420889E+01  1.808284682E+02  5.685034430E+02  1.250000000E+02  0.00000E+00  9.000E+00
      -4     1     1     2     0   501  1.532534930E+02 -1.712606656E+00 -1.167792862E+03  1.177807172E+03  1.525878906E-05  0.00000E+00  9.000E+00
#rwgt            1           1   2.8107848762844070E-002           7       47131           0
</event>
<event>
      5   9999  3.19816E-02  6.12989E+01 -1.00000E+00  1.34208E-01
      21    -1     0     0   502   501  0.000000000E+00  0.000000000E+00  1.504813878E+02  1.504813878E+02  0.000000000E+00  0.00000E+00  9.000E+00
      21    -1     0     0   511   502  0.000000000E+00  0.000000000E+00 -5.672842022E+02  5.672842022E+02  0.000000000E+00  0.00000E+00  9.000E+00
      25     1     1     2     0     0 -8.815429288E+01  1.406323265E+02 -3.801825417E+02  4.332578858E+02  1.250000000E+02  0.00000E+00  9.000E+00
      25     1     1     2     0     0  1.294604871E+02 -9.534045014E+01  1.522766655E+01  2.042221853E+02  1.250000000E+02  0.00000E+00  9.000E+00
      21     1     1     2   511   501 -4.130619418E+01 -4.529187632E+01 -5.184793930E+01  8.028551892E+01  6.743495762E-07  0.00000E+00  9.000E+00
#rwgt            1           1   3.1489869282957238E-002           7       47185           0
</event>
<event>
      5   9999  3.19816E-02  1.80111E+01 -1.00000E+00  1.70212E-01
      21    -1     0     0   512   501  0.000000000E+00  0.000000000E+00  1.457563645E+02  1.457563645E+02  0.000000000E+00  0.00000E+00  9.000E+00
      21    -1     0     0   501   502  0.000000000E+00  0.000000000E+00 -6.664755637E+02  6.664755637E+02  0.000000000E+00  0.00000E+00  9.000E+00
      25     1     1     2     0     0 -2.706592852E+02 -5.136803575E+01 -2.264087105E+02  3.778637690E+02  1.250000000E+02  0.00000E+00  9.000E+00
      25     1     1     2     0     0  2.627614523E+02  6.755518647E+01 -2.888889242E+02  4.155587739E+02  1.250000000E+02  0.00000E+00  9.000E+00
      21     1     1     2   512   502  7.897832904E+00 -1.618715072E+01 -5.421564501E+00  1.880938528E+01  1.788139343E-07  0.00000E+00  9.000E+00
#rwgt            1           1   2.8097242278309793E-002           7       47242           0
</event>
<event>
      5   9999  3.19816E-02  1.92441E+02 -1.00000E+00  1.12261E-01
      21    -1     0     0   502   501  0.000000000E+00  0.000000000E+00  7.580861936E+01  7.580861936E+01  0.000000000E+00  0.00000E+00  9.000E+00
       2    -1     0     0   501     0  0.000000000E+00  0.000000000E+00 -2.183806978E+03  2.183806978E+03  0.000000000E+00  0.00000E+00  9.000E+00
      25     1     1     2     0     0  2.887731606E+02 -3.031047902E+01 -1.065324825E+03  1.111238339E+03  1.250000000E+02  0.00000E+00  9.000E+00
      25     1     1     2     0     0 -1.705755954E+02  1.821757546E+02 -5.005943408E+02  5.731524521E+02  1.250000000E+02  0.00000E+00  9.000E+00
       2     1     1     2   502     0 -1.181975652E+02 -1.518652756E+02 -5.420791927E+02  5.752248061E+02  1.078959322E-05  0.00000E+00  9.000E+00
#rwgt            2          13   1.4018856647280949E-003           7       47448           0
</event>
<event>
      5   9999  3.19816E-02  2.58580E+01 -1.00000E+00  1.57661E-01
      21    -1     0     0   502   501  0.000000000E+00  0.000000000E+00  6.496918843E+02  6.496918843E+02  0.000000000E+00  0.00000E+00  9.000E+00
      21    -1     0     0   511   502  0.000000000E+00  0.000000000E+00 -8.511079300E+02  8.511079300E+02  0.000000000E+00  0.00000E+00  9.000E+00
      25     1     1     2     0     0 -4.174187080E+02  7.529659326E+01 -1.641450912E+02  4.716742157E+02  1.250000000E+02  0.00000E+00  9.000E+00
      25     1     1     2     0     0  3.967059724E+02 -9.077616332E+01  4.041145012E+02  5.869833647E+02  1.250000000E+02  0.00000E+00  9.000E+00
      21     1     1     2   511   501  2.071273565E+01  1.547957006E+01 -4.413854558E+02  4.421422340E+02  7.629394531E-06  0.00000E+00  9.000E+00
#rwgt            1           1   2.8297653717617156E-002           7       47467           0
</event>
<event>
      5   9999  3.19816E-02  4.81486E+01 -1.00000E+00  1.40017E-01
      21    -1     0     0   512   501  0.000000000E+00  0.000000000E+00  1.470802612E+03  1.470802612E+03  0.000000000E+00  0.00000E+00  9.000E+00
      21    -1     0     0   501   502  0.000000000E+00  0.000000000E+00 -2.275038596E+02  2.275038596E+02  0.000000000E+00  0.00000E+00  9.000E+00
      25     1     1     2     0     0 -7.307458417E+01  3.013870594E+02 -6.502035924E+01  3.406269242E+02  1.250000000E+02  0.00000E+00  9.000E+00
      25     1     1     2     0     0  9.577864816E+01 -2.589275478E+02  1.220126989E+03  1.257200021E+03  1.250000000E+02  0.00000E+00  9.000E+00
      21     1     1     2   512   502 -2.270406400E+01 -4.245951158E+01  8.819212290E+01  1.004795262E+02  1.348699152E-06  0.00000E+00  9.000E+00
#rwgt            1           1   2.4976629263448697E-002           7       47673           0
</event>
<event>
      5   9999  3.19816E-02  9.00226E+01 -1.00000E+00  1.25916E-01
      21    -1     0     0   502   501  0.000000000E+00  0.000000000E+00  6.014717131E+02  6.014717131E+02  0.000000000E+00  0.00000E+00  9.000E+00
      21    -1     0     0   501   511  0.000000000E+00  0.000000000E+00 -9.443877112E+02  9.443877112E+02  0.000000000E+00  0.00000E+00  9.000E+00
      25     1     1     2     0     0 -1.288907764E+02  7.557027851E+01  5.522252549E+01  2.024801881E+02  1.250000000E+02  0.00000E+00  9.000E+00
      25     1     1     2     0     0  6.642808700E+01 -1.074371600E+01  4.595509344E+02  4.809783566E+02  1.250000000E+02  0.00000E+00  9.000E+00
      21     1     1     2   502   511  6.246268938E+01 -6.482656251E+01 -8.576894581E+02  8.624008797E+02  1.078959322E-05  0.00000E+00  9.000E+00
#rwgt            1           1   1.4864823131076565E-002           7       47834           0
</event>
<event>
      5   9999  3.19816E-02  9.96041E+01 -1.00000E+00  1.23905E-01
      21    -1     0     0   502   501  0.000000000E+00  0.000000000E+00  5.937303784E+02  5.937303784E+02  0.000000000E+00  0.00000E+00  9.000E+00
      21    -1     0     0   501   512  0.000000000E+00  0.000000000E+00 -2.039777591E+03  2.039777591E+03  0.000000000E+00  0.00000E+00  9.000E+00
      25     1     1     2     0     0 -2.517207230E+02 -2.169647521E+02  3.842488449E+02  5.231722477E+02  1.250000000E+02  0.00000E+00  9.000E+00
      25     1     1     2     0     0  3.365032540E+02  2.692418514E+02 -2.250348660E+02  5.019873559E+02  1.250000000E+02  0.00000E+00  9.000E+00
      21     1     1     2   502   512 -8.478253107E+01 -5.227709934E+01 -1.605261191E+03  1.608348366E+03  0.000000000E+00  0.00000E+00  9.000E+00
#rwgt            2          11   3.1461934471554774E-003           7       48028           0
</event>
<event>
      5   9999  3.30958E-02  1.96279E+01 -1.00000E+00  1.67045E-01
      21    -1     0     0   511   501  0.000000000E+00  0.000000000E+00  1.047333557E+02  1.047333557E+02  0.000000000E+00  0.00000E+00  9.000E+00
      21    -1     0     0   501   502  0.000000000E+00  0.000000000E+00 -1.736227318E+03  1.736227318E+03  0.000000000E+00  0.00000E+00  9.000E+00
      25     1     1     2     0     0 -1.096047569E+02 -1.199206837E+02 -8.546297218E+02  8.788692363E+02  1.250000000E+02  0.00000E+00  9.000E+00
      25     1     1     2     0     0  1.158555950E+02  1.385266818E+02 -8.543652868E+02  8.821435279E+02  1.250000000E+02  0.00000E+00  9.000E+00
      21     1     1     2   511   502 -6.250838140E+00 -1.860599813E+01  7.750104605E+01  7.994790980E+01  4.046097457E-06  0.00000E+00  9.000E+00
#rwgt            1           1  0.10160727177372447                7       48063           0
</event>
<event>
      5   9999  3.19816E-02  1.90260E+01 -1.00000E+00  1.68178E-01
      21    -1     0     0   502   501  0.000000000E+00  0.000000000E+00  4.383971941E+02  4.383971941E+02  0.000000000E+00  0.00000E+00  9.000E+00
      21    -1     0     0   512   502  0.000000000E+00  0.000000000E+00 -9.455409090E+01  9.455409090E+01  0.000000000E+00  0.00000E+00  9.000E+00
      25     1     1     2     0     0  5.291017011E+01 -4.027210868E+01  3.393890863E+02  3.677380600E+02  1.250000000E+02  0.00000E+00  9.000E+00
      25     1     1     2     0     0 -4.619686815E+01  5.807441077E+01  9.018718820E+00  1.456472626E+02  1.250000000E+02  0.00000E+00  9.000E+00
      21     1     1     2   512   501 -6.713301967E+00 -1.780230209E+01 -4.564701926E+00  1.956596245E+01  5.127385418E-07  0.00000E+00  9.000E+00
#rwgt            1           1   2.6990398568293491E-002           7       48201           0
</event>
<event>
      5   9999  3.19816E-02  2.44817E+02 -1.00000E+00  1.08542E-01
      21    -1     0     0   502   501  0.000000000E+00  0.000000000E+00  5.616007369E+02  5.616007369E+02  0.000000000E+00  0.00000E+00  9.000E+00
      -4    -1     0     0     0   502  0.000000000E+00  0.000000000E+00 -4.030578588E+02  4.030578588E+02  0.000000000E+00  0.00000E+00  9.000E+00
      25     1     1     2     0     0  1.250388108E+02  2.005282524E+02  4.641600562E+01  2.713406158E+02  1.250000000E+02  0.00000E+00  9.000E+00
      25     1     1     2     0     0 -3.644225968E+02 -1.492382573E+02  1.614460885E+02  4.435828288E+02  1.250000000E+02  0.00000E+00  9.000E+00
      -4     1     1     2     0   501  2.393837860E+02 -5.128999507E+01 -4.931921612E+01  2.497351511E+02  5.761645304E-06  0.00000E+00  9.000E+00
#rwgt            1           1   2.7768804326983910E-002           7       48368           0
</event>
<event>
      5   9999  3.19816E-02  1.66610E+02 -1.00000E+00  1.14614E-01
      21    -1     0     0   502   501  0.000000000E+00  0.000000000E+00  1.414803600E+03  1.414803600E+03  0.000000000E+00  0.00000E+00  9.000E+00
      21    -1     0     0   501   511  0.000000000E+00  0.000000000E+00 -4.038532244E+02  4.038532244E+02  0.000000000E+00  0.00000E+00  9.000E+00
      25     1     1     2     0     0  3.420721330E+01 -4.707459866E+02  1.081449208E+02  5.000922327E+02  1.250000000E+02  0.00000E+00  9.000E+00
      25     1     1     2     0     0 -1.864614578E+01  6.366272512E+02  9.452516356E+02  1.146633154E+03  1.250000000E+02  0.00000E+00  9.000E+00
      21     1     1     2   502   511 -1.556106752E+01 -1.658812647E+02 -4.244618114E+01  1.719314372E+02  3.662655710E-06  0.00000E+00  9.000E+00
#rwgt            1           1   3.0095943843411691E-002           7       48407           0
</event>
<event>
      5   9999  3.19816E-02  1.77557E+01 -1.00000E+00  1.70750E-01
      21    -1     0     0   502   501  0.000000000E+00  0.000000000E+00  1.475116088E+02  1.475116088E+02  0.000000000E+00  0.00000E+00  9.000E+00
      21    -1     0     0   501   512  0.000000000E+00  0.000000000E+00 -5.341787887E+02  5.341787887E+02  0.000000000E+00  0.00000E+00  9.000E+00
      25     1     1     2     0     0  1.275692360E+02  7.720880459E+01  3.977147545E+01  1.985997979E+02  1.250000000E+02  0.00000E+00  9.000E+00
      25     1     1     2     0     0 -1.452527375E+02 -7.880817012E+01 -4.073485529E+02  4.570196155E+02  1.250000000E+02  0.00000E+00  9.000E+00
      21     1     1     2   502   512  1.768350151E+01  1.599365526E+00 -1.909010255E+01  2.607098408E+01  2.384185791E-07  0.00000E+00  9.000E+00
#rwgt            1           1   2.6461393942426345E-002           7       48479           0
</event>
<event>
      5   9999  3.19816E-02  1.25499E+02 -1.00000E+00  1.19548E-01
      21    -1     0     0   502   511  0.000000000E+00  0.000000000E+00  4.055909090E+02  4.055909090E+02  0.000000000E+00  0.00000E+00  9.000E+00
      21    -1     0     0   501   502  0.000000000E+00  0.000000000E+00 -1.085444694E+03  1.085444694E+03  0.000000000E+00  0.00000E+00  9.000E+00
      25     1     1     2     0     0 -2.071972231E+02  3.653392497E+02 -7.196512082E+02  8.425712540E+02  1.250000000E+02  0.00000E+00  9.000E+00
      25     1     1     2     0     0  3.315205401E+02 -3.824758597E+02  4.086068090E+01  5.229610378E+02  1.250000000E+02  0.00000E+00  9.000E+00
      21     1     1     2   501   511 -1.243233170E+02  1.713661006E+01 -1.063257499E+00  1.255033110E+02  2.305205302E-06  0.00000E+00  9.000E+00
#rwgt            2          11   6.8441522102398481E-003           7       48783           0
</event>
<event>
      5   9999  3.19816E-02  2.51717E+01 -1.00000E+00  1.58529E-01
      21    -1     0     0   502   501  0.000000000E+00  0.000000000E+00  7.678497845E+02  7.678497845E+02  0.000000000E+00  0.00000E+00  9.000E+00
      21    -1     0     0   501   512  0.000000000E+00  0.000000000E+00 -1.972366873E+02  1.972366873E+02  0.000000000E+00  0.00000E+00  9.000E+00
      25     1     1     2     0     0  2.193538020E+02  5.542446620E+01  6.005981861E+02  6.538586568E+02  1.250000000E+02  0.00000E+00  9.000E+00
      25     1     1     2     0     0 -2.354934608E+02 -7.474092315E+01 -6.751744902E+00  2.769728538E+02  1.250000000E+02  0.00000E+00  9.000E+00
      21     1     1     2   502   512  1.613965879E+01  1.931645695E+01 -2.323334401E+01  3.425496123E+01  8.259061849E-07  0.00000E+00  9.000E+00
#rwgt            1           1   2.8140044126481044E-002           7       48848           0
</event>
<event>
      5   9999  3.19816E-02  6.19801E+01 -1.00000E+00  1.33954E-01
      21    -1     0     0   502   501  0.000000000E+00  0.000000000E+00  7.377187480E+02  7.377187480E+02  0.000000000E+00  0.00000E+00  9.000E+00
      21    -1     0     0   501   511  0.000000000E+00  0.000000000E+00 -9.916205288E+02  9.916205288E+02  0.000000000E+00  0.00000E+00  9.000E+00
      25     1     1     2     0     0  3.522465891E+02 -5.300277345E+02 -4.064819049E+02  7.654146574E+02  1.250000000E+02  0.00000E+00  9.000E+00
      25     1     1     2     0     0 -3.005574649E+02  5.642295144E+02  3.622086581E+02  7.453253294E+02  1.250000000E+02  0.00000E+00  9.000E+00
      21     1     1     2   502   511 -5.168912412E+01 -3.420177986E+01 -2.096285340E+02  2.185992899E+02  0.000000000E+00  0.00000E+00  9.000E+00
#rwgt            1           1   3.0426172382669096E-002           7       49041           0
</event>
<event>
      5   9999  3.19816E-02  3.04887E+02 -1.00000E+00  1.05364E-01
      21    -1     0     0   502   512  0.000000000E+00  0.000000000E+00  2.443906603E+02  2.443906603E+02  0.000000000E+00  0.00000E+00  9.000E+00
      21    -1     0     0   501   502  0.000000000E+00  0.000000000E+00 -1.445909410E+03  1.445909410E+03  0.000000000E+00  0.00000E+00  9.000E+00
      25     1     1     2     0     0  4.205070595E+02 -7.503574153E+00 -5.366610044E+02  6.931901069E+02  1.250000000E+02  0.00000E+00  9.000E+00
      25     1     1     2     0     0 -2.459566638E+02  2.574806026E+02 -5.588157151E+02  6.743077522E+02  1.250000000E+02  0.00000E+00  9.000E+00
      21     1     1     2   501   512 -1.745503957E+02 -2.499770284E+02 -1.060420301E+02  3.228022112E+02  7.387129490E-06  0.00000E+00  9.000E+00
#rwgt            1           1   2.3903265343091739E-002           7       49246           0
</event>
<event>
      5   9999  3.19816E-02  2.49237E+01 -1.00000E+00  1.58850E-01
      21    -1     0     0   502   501  0.000000000E+00  0.000000000E+00  5.921919153E+02  5.921919153E+02  0.000000000E+00  0.00000E+00  9.000E+00
      21    -1     0     0   501   511  0.000000000E+00  0.000000000E+00 -1.185855894E+02  1.185855894E+02  0.000000000E+00  0.00000E+00  9.000E+00
      25     1     1     2     0     0 -1.144010012E+02  8.713781095E+01 -9.756304249E-01  1.905427486E+02  1.250000000E+02  0.00000E+00  9.000E+00
      25     1     1     2     0     0  1.040835778E+02 -6.444984626E+01  4.580451498E+02  4.903239064E+02  1.250000000E+02  0.00000E+00  9.000E+00
      21     1     1     2   502   511  1.031742338E+01 -2.268796470E+01  1.653680644E+01  2.991084978E+01  4.768371582E-07  0.00000E+00  9.000E+00
#rwgt            1           1   2.9856186109075877E-002           7       49274           0
</event>
<event>
      5   9999  3.19816E-02  7.67959E+01 -1.00000E+00  1.29215E-01
      21    -1     0     0   502   501  0.000000000E+00  0.000000000E+00  4.034922761E+03  4.034922761E+03  0.000000000E+00  0.00000E+00  9.000E+00
      21    -1     0     0   512   502  0.000000000E+00  0.000000000E+00 -1.186821540E+02  1.186821540E+02  0.000000000E+00  0.00000E+00  9.000E+00
      25     1     1     2     0     0  2.803679486E+02 -3.689613420E+02  3.016306644E+03  3.054254317E+03  1.250000000E+02  0.00000E+00  9.000E+00
      25     1     1     2     0     0 -3.460927983E+02  3.292391483E+02  8.952800591E+02  1.022413823E+03  1.250000000E+02  0.00000E+00  9.000E+00
      21     1     1     2   512   501  6.572484972E+01  3.972219373E+01  4.653903724E+00  7.693677511E+01  3.704130158E-06  0.00000E+00  9.000E+00
#rwgt            2          11   1.4495320220568445E-003           7       49428           0
</event>
<event>
      5   9999  3.19816E-02  4.80659E+02 -1.00000E+00  9.93412E-02
       2    -1     0     0   502     0  0.000000000E+00  0.000000000E+00  1.424738458E+03  1.424738458E+03  0.000000000E+00  0.00000E+00  9.000E+00
      21    -1     0     0   501   502  0.000000000E+00  0.000000000E+00 -6.869001732E+02  6.869001732E+02  0.000000000E+00  0.00000E+00  9.000E+00
      25     1     1     2     0     0  2.824744478E+02 -5.690989453E+02 -2.833158467E+02  7.067943776E+02  1.250000000E+02  0.00000E+00  9.000E+00
      25     1     1     2     0     0 -3.274234525E+01  1.584076331E+02 -6.710880593E+01  2.151595483E+02  1.250000000E+02  0.00000E+00  9.000E+00
       2     1     1     2   501     0 -2.497321025E+02  4.106913122E+02  1.088262938E+03  1.189684705E+03  1.525878906E-05  0.00000E+00  9.000E+00
#rwgt            2          18   2.2765357820894870E-003           7       49553           0
</event>
<event>
      5   9999  3.19816E-02  6.33099E+01 -1.00000E+00  1.33469E-01
      21    -1     0     0   502   501  0.000000000E+00  0.000000000E+00  1.928446206E+02  1.928446206E+02  0.000000000E+00  0.00000E+00  9.000E+00
      21    -1     0     0   501   511  0.000000000E+00  0.000000000E+00 -1.176409096E+03  1.176409096E+03  0.000000000E+00  0.00000E+00  9.000E+00
      25     1     1     2     0     0  3.108108485E+02  2.670673743E+02 -4.883670141E+02  6.496581458E+02  1.250000000E+02  0.00000E+00  9.000E+00
      25     1     1     2     0     0 -2.578626101E+02 -3.017751252E+02 -2.962914213E+02  5.108570820E+02  1.250000000E+02  0.00000E+00  9.000E+00
      21     1     1     2   502   511 -5.294823848E+01  3.470775091E+01 -1.989060396E+02  2.087384884E+02  2.697398305E-06  0.00000E+00  9.000E+00
#rwgt            1           1   2.7517975449641584E-002           7       49587           0
</event>
<event>
      5   9999  3.19816E-02  2.00128E+02 -1.00000E+00  1.11638E-01
      21    -1     0     0   502   501  0.000000000E+00  0.000000000E+00  1.490266619E+03  1.490266619E+03  0.000000000E+00  0.00000E+00  9.000E+00
      21    -1     0     0   512   502  0.000000000E+00  0.000000000E+00 -2.102803836E+02  2.102803836E+02  0.000000000E+00  0.00000E+00  9.000E+00
      25     1     1     2     0     0 -7.795115727E+01  3.015230253E+02  1.065462713E+03  1.117062358E+03  1.250000000E+02  0.00000E+00  9.000E+00
      25     1     1     2     0     0 -1.178443727E+02 -2.601059146E+02  2.228499943E+02  3.831833803E+02  1.250000000E+02  0.00000E+00  9.000E+00
      21     1     1     2   512   501  1.957955300E+02 -4.141711068E+01 -8.326471764E+00  2.003012650E+02  2.951483346E-06  0.00000E+00  9.000E+00
#rwgt            1           1   2.3539851542618815E-002           7       49671           0
</event>
<event>
      5   9999  3.19816E-02  8.94810E+01 -1.00000E+00  1.26039E-01
      21    -1     0     0   502   511  0.000000000E+00  0.000000000E+00  1.210466454E+02  1.210466454E+02  0.000000000E+00  0.00000E+00  9.000E+00
      21    -1     0     0   501   502  0.000000000E+00  0.000000000E+00 -1.204161702E+03  1.204161702E+03  0.000000000E+00  0.00000E+00  9.000E+00
      25     1     1     2     0     0 -9.092497735E+01  6.428252941E+01 -4.999476560E+01  1.747113954E+02  1.250000000E+02  0.00000E+00  9.000E+00
      25     1     1     2     0     0  5.959575375E+00 -9.234891043E+01 -1.048268170E+03  1.059742891E+03  1.250000000E+02  0.00000E+00  9.000E+00
      21     1     1     2   501   511  8.496540197E+01  2.806638102E+01  1.514787977E+01  9.075406072E+01  2.217420964E-06  0.00000E+00  9.000E+00
#rwgt            1           1   2.9540183765232535E-002           7       49757           0
</event>
<event>
      5   9999  3.19816E-02  1.97950E+01 -1.00000E+00  1.66739E-01
      21    -1     0     0   502   512  0.000000000E+00  0.000000000E+00  7.260740052E+01  7.260740052E+01  0.000000000E+00  0.00000E+00  9.000E+00
      21    -1     0     0   501   502  0.000000000E+00  0.000000000E+00 -7.609363473E+02  7.609363473E+02  0.000000000E+00  0.00000E+00  9.000E+00
      25     1     1     2     0     0  1.804380813E+02  2.630727752E+01 -4.640113131E+02  5.139858682E+02  1.250000000E+02  0.00000E+00  9.000E+00
      25     1     1     2     0     0 -1.635244395E+02 -1.602274587E+01 -2.135329699E+02  2.970156561E+02  1.250000000E+02  0.00000E+00  9.000E+00
      21     1     1     2   501   512 -1.691364179E+01 -1.028453165E+01 -1.078466375E+01  2.254222354E+01  3.371747881E-07  0.00000E+00  9.000E+00
#rwgt            1           1   2.7353773510881436E-002           7       49859           0
</event>
<event>
      5   9999  3.19816E-02  3.16006E+01 -1.00000E+00  1.51488E-01
      21    -1     0     0   502   511  0.000000000E+00  0.000000000E+00  1.728910198E+02  1.728910198E+02  0.000000000E+00  0.00000E+00  9.000E+00
      21    -1     0     0   501   502  0.000000000E+00  0.000000000E+00 -1.995213356E+02  1.995213356E+02  0.000000000E+00  0.00000E+00  9.000E+00
      25     1     1     2     0     0 -9.104778005E+01  1.103081778E+00 -1.368264151E+01  1.552518268E+02  1.250000000E+02  0.00000E+00  9.000E+00
      25     1     1     2     0     0  7.619069713E+01  2.678717539E+01 -6.001736973E+01  1.604670052E+02  1.250000000E+02  0.00000E+00  9.000E+00
      21     1     1     2   501   511  1.485708292E+01 -2.789025717E+01  4.706969547E+01  5.669352335E+01  6.743495762E-07  0.00000E+00  9.000E+00
#rwgt            1           1   5.7822269361897001E-002           7       49989           0
</event>
<event>
      5   9999  3.19816E-02  3.37265E+02 -1.00000E+00  1.03966E-01
      21    -1     0     0   502   501  0.000000000E+00  0.000000000E+00  8.173033228E+02  8.173033228E+02  0.000000000E+00  0.00000E+00  9.000E+00
      21    -1     0     0   512   502  0.000000000E+00  0.000000000E+00 -1.591057966E+03  1.591057966E+03  0.000000000E+00  0.00000E+00  9.000E+00
      25     1     1     2     0     0  7.595979374E+02  6.273227037E+02  1.834439432E+02  1.009851217E+03  1.250000000E+02  0.00000E+00  9.000E+00
      25     1     1     2     0     0 -4.548911270E+02 -4.827488753E+02 -7.151276508E+02  9.833641091E+02  1.250000000E+02  0.00000E+00  9.000E+00
      21     1     1     2   512   501 -3.047068104E+02 -1.445738284E+02 -2.420709356E+02  4.151459623E+02  6.607249480E-06  0.00000E+00  9.000E+00
#rwgt            2          11   5.1795809242634614E-003           7       50039           0
</event>
<event>
      5   9999  3.19816E-02  4.38992E+01 -1.00000E+00  1.42379E-01
      21    -1     0     0   502   501  0.000000000E+00  0.000000000E+00  1.289488641E+02  1.289488641E+02  0.000000000E+00  0.00000E+00  9.000E+00
      21    -1     0     0   511   502  0.000000000E+00  0.000000000E+00 -4.882637116E+02  4.882637116E+02  0.000000000E+00  0.00000E+00  9.000E+00
      25     1     1     2     0     0 -5.194957343E+01 -1.190885580E+02 -3.380630119E+01  1.834358439E+02  1.250000000E+02  0.00000E+00  9.000E+00
      25     1     1     2     0     0  4.811830217E+01  1.628202902E+02 -1.660095534E+02  2.683467714E+02  1.250000000E+02  0.00000E+00  9.000E+00
      21     1     1     2   511   501  3.831271270E+00 -4.373173213E+01 -1.594989929E+02  1.654299604E+02  3.303624740E-06  0.00000E+00  9.000E+00
#rwgt            1           1   3.1854732722091557E-002           7       50074           0
</event>
<event>
      5   9999  3.19816E-02  1.78661E+02 -1.00000E+00  1.13461E-01
       2    -1     0     0   502     0  0.000000000E+00  0.000000000E+00  3.603947724E+02  3.603947724E+02  0.000000000E+00  0.00000E+00  9.000E+00
      21    -1     0     0   501   502  0.000000000E+00  0.000000000E+00 -5.869144555E+02  5.869144555E+02  0.000000000E+00  0.00000E+00  9.000E+00
      25     1     1     2     0     0 -9.891804391E+01  2.109291342E+02 -3.707334030E+02  4.553505629E+02  1.250000000E+02  0.00000E+00  9.000E+00
      25     1     1     2     0     0 -7.815645180E+01 -2.346885708E+02  2.740648189E+01  2.785018339E+02  1.250000000E+02  0.00000E+00  9.000E+00
       2     1     1     2   501     0  1.770744957E+02  2.375943666E+01  1.168072380E+02  2.134568310E+02  1.348699152E-06  0.00000E+00  9.000E+00
#rwgt            1           1   2.6407127579196554E-002           7       50138           0
</event>
<event>
      5   9999  3.19816E-02  2.52994E+01 -1.00000E+00  1.58365E-01
      21    -1     0     0   502   501  0.000000000E+00  0.000000000E+00  7.418327803E+02  7.418327803E+02  0.000000000E+00  0.00000E+00  9.000E+00
      21    -1     0     0   511   502  0.000000000E+00  0.000000000E+00 -9.525275915E+01  9.525275915E+01  0.000000000E+00  0.00000E+00  9.000E+00
      25     1     1     2     0     0  1.226994458E+02 -1.945082998E+02  3.131696266E+02  4.081529709E+02  1.250000000E+02  0.00000E+00  9.000E+00
      25     1     1     2     0     0 -9.953923259E+01  1.843267060E+02  3.099063050E+02  3.943999382E+02  1.250000000E+02  0.00000E+00  9.000E+00
      21     1     1     2   511   501 -2.316021321E+01  1.018159380E+01  2.350408958E+01  3.453263030E+01  4.768371582E-07  0.00000E+00  9.000E+00
#rwgt            1           1   2.7127987657840594E-002           7       50206           0
</event>
<event>
      5   9999  3.19816E-02  1.46497E+02 -1.00000E+00  1.16802E-01
      21    -1     0     0   502   501  0.000000000E+00  0.000000000E+00  2.978869776E+02  2.978869776E+02  0.000000000E+00  0.00000E+00  9.000E+00
       2    -1     0     0   501     0  0.000000000E+00  0.000000000E+00 -2.686086569E+02  2.686086569E+02  0.000000000E+00  0.00000E+00  9.000E+00
      25     1     1     2     0     0  1.031589877E+02  4.134442622E+01 -9.388842317E+01  1.918102561E+02  1.250000000E+02  0.00000E+00  9.000E+00
      25     1     1     2     0     0  7.951223860E+00  5.413238341E+01  1.726470879E+02  2.200580692E+02  1.250000000E+02  0.00000E+00  9.000E+00
       2     1     1     2   502     0 -1.111102116E+02 -9.547680963E+01 -4.948034395E+01  1.546273091E+02  0.000000000E+00  0.00000E+00  9.000E+00
#rwgt            1           1   2.3801632405863780E-002           7       50356           0
</event>
<event>
      5   9999  3.19816E-02  5.69893E+01 -1.00000E+00  1.35909E-01
      21    -1     0     0   502   501  0.000000000E+00  0.000000000E+00  4.363285897E+02  4.363285897E+02  0.000000000E+00  0.00000E+00  9.000E+00
      21    -1     0     0   501   511  0.000000000E+00  0.000000000E+00 -9.590287994E+02  9.590287994E+02  0.000000000E+00  0.00000E+00  9.000E+00
      25     1     1     2     0     0  2.786341056E+02  3.184717526E+02  2.394437120E+02  5.020154511E+02  1.250000000E+02  0.00000E+00  9.000E+00
      25     1     1     2     0     0 -2.315763783E+02 -2.863259643E+02 -7.319546582E+02  8.288502872E+02  1.250000000E+02  0.00000E+00  9.000E+00
      21     1     1     2   502   511 -4.705772725E+01 -3.214578821E+01 -3.018926348E+01  6.449165079E+01  3.371747881E-07  0.00000E+00  9.000E+00
#rwgt            1           1   3.0599796234776998E-002           7       50389           0
</event>
<event>
      5   9999  3.19816E-02  1.12224E+02 -1.00000E+00  1.21616E-01
      21    -1     0     0   502   501  0.000000000E+00  0.000000000E+00  1.123174963E+03  1.123174963E+03  0.000000000E+00  0.00000E+00  9.000E+00
      21    -1     0     0   501   512  0.000000000E+00  0.000000000E+00 -1.094386784E+03  1.094386784E+03  0.000000000E+00  0.00000E+00  9.000E+00
      25     1     1     2     0     0  5.623908943E+01 -7.213161139E+02  6.276101887E+02  9.659085466E+02  1.250000000E+02  0.00000E+00  9.000E+00
      25     1     1     2     0     0 -3.615752093E+01  6.109036426E+02  1.783969629E+01  6.248630903E+02  1.250000000E+02  0.00000E+00  9.000E+00
      21     1     1     2   502   512 -2.008156849E+01  1.104124713E+02 -6.166617057E+02  6.267901104E+02  0.000000000E+00  0.00000E+00  9.000E+00
#rwgt            1           1   2.7497567447084519E-002           7       50509           0
</event>
<event>
      5   9999  3.19816E-02  3.98394E+01 -1.00000E+00  1.44949E-01
      21    -1     0     0   502   501  0.000000000E+00  0.000000000E+00  1.124035067E+02  1.124035067E+02  0.000000000E+00  0.00000E+00  9.000E+00
      21    -1     0     0   511   502  0.000000000E+00  0.000000000E+00 -3.810464001E+02  3.810464001E+02  0.000000000E+00  0.00000E+00  9.000E+00
      25     1     1     2     0     0  4.334298580E+01 -1.040768194E+01  2.241860616E+01  1.345902231E+02  1.250000000E+02  0.00000E+00  9.000E+00
      25     1     1     2     0     0 -3.521772059E+00  9.204240019E+00 -9.115108034E+01  1.550181936E+02  1.250000000E+02  0.00000E+00  9.000E+00
      21     1     1     2   511   501 -3.982121374E+01  1.203441917E+00 -1.999104192E+02  2.038414900E+02  3.814697266E-06  0.00000E+00  9.000E+00
#rwgt            1           1   1.7125524713792778E-002           7       50608           0
</event>
<event>
      5   9999  3.19816E-02  1.40711E+02 -1.00000E+00  1.17505E-01
      21    -1     0     0   502   501  0.000000000E+00  0.000000000E+00  1.560206218E+03  1.560206218E+03  0.000000000E+00  0.00000E+00  9.000E+00
      21    -1     0     0   501   512  0.000000000E+00  0.000000000E+00 -4.178885920E+02  4.178885920E+02  0.000000000E+00  0.00000E+00  9.000E+00
      25     1     1     2     0     0 -2.388598121E+00  7.133096407E+02  6.820241492E+02  9.947855492E+02  1.250000000E+02  0.00000E+00  9.000E+00
      25     1     1     2     0     0 -1.369848928E+02 -6.939568866E+02  4.366883663E+02  8.406323516E+02  1.250000000E+02  0.00000E+00  9.000E+00
      21     1     1     2   502   512  1.393734909E+02 -1.935275407E+01  2.360510995E+01  1.426769087E+02  1.936921693E-06  0.00000E+00  9.000E+00
#rwgt            1           1   2.8177033021064276E-002           7       50678           0
</event>
<event>
      5   9999  3.19816E-02  1.61395E+02 -1.00000E+00  1.15147E-01
       2    -1     0     0   502     0  0.000000000E+00  0.000000000E+00  2.742937607E+03  2.742937607E+03  0.000000000E+00  0.00000E+00  9.000E+00
      21    -1     0     0   501   502  0.000000000E+00  0.000000000E+00 -7.415514556E+02  7.415514556E+02  0.000000000E+00  0.00000E+00  9.000E+00
      25     1     1     2     0     0  4.093824480E+02 -5.535179530E+00 -5.652701731E+02  7.090698101E+02  1.250000000E+02  0.00000E+00  9.000E+00
      25     1     1     2     0     0 -3.385975428E+02  1.505790845E+02  2.750135773E+02  4.781002243E+02  1.250000000E+02  0.00000E+00  9.000E+00
       2     1     1     2   501     0 -7.078490519E+01 -1.450439050E+02  2.291642747E+03  2.297319028E+03  4.315837288E-05  0.00000E+00  9.000E+00
#rwgt            1           1   3.0941576147711727E-002           7       50809           0
</event>
<event>
      5   9999  3.19816E-02  5.46427E+01 -1.00000E+00  1.36910E-01
       2    -1     0     0   502     0  0.000000000E+00  0.000000000E+00  2.180981269E+03  2.180981269E+03  0.000000000E+00  0.00000E+00  9.000E+00
      21    -1     0     0   501   502  0.000000000E+00  0.000000000E+00 -2.735022117E+02  2.735022117E+02  0.000000000E+00  0.00000E+00  9.000E+00
      25     1     1     2     0     0 -1.536127461E+02 -6.153237455E+02  8.379421655E+02  1.058296868E+03  1.250000000E+02  0.00000E+00  9.000E+00
      25     1     1     2     0     0  1.342205923E+02  6.664096266E+02  5.762775346E+02  8.999098592E+02  1.250000000E+02  0.00000E+00  9.000E+00
       2     1     1     2   501     0  1.939215384E+01 -5.108588115E+01  4.932593571E+02  4.962767537E+02  9.344061824E-06  0.00000E+00  9.000E+00
#rwgt            1           1   2.4352906314781170E-002           7       50921           0
</event>
<event>
      5   9999  3.19816E-02  4.87340E+01 -1.00000E+00  1.39714E-01
      21    -1     0     0   502   501  0.000000000E+00  0.000000000E+00  5.085096770E+02  5.085096770E+02  0.000000000E+00  0.00000E+00  9.000E+00
      21    -1     0     0   501   511  0.000000000E+00  0.000000000E+00 -2.173640247E+03  2.173640247E+03  0.000000000E+00  0.00000E+00  9.000E+00
      25     1     1     2     0     0  6.182478207E+02 -6.338861819E+02 -1.426415073E+03  1.683545966E+03  1.250000000E+02  0.00000E+00  9.000E+00
      25     1     1     2     0     0 -6.484038289E+02  5.956028111E+02 -1.563584837E+02  9.029081954E+02  1.250000000E+02  0.00000E+00  9.000E+00
      21     1     1     2   502   511  3.015600818E+01  3.828337084E+01 -8.235701281E+01  9.569576204E+01  1.651812370E-06  0.00000E+00  9.000E+00
#rwgt            1           1   2.3244871716278988E-002           7       51074           0
</event>
<event>
      5   9999  3.19816E-02  6.80088E+01 -1.00000E+00  1.31859E-01
      21    -1     0     0   502   501  0.000000000E+00  0.000000000E+00  1.152918692E+03  1.152918692E+03  0.000000000E+00  0.00000E+00  9.000E+00
      21    -1     0     0   512   502  0.000000000E+00  0.000000000E+00 -8.665315274E+01  8.665315274E+01  0.000000000E+00  0.00000E+00  9.000E+00
      25     1     1     2     0     0  3.049022740E+01  5.290852135E+01  1.360816133E+01  1.397825012E+02  1.250000000E+02  0.00000E+00  9.000E+00
      25     1     1     2     0     0 -2.901283906E+01  1.508425190E+01  1.012703748E+03  1.020912906E+03  1.250000000E+02  0.00000E+00  9.000E+00
      21     1     1     2   512   501 -1.477388339E+00 -6.799277325E+01  3.995362953E+01  7.887643757E+01  1.348699152E-06  0.00000E+00  9.000E+00
#rwgt            1           1   2.9314516569735063E-002           7       51258           0
</event>
<event>
      5   9999  3.19816E-02  1.64188E+01 -1.00000E+00  1.73764E-01
      21    -1     0     0   502   501  0.000000000E+00  0.000000000E+00  6.797498397E+02  6.797498397E+02  0.000000000E+00  0.00000E+00  9.000E+00
      21    -1     0     0   511   502  0.000000000E+00  0.000000000E+00 -2.057087236E+02  2.057087236E+02  0.000000000E+00  0.00000E+00  9.000E+00
      25     1     1     2     0     0 -1.685043911E+02  2.383216883E+02  2.482974737E+02  4.030726887E+02  1.250000000E+02  0.00000E+00  9.000E+00
      25     1     1     2     0     0  1.848186471E+02 -2.401714384E+02  2.766152247E+02  4.289303378E+02  1.250000000E+02  0.00000E+00  9.000E+00
      21     1     1     2   511   501 -1.631425599E+01  1.849750099E+00 -5.087158234E+01  5.345553679E+01  9.536743164E-07  0.00000E+00  9.000E+00
#rwgt            1           1   2.8114920079243964E-002           7       51354           0
</event>
<event>
      5   9999  3.19816E-02  9.01345E+01 -1.00000E+00  1.25891E-01
      21    -1     0     0   502   501  0.000000000E+00  0.000000000E+00  1.260253742E+03  1.260253742E+03  0.000000000E+00  0.00000E+00  9.000E+00
       2    -1     0     0   501     0  0.000000000E+00  0.000000000E+00 -2.794776432E+02  2.794776432E+02  0.000000000E+00  0.00000E+00  9.000E+00
      25     1     1     2     0     0 -6.510778955E+00  9.152088394E+01  1.169443818E+03  1.179678899E+03  1.250000000E+02  0.00000E+00  9.000E+00
      25     1     1     2     0     0 -1.582901187E+01 -4.198710750E+00  2.466648154E+01  1.284586396E+02  1.250000000E+02  0.00000E+00  9.000E+00
       2     1     1     2   502     0  2.233979082E+01 -8.732217319E+01 -2.133342009E+02  2.315938459E+02  5.394796609E-06  0.00000E+00  9.000E+00
#rwgt            1           1   2.7602237294710792E-002           7       51491           0
</event>
<event>
      5   9999  3.19816E-02  3.30202E+02 -1.00000E+00  1.04256E-01
       2    -1     0     0   502     0  0.000000000E+00  0.000000000E+00  2.474892869E+03  2.474892869E+03  0.000000000E+00  0.00000E+00  9.000E+00
      21    -1     0     0   501   502  0.000000000E+00  0.000000000E+00 -6.888207224E+02  6.888207224E+02  0.000000000E+00  0.00000E+00  9.000E+00
      25     1     1     2     0     0 -4.807240205E+02 -7.534758133E+02 -7.604715773E+01  9.056652557E+02  1.250000000E+02  0.00000E+00  9.000E+00
      25     1     1     2     0     0  2.064777276E+02  5.695674312E+02  3.509378560E+02  7.112119863E+02  1.250000000E+02  0.00000E+00  9.000E+00
       2     1     1     2   501     0  2.742462929E+02  1.839083821E+02  1.511181449E+03  1.546836350E+03  2.157918644E-05  0.00000E+00  9.000E+00
#rwgt            1           1   3.4639200878642175E-002           7       51551           0
</event>
<event>
      5   9999  3.19816E-02  6.77048E+00 -1.00000E+00  2.17620E-01
      21    -1     0     0   511   501  0.000000000E+00  0.000000000E+00  4.715422222E+02  4.715422222E+02  0.000000000E+00  0.00000E+00  9.000E+00
      21    -1     0     0   501   502  0.000000000E+00  0.000000000E+00 -8.822161783E+01  8.822161783E+01  0.000000000E+00  0.00000E+00  9.000E+00
      25     1     1     2     0     0  2.238239380E+01 -1.209171325E+02  1.541276706E+02  2.334571981E+02  1.250000000E+02  0.00000E+00  9.000E+00
      25     1     1     2     0     0 -2.460580514E+01  1.145221421E+02  1.029062367E+02  1.998385855E+02  1.250000000E+02  0.00000E+00  9.000E+00
      21     1     1     2   511   502  2.223411341E+00  6.394990449E+00  1.262866971E+02  1.264680565E+02  1.348699152E-06  0.00000E+00  9.000E+00
#rwgt            1           1   3.0472424253573188E-002           7       51633           0
</event>
<event>
      5   9999  3.19816E-02  1.16686E+02 -1.00000E+00  1.20887E-01
      21    -1     0     0   502   501  0.000000000E+00  0.000000000E+00  5.061549289E+02  5.061549289E+02  0.000000000E+00  0.00000E+00  9.000E+00
      21    -1     0     0   501   512  0.000000000E+00  0.000000000E+00 -2.010760156E+03  2.010760156E+03  0.000000000E+00  0.00000E+00  9.000E+00
      25     1     1     2     0     0 -8.333108210E+02 -3.147259442E+01 -9.811445372E+02  1.293702845E+03  1.250000000E+02  0.00000E+00  9.000E+00
      25     1     1     2     0     0  8.516584816E+02 -8.376228824E+01 -2.117741727E+02  8.903996802E+02  1.250000000E+02  0.00000E+00  9.000E+00
      21     1     1     2   502   512 -1.834766066E+01  1.152348827E+02 -3.116865176E+02  3.328125600E+02  3.814697266E-06  0.00000E+00  9.000E+00
#rwgt            1           1   3.0981452022080882E-002           7       51859           0
</event>
<event>
      5   9999  3.19816E-02  1.93993E+02 -1.00000E+00  1.12132E-01
       1    -1     0     0   502     0  0.000000000E+00  0.000000000E+00  1.631720592E+03  1.631720592E+03  0.000000000E+00  0.00000E+00  9.000E+00
      21    -1     0     0   501   502  0.000000000E+00  0.000000000E+00 -8.881073639E+02  8.881073639E+02  0.000000000E+00  0.00000E+00  9.000E+00
      25     1     1     2     0     0  3.936051213E+02 -4.054233781E+02  4.061169085E+01  5.801443065E+02  1.250000000E+02  0.00000E+00  9.000E+00
      25     1     1     2     0     0 -2.101421093E+02  4.684669965E+02 -4.962035833E+02  7.248889770E+02  1.250000000E+02  0.00000E+00  9.000E+00
       1     1     1     2   501     0 -1.834630119E+02 -6.304361844E+01  1.199205120E+03  1.214794672E+03  1.525878906E-05  0.00000E+00  9.000E+00
#rwgt            1           1   3.1181746873759467E-002           7       51986           0
</event>
<event>
      5   9999  3.19816E-02  2.29231E+01 -1.00000E+00  1.61625E-01
      21    -1     0     0   502   501  0.000000000E+00  0.000000000E+00  2.178294269E+02  2.178294269E+02  0.000000000E+00  0.00000E+00  9.000E+00
      21    -1     0     0   501   511  0.000000000E+00  0.000000000E+00 -6.424323767E+02  6.424323767E+02  0.000000000E+00  0.00000E+00  9.000E+00
      25     1     1     2     0     0 -2.355341111E+02  2.421277813E+02 -1.252214206E+02  3.813234639E+02  1.250000000E+02  0.00000E+00  9.000E+00
      25     1     1     2     0     0  2.399699185E+02 -2.196379730E+02 -2.658656544E+02  4.383331463E+02  1.250000000E+02  0.00000E+00  9.000E+00
      21     1     1     2   502   511 -4.435807422E+00 -2.248980835E+01 -3.351587478E+01  4.060519338E+01  0.000000000E+00  0.00000E+00  9.000E+00
#rwgt            1           1   3.0570473760976418E-002           7       52051           0
</event>
<event>
      5   9999  3.19816E-02  8.47206E+01 -1.00000E+00  1.27156E-01
      21    -1     0     0   502   501  0.000000000E+00  0.000000000E+00  3.642738622E+02  3.642738622E+02  0.000000000E+00  0.00000E+00  9.000E+00
      21    -1     0     0   501   512  0.000000000E+00  0.000000000E+00 -2.311482190E+02  2.311482190E+02  0.000000000E+00  0.00000E+00  9.000E+00
      25     1     1     2     0     0  1.211288998E+02 -1.582708581E+02  2.050313915E+02  3.120652919E+02  1.250000000E+02  0.00000E+00  9.000E+00
      25     1     1     2     0     0 -1.146211892E+02  7.380057587E+01 -2.535052348E+01  1.866874154E+02  1.250000000E+02  0.00000E+00  9.000E+00
      21     1     1     2   502   512 -6.507710549E+00  8.447028228E+01 -4.655522493E+01  9.666937391E+01  2.236564522E-06  0.00000E+00  9.000E+00
#rwgt            1           1   2.6725779187325382E-002           7       52248           0
</event>
<event>
      5   9999  3.19816E-02  9.35831E+02 -1.00000E+00  9.16880E-02
       2    -1     0     0   502     0  0.000000000E+00  0.000000000E+00  2.443688599E+03  2.443688599E+03  0.000000000E+00  0.00000E+00  9.000E+00
      21    -1     0     0   501   502  0.000000000E+00  0.000000000E+00 -4.206133434E+02  4.206133434E+02  0.000000000E+00  0.00000E+00  9.000E+00
      25     1     1     2     0     0 -7.904945838E+01 -1.067154334E+01  7.394415892E+01  1.656968236E+02  1.250000000E+02  0.00000E+00  9.000E+00
      25     1     1     2     0     0 -7.074842147E+02 -4.964224951E+02  6.113730510E+02  1.066007137E+03  1.250000000E+02  0.00000E+00  9.000E+00
       2     1     1     2   501     0  7.865336731E+02  5.070940385E+02  1.337758045E+03  1.632597982E+03  1.525878906E-05  0.00000E+00  9.000E+00
#rwgt            2          18   7.8668537781824092E-003           7       52354           0
</event>
<event>
      5   9999  3.19816E-02  1.16062E+02 -1.00000E+00  1.20987E-01
      21    -1     0     0   511   501  0.000000000E+00  0.000000000E+00  6.045098969E+02  6.045098969E+02  0.000000000E+00  0.00000E+00  9.000E+00
      21    -1     0     0   501   502  0.000000000E+00  0.000000000E+00 -5.880514263E+02  5.880514263E+02  0.000000000E+00  0.00000E+00  9.000E+00
      25     1     1     2     0     0 -4.915404305E+01 -7.641079603E+01 -3.851073027E+02  4.149546533E+02  1.250000000E+02  0.00000E+00  9.000E+00
      25     1     1     2     0     0  2.002888351E+00  1.824630004E+02 -1.142133325E+02  2.489305996E+02  1.250000000E+02  0.00000E+00  9.000E+00
      21     1     1     2   511   502  4.715115470E+01 -1.060522044E+02  5.157791057E+02  5.286760703E+02  1.078959322E-05  0.00000E+00  9.000E+00
#rwgt            1           1   2.7539176691295495E-002           7       52463           0
</event>
<event>
      5   9999  3.19816E-02  4.80081E+01 -1.00000E+00  1.40090E-01
      21    -1     0     0   502   501  0.000000000E+00  0.000000000E+00  2.015865309E+03  2.015865309E+03  0.000000000E+00  0.00000E+00  9.000E+00
      21    -1     0     0   501   512  0.000000000E+00  0.000000000E+00 -9.905077302E+02  9.905077302E+02  0.000000000E+00  0.00000E+00  9.000E+00
      25     1     1     2     0     0  6.498887854E+02  8.596283090E+02  5.240546309E+02  1.204813064E+03  1.250000000E+02  0.00000E+00  9.000E+00
      25     1     1     2     0     0 -6.224292049E+02 -8.202487389E+02  9.161761647E+02  1.383918305E+03  1.250000000E+02  0.00000E+00  9.000E+00
      21     1     1     2   502   512 -2.745958049E+01 -3.937957010E+01 -4.148732167E+02  4.176416706E+02  7.629394531E-06  0.00000E+00  9.000E+00
#rwgt            1           1   2.5305867809687754E-002           7       52530           0
</event>
<event>
      5   9999  3.19816E-02  1.89281E+02 -1.00000E+00  1.12526E-01
      21    -1     0     0   502   511  0.000000000E+00  0.000000000E+00  1.237565303E+02  1.237565303E+02  0.000000000E+00  0.00000E+00  9.000E+00
      21    -1     0     0   501   502  0.000000000E+00  0.000000000E+00 -1.719459876E+03  1.719459876E+03  0.000000000E+00  0.00000E+00  9.000E+00
      25     1     1     2     0     0 -1.144467466E+01 -7.589445544E+01 -1.160445510E+03  1.169679328E+03  1.250000000E+02  0.00000E+00  9.000E+00
      25     1     1     2     0     0  2.007246030E+02  7.647702522E+01 -4.142675412E+02  4.830959505E+02  1.250000000E+02  0.00000E+00  9.000E+00
      21     1     1     2   501   511 -1.892799284E+02 -5.825697789E-01 -2.099029454E+01  1.904411277E+02  3.873843386E-06  0.00000E+00  9.000E+00
#rwgt            1           1   3.8462422761672624E-002           7       52662           0
</event>
<event>
      5   9999  3.19816E-02  1.34567E+01 -1.00000E+00  1.81944E-01
      21    -1     0     0   512   501  0.000000000E+00  0.000000000E+00  1.483401748E+02  1.483401748E+02  0.000000000E+00  0.00000E+00  9.000E+00
      21    -1     0     0   501   502  0.000000000E+00  0.000000000E+00 -5.539619234E+02  5.539619234E+02  0.000000000E+00  0.00000E+00  9.000E+00
      25     1     1     2     0     0 -1.862912251E+02  7.306461777E+01 -3.312623109E+01  2.382544986E+02  1.250000000E+02  0.00000E+00  9.000E+00
      25     1     1     2     0     0  1.993086392E+02 -6.965423121E+01 -3.770400103E+02  4.498442119E+02  1.250000000E+02  0.00000E+00  9.000E+00
      21     1     1     2   512   502 -1.301741411E+01 -3.410386557E+00  4.544492747E+00  1.420338766E+01  4.042583694E-07  0.00000E+00  9.000E+00
#rwgt            1           1   2.8308159880749327E-002           7       52702           0
</event>
<event>
      5   9999  3.19816E-02  6.12159E+02 -1.00000E+00  9.64176E-02
      21    -1     0     0   502   501  0.000000000E+00  0.000000000E+00  2.528950212E+03  2.528950212E+03  0.000000000E+00  0.00000E+00  9.000E+00
      21    -1     0     0   501   511  0.000000000E+00  0.000000000E+00 -2.640880267E+02  2.640880267E+02  0.000000000E+00  0.00000E+00  9.000E+00
      25     1     1     2     0     0  3.682916528E+02  1.595652164E+02  9.955987837E+02  1.080713532E+03  1.250000000E+02  0.00000E+00  9.000E+00
      25     1     1     2     0     0 -9.482584271E+01  3.881158925E+02  9.121210016E+02  1.003601319E+03  1.250000000E+02  0.00000E+00  9.000E+00
      21     1     1     2   502   511 -2.734658101E+02 -5.476811089E+02  3.571423999E+02  7.087233876E+02  3.814697266E-06  0.00000E+00  9.000E+00
#rwgt            2          11   1.8396442844704785E-003           7       52858           0
</event>
<event>
      5   9999  3.38196E-02  1.22133E+01 -1.00000E+00  1.86227E-01
      21    -1     0     0   502   512  0.000000000E+00  0.000000000E+00  2.240869986E+03  2.240869986E+03  0.000000000E+00  0.00000E+00  9.000E+00
      21    -1     0     0   501   502  0.000000000E+00  0.000000000E+00 -1.937079750E+01  1.937079750E+01  0.000000000E+00  0.00000E+00  9.000E+00
      25     1     1     2     0     0 -1.220283795E+02  2.384522567E+00  5.558196510E+02  5.826294670E+02  1.250000000E+02  0.00000E+00  9.000E+00
      25     1     1     2     0     0  1.269781594E+02  8.780807746E+00  1.355190568E+03  1.366882230E+03  1.250000000E+02  0.00000E+00  9.000E+00
      21     1     1     2   501   512 -4.949779886E+00 -1.116533031E+01  3.104889692E+02  3.107290860E+02  7.629394531E-06  0.00000E+00  9.000E+00
#rwgt            1           1   9.9952864652033985E-002           7       52908           0
</event>
<event>
      5   9999  3.19816E-02  6.48722E+01 -1.00000E+00  1.32916E-01
      21    -1     0     0   502   501  0.000000000E+00  0.000000000E+00  1.338104617E+02  1.338104617E+02  0.000000000E+00  0.00000E+00  9.000E+00
      21    -1     0     0   501   511  0.000000000E+00  0.000000000E+00 -4.786332346E+02  4.786332346E+02  0.000000000E+00  0.00000E+00  9.000E+00
      25     1     1     2     0     0  5.126404715E+01  7.171041037E+01 -1.280126585E+02  1.994558253E+02  1.250000000E+02  0.00000E+00  9.000E+00
      25     1     1     2     0     0 -1.157620407E+02 -6.475237338E+01  4.550943707E+00  1.823168424E+02  1.250000000E+02  0.00000E+00  9.000E+00
      21     1     1     2   502   511  6.449799355E+01 -6.958036991E+00 -2.213610580E+02  2.306710287E+02  2.697398305E-06  0.00000E+00  9.000E+00
#rwgt            1           1   2.8088953266384182E-002           7       53104           0
</event>
<event>
      5   9999  3.19816E-02  2.78477E+02 -1.00000E+00  1.06653E-01
      21    -1     0     0   502   512  0.000000000E+00  0.000000000E+00  1.443187462E+02  1.443187462E+02  0.000000000E+00  0.00000E+00  9.000E+00
      21    -1     0     0   501   502  0.000000000E+00  0.000000000E+00 -1.656069618E+03  1.656069618E+03  0.000000000E+00  0.00000E+00  9.000E+00
      25     1     1     2     0     0  3.625920624E+02  2.669902335E+02 -6.617251839E+02  8.100999985E+02  1.250000000E+02  0.00000E+00  9.000E+00
      25     1     1     2     0     0 -1.366135708E+02 -1.042536932E+02 -4.979188905E+02  5.413689332E+02  1.250000000E+02  0.00000E+00  9.000E+00
      21     1     1     2   501   512 -2.259784916E+02 -1.627365403E+02 -3.521067977E+02  4.489194329E+02  5.394796609E-06  0.00000E+00  9.000E+00
#rwgt            1           1   2.9067119631252331E-002           7       53178           0
</event>
<event>
      5   9999  3.19816E-02  2.09787E+01 -1.00000E+00  1.64675E-01
      21    -1     0     0   502   501  0.000000000E+00  0.000000000E+00  7.292095259E+01  7.292095259E+01  0.000000000E+00  0.00000E+00  9.000E+00
      21    -1     0     0   501   511  0.000000000E+00  0.000000000E+00 -6.355984220E+02  6.355984220E+02  0.000000000E+00  0.00000E+00  9.000E+00
      25     1     1     2     0     0 -8.793855267E+01  1.352432822E+02 -2.409036491E+02  3.157269431E+02  1.250000000E+02  0.00000E+00  9.000E+00
      25     1     1     2     0     0  1.017565997E+02 -1.194582785E+02 -2.657934807E+02  3.330103005E+02  1.250000000E+02  0.00000E+00  9.000E+00
      21     1     1     2   502   511 -1.381804701E+01 -1.578500363E+01 -5.598033963E+01  5.978213101E+01  9.536743164E-07  0.00000E+00  9.000E+00
#rwgt            1           1   3.0287132588226358E-002           7       53211           0
</event>
<event>
      5   9999  3.19816E-02  1.67811E+02 -1.00000E+00  1.14495E-01
      21    -1     0     0   502   501  0.000000000E+00  0.000000000E+00  6.226253647E+01  6.226253647E+01  0.000000000E+00  0.00000E+00  9.000E+00
      21    -1     0     0   512   502  0.000000000E+00  0.000000000E+00 -1.180741474E+03  1.180741474E+03  0.000000000E+00  0.00000E+00  9.000E+00
      25     1     1     2     0     0  1.956805330E+01 -1.464308059E+02 -2.767499797E+02  3.376987428E+02  1.250000000E+02  0.00000E+00  9.000E+00
      25     1     1     2     0     0 -9.547758403E+01 -3.230142357E+00 -3.085969545E+02  3.463863207E+02  1.250000000E+02  0.00000E+00  9.000E+00
      21     1     1     2   512   501  7.590953073E+01  1.496609482E+02 -5.331320035E+02  5.589189471E+02  7.629394531E-06  0.00000E+00  9.000E+00
#rwgt            1           1   7.6946092592839008E-002           7       53331           0
</event>
<event>
      5   9999  3.19816E-02  1.19443E+02 -1.00000E+00  1.20454E-01
      21    -1     0     0   511   501  0.000000000E+00  0.000000000E+00  5.952546368E+02  5.952546368E+02  0.000000000E+00  0.00000E+00  9.000E+00
      21    -1     0     0   501   502  0.000000000E+00  0.000000000E+00 -5.204250029E+02  5.204250029E+02  0.000000000E+00  0.00000E+00  9.000E+00
      25     1     1     2     0     0 -6.555927342E+00 -3.206243354E+02  7.772136431E+01  3.528576981E+02  1.250000000E+02  0.00000E+00  9.000E+00
      25     1     1     2     0     0 -1.122589827E+02  3.083903089E+02 -2.876973601E+02  4.539839566E+02  1.250000000E+02  0.00000E+00  9.000E+00
      21     1     1     2   511   502  1.188149101E+02  1.223402653E+01  2.848056297E+02  3.088379850E+02  5.394796609E-06  0.00000E+00  9.000E+00
#rwgt            1           1   3.1184947480873398E-002           7       53386           0
</event>
<event>
      5   9999  3.19816E-02  1.48038E+02 -1.00000E+00  1.16621E-01
      21    -1     0     0   502   512  0.000000000E+00  0.000000000E+00  1.113612189E+02  1.113612189E+02  0.000000000E+00  0.00000E+00  9.000E+00
      21    -1     0     0   501   502  0.000000000E+00  0.000000000E+00 -7.366121213E+02  7.366121213E+02  0.000000000E+00  0.00000E+00  9.000E+00
      25     1     1     2     0     0 -1.918605424E+01 -9.287926019E+01 -6.826338271E+01  1.711126853E+02  1.250000000E+02  0.00000E+00  9.000E+00
      25     1     1     2     0     0  1.672243378E+02  9.310020466E+01 -4.025576449E+02  4.629355082E+02  1.250000000E+02  0.00000E+00  9.000E+00
      21     1     1     2   501   512 -1.480382835E+02 -2.209444712E-01 -1.544298747E+02  2.139251468E+02  3.303624740E-06  0.00000E+00  9.000E+00
#rwgt            1           1   2.8904359951449823E-002           7       53429           0
</event>
<event>
      5   9999  3.19816E-02  4.67234E+01 -1.00000E+00  1.40776E-01
      21    -1     0     0   511   501  0.000000000E+00  0.000000000E+00  4.000970235E+02  4.000970235E+02  0.000000000E+00  0.00000E+00  9.000E+00
      21    -1     0     0   501   502  0.000000000E+00  0.000000000E+00 -6.129115362E+02  6.129115362E+02  0.000000000E+00  0.00000E+00  9.000E+00
      25     1     1     2     0     0  9.283543542E+01  2.082991634E+01 -1.047926952E+02  1.888354110E+02  1.250000000E+02  0.00000E+00  9.000E+00
      25     1     1     2     0     0 -1.049553723E+02 -6.595399169E+01 -4.478192777E+02  4.811784126E+02  1.250000000E+02  0.00000E+00  9.000E+00
      21     1     1     2   511   502  1.211993692E+01  4.512407535E+01  3.397974602E+02  3.429947361E+02  0.000000000E+00  0.00000E+00  9.000E+00
#rwgt            1           1   3.1037000932369285E-002           7       53482           0
</event>
<event>
      5   9999  4.29072E-02  4.78738E+01 -1.00000E+00  1.40161E-01
       2    -1     0     0   502     0  0.000000000E+00  0.000000000E+00  3.116975785E+03  3.116975785E+03  0.000000000E+00  0.00000E+00  9.000E+00
      21    -1     0     0   501   502  0.000000000E+00  0.000000000E+00 -1.496004075E+01  1.496004075E+01  0.000000000E+00  0.00000E+00  9.000E+00
      25     1     1     2     0     0  2.753253012E+01  7.200416026E+01  1.105929356E+03  1.115637656E+03  1.250000000E+02  0.00000E+00  9.000E+00
      25     1     1     2     0     0  1.914341570E+01 -8.264638283E+01  5.783791842E+02  5.977828834E+02  1.250000000E+02  0.00000E+00  9.000E+00
       2     1     1     2   501     0 -4.667594581E+01  1.064222257E+01  1.417707204E+03  1.418515286E+03  2.157918644E-05  0.00000E+00  9.000E+00
#rwgt            1           1  0.22015082444613412                7       53565           0
</event>
<event>
      5   9999  3.19816E-02  5.42324E+02 -1.00000E+00  9.78597E-02
      21    -1     0     0   502   501  0.000000000E+00  0.000000000E+00  1.459353295E+03  1.459353295E+03  0.000000000E+00  0.00000E+00  9.000E+00
       2    -1     0     0   501     0  0.000000000E+00  0.000000000E+00 -2.336905340E+03  2.336905340E+03  0.000000000E+00  0.00000E+00  9.000E+00
      25     1     1     2     0     0 -7.434528258E+01  9.960033202E+02 -4.067993171E+02  1.085661328E+03  1.250000000E+02  0.00000E+00  9.000E+00
      25     1     1     2     0     0  6.151069433E+02 -1.037139386E+03  7.144898558E+02  1.407172844E+03  1.250000000E+02  0.00000E+00  9.000E+00
       2     1     1     2   502     0 -5.407616607E+02  4.113606605E+01 -1.185242584E+03  1.303424463E+03  1.525878906E-05  0.00000E+00  9.000E+00
#rwgt            1           1   5.2337971274957318E-002           7       53628           0
</event>
<event>
      5   9999  3.19816E-02  8.24517E+01 -1.00000E+00  1.27718E-01
      21    -1     0     0   502   501  0.000000000E+00  0.000000000E+00  4.263704136E+01  4.263704136E+01  0.000000000E+00  0.00000E+00  9.000E+00
       3    -1     0     0   501     0  0.000000000E+00  0.000000000E+00 -1.845090924E+03  1.845090924E+03  0.000000000E+00  0.00000E+00  9.000E+00
      25     1     1     2     0     0 -1.420027120E+02 -1.801923883E+01 -3.879626132E+02  4.320063107E+02  1.250000000E+02  0.00000E+00  9.000E+00
      25     1     1     2     0     0  2.239468695E+02  2.715384046E+01 -1.155092514E+03  1.183534219E+03  1.250000000E+02  0.00000E+00  9.000E+00
       3     1     1     2   502     0 -8.194415746E+01 -9.134601634E+00 -2.593987554E+02  2.721874358E+02  0.000000000E+00  0.00000E+00  9.000E+00
#rwgt            1           1   3.5332960838673592E-002           7       53680           0
</event>
<event>
      5   9999  3.19816E-02  2.90718E+01 -1.00000E+00  1.53994E-01
      21    -1     0     0   502   501  0.000000000E+00  0.000000000E+00  9.425342408E+01  9.425342408E+01  0.000000000E+00  0.00000E+00  9.000E+00
      21    -1     0     0   501   511  0.000000000E+00  0.000000000E+00 -6.788700308E+02  6.788700308E+02  0.000000000E+00  0.00000E+00  9.000E+00
      25     1     1     2     0     0 -7.931265755E+01  1.228254991E+02 -6.882337586E+01  2.042994320E+02  1.250000000E+02  0.00000E+00  9.000E+00
      25     1     1     2     0     0  7.559500219E+01 -1.516586535E+02 -4.602555824E+02  5.061374840E+02  1.250000000E+02  0.00000E+00  9.000E+00
      21     1     1     2   502   511  3.717655357E+00  2.883315448E+01 -5.553764842E+01  6.268653883E+01  0.000000000E+00  0.00000E+00  9.000E+00
#rwgt            1           1   2.6500793216327975E-002           7       53776           0
</event>
<event>
      5   9999  3.19816E-02  3.03088E+01 -1.00000E+00  1.52732E-01
      21    -1     0     0   502   501  0.000000000E+00  0.000000000E+00  4.540531105E+02  4.540531105E+02  0.000000000E+00  0.00000E+00  9.000E+00
      21    -1     0     0   501   512  0.000000000E+00  0.000000000E+00 -5.938848063E+02  5.938848063E+02  0.000000000E+00  0.00000E+00  9.000E+00
      25     1     1     2     0     0 -7.913763937E+01  5.535112799E+01  2.762946948E+02  3.182613261E+02  1.250000000E+02  0.00000E+00  9.000E+00
      25     1     1     2     0     0  8.864826362E+01 -8.412906056E+01  1.074660757E+02  2.052076287E+02  1.250000000E+02  0.00000E+00  9.000E+00
      21     1     1     2   502   512 -9.510624242E+00  2.877793257E+01 -5.235924662E+02  5.244689620E+02  7.629394531E-06  0.00000E+00  9.000E+00
#rwgt            1           1   3.3400191597562058E-002           7       53856           0
</event>
<event>
      5   9999  3.19816E-02  1.53696E+02 -1.00000E+00  1.15976E-01
      21    -1     0     0   511   501  0.000000000E+00  0.000000000E+00  5.347946684E+02  5.347946684E+02  0.000000000E+00  0.00000E+00  9.000E+00
      21    -1     0     0   501   502  0.000000000E+00  0.000000000E+00 -1.730603625E+03  1.730603625E+03  0.000000000E+00  0.00000E+00  9.000E+00
      25     1     1     2     0     0 -1.808512170E+02  5.539917729E+02 -1.267931263E+03  1.401031311E+03  1.250000000E+02  0.00000E+00  9.000E+00
      25     1     1     2     0     0  3.245948230E+02 -6.083991992E+02  1.007856425E+02  7.080212783E+02  1.250000000E+02  0.00000E+00  9.000E+00
      21     1     1     2   511   502 -1.437436060E+02  5.440742629E+01 -2.866333618E+01  1.563457040E+02  1.430511475E-06  0.00000E+00  9.000E+00
#rwgt            1           1   1.6078712199150996E-002           7       53930           0
</event>
<event>
      5   9999  3.19816E-02  9.54536E+01 -1.00000E+00  1.24744E-01
      21    -1     0     0   512   501  0.000000000E+00  0.000000000E+00  2.869441770E+02  2.869441770E+02  0.000000000E+00  0.00000E+00  9.000E+00
      21    -1     0     0   501   502  0.000000000E+00  0.000000000E+00 -7.850442991E+02  7.850442991E+02  0.000000000E+00  0.00000E+00  9.000E+00
      25     1     1     2     0     0 -2.562734191E+02 -2.111062229E+02 -2.723307544E+00  3.547877099E+02  1.250000000E+02  0.00000E+00  9.000E+00
      25     1     1     2     0     0  2.525843740E+02  1.157239214E+02 -5.335449828E+02  6.143990077E+02  1.250000000E+02  0.00000E+00  9.000E+00
      21     1     1     2   512   502  3.689045157E+00  9.538230150E+01  3.816816828E+01  1.028017586E+02  1.966049969E-06  0.00000E+00  9.000E+00
#rwgt            1           1   2.8648357469968220E-002           7       54022           0
</event>
<event>
      5   9999  3.19816E-02  2.77417E+02 -1.00000E+00  1.06708E-01
      21    -1     0     0   511   501  0.000000000E+00  0.000000000E+00  1.690703283E+02  1.690703283E+02  0.000000000E+00  0.00000E+00  9.000E+00
      21    -1     0     0   501   502  0.000000000E+00  0.000000000E+00 -1.735739543E+03  1.735739543E+03  0.000000000E+00  0.00000E+00  9.000E+00
      25     1     1     2     0     0  2.093391209E+02  1.475790509E+02 -6.323517579E+02  6.936109786E+02  1.250000000E+02  0.00000E+00  9.000E+00
      25     1     1     2     0     0 -4.729677817E+02 -6.120584761E+01 -5.812860180E+02  7.622093629E+02  1.250000000E+02  0.00000E+00  9.000E+00
      21     1     1     2   511   502  2.636286608E+02 -8.637320329E+01 -3.530314387E+02  4.489895297E+02  1.009274029E-05  0.00000E+00  9.000E+00
#rwgt            1           1   2.8886878117357427E-002           7       54102           0
</event>
<event>
      5   9999  3.19816E-02  1.33845E+01 -1.00000E+00  1.82176E-01
      21    -1     0     0   502   512  0.000000000E+00  0.000000000E+00  8.933482168E+01  8.933482168E+01  0.000000000E+00  0.00000E+00  9.000E+00
      21    -1     0     0   501   502  0.000000000E+00  0.000000000E+00 -1.417353210E+03  1.417353210E+03  0.000000000E+00  0.00000E+00  9.000E+00
      25     1     1     2     0     0 -1.798726279E+02  2.463366600E+02 -4.500990144E+02  5.578978716E+02  1.250000000E+02  0.00000E+00  9.000E+00
      25     1     1     2     0     0  1.908080969E+02 -2.540541528E+02 -8.659642376E+02  9.308438661E+02  1.250000000E+02  0.00000E+00  9.000E+00
      21     1     1     2   501   512 -1.093546906E+01  7.717492760E+00 -1.195513592E+01  1.794629358E+01  2.384185791E-07  0.00000E+00  9.000E+00
#rwgt            1           1   2.9895595815384760E-002           7       54140           0
</event>
<event>
      5   9999  3.19816E-02  1.24269E+02 -1.00000E+00  1.19727E-01
      21    -1     0     0   502   501  0.000000000E+00  0.000000000E+00  3.980648653E+02  3.980648653E+02  0.000000000E+00  0.00000E+00  9.000E+00
      -1    -1     0     0     0   502  0.000000000E+00  0.000000000E+00 -5.540215047E+02  5.540215047E+02  0.000000000E+00  0.00000E+00  9.000E+00
      25     1     1     2     0     0  3.715976450E+01  2.917053464E+02  3.693156359E+01  3.216547801E+02  1.250000000E+02  0.00000E+00  9.000E+00
      25     1     1     2     0     0 -3.066951946E+01 -1.676058636E+02  1.543090341E+02  2.616650969E+02  1.250000000E+02  0.00000E+00  9.000E+00
      -1     1     1     2     0   501 -6.490245040E+00 -1.240994827E+02 -3.471972370E+02  3.687664929E+02  3.814697266E-06  0.00000E+00  9.000E+00
#rwgt            1           1   2.7247552095879212E-002           7       54346           0
</event>
<event>
      5   9999  3.19816E-02  3.39665E+02 -1.00000E+00  1.03869E-01
      -2    -1     0     0     0   501  0.000000000E+00  0.000000000E+00  1.022290308E+02  1.022290308E+02  0.000000000E+00  0.00000E+00  9.000E+00
      21    -1     0     0   501   502  0.000000000E+00  0.000000000E+00 -2.189232482E+03  2.189232482E+03  0.000000000E+00  0.00000E+00  9.000E+00
      25     1     1     2     0     0 -1.208584749E+02 -4.669672116E+01 -8.051556818E+02  8.250381971E+02  1.250000000E+02  0.00000E+00  9.000E+00
      25     1     1     2     0     0 -1.693261451E+02  2.232325528E+02 -3.067036818E+02  4.338159338E+02  1.250000000E+02  0.00000E+00  9.000E+00
      -2     1     1     2     0   502  2.901846200E+02 -1.765358317E+02 -9.751440874E+02  1.032607382E+03  1.078959322E-05  0.00000E+00  9.000E+00
#rwgt            1           1   2.9141465892148579E-002           7       54424           0
</event>
<event>
      5   9999  3.19816E-02  3.69274E+01 -1.00000E+00  1.47026E-01
      21    -1     0     0   502   511  0.000000000E+00  0.000000000E+00  9.096599359E+02  9.096599359E+02  0.000000000E+00  0.00000E+00  9.000E+00
      21    -1     0     0   501   502  0.000000000E+00  0.000000000E+00 -4.974822125E+01  4.974822125E+01  0.000000000E+00  0.00000E+00  9.000E+00
      25     1     1     2     0     0  1.023325868E+02 -1.217403744E+01  3.127933629E+02  3.522568003E+02  1.250000000E+02  0.00000E+00  9.000E+00
      25     1     1     2     0     0 -9.828893985E+01 -2.453126630E+01  1.936946767E+02  2.518037460E+02  1.250000000E+02  0.00000E+00  9.000E+00
      21     1     1     2   501   511 -4.043646986E+00  3.670530374E+01  3.534236751E+02  3.553476108E+02  0.000000000E+00  0.00000E+00  9.000E+00
#rwgt            1           1   2.3969307982077477E-002           7       54469           0
</event>
<event>
      5   9999  3.19816E-02  3.09125E+01 -1.00000E+00  1.52141E-01
       3    -1     0     0   502     0  0.000000000E+00  0.000000000E+00  1.375930420E+03  1.375930420E+03  0.000000000E+00  0.00000E+00  9.000E+00
      21    -1     0     0   501   502  0.000000000E+00  0.000000000E+00 -6.005814813E+01  6.005814813E+01  0.000000000E+00  0.00000E+00  9.000E+00
      25     1     1     2     0     0  8.835978842E+01  1.086161867E+02  2.169879547E+02  2.869036436E+02  1.250000000E+02  0.00000E+00  9.000E+00
      25     1     1     2     0     0 -6.506370937E+01 -8.829688839E+01  2.537596683E+02  3.033951154E+02  1.250000000E+02  0.00000E+00  9.000E+00
       3     1     1     2   501     0 -2.329607905E+01 -2.031929830E+01  8.451246487E+02  8.456898090E+02  1.078959322E-05  0.00000E+00  9.000E+00
#rwgt            1           1   3.0421537842602025E-002           7       54543           0
</event>
<event>
      5   9999  3.19816E-02  3.84845E+01 -1.00000E+00  1.45888E-01
      21    -1     0     0   502   501  0.000000000E+00  0.000000000E+00  1.034577449E+03  1.034577449E+03  0.000000000E+00  0.00000E+00  9.000E+00
      21    -1     0     0   501   511  0.000000000E+00  0.000000000E+00 -1.918341590E+02  1.918341590E+02  0.000000000E+00  0.00000E+00  9.000E+00
      25     1     1     2     0     0  1.229777579E+02 -3.836887183E+02  2.967308335E+02  5.157661767E+02  1.250000000E+02  0.00000E+00  9.000E+00
      25     1     1     2     0     0 -1.136006395E+02  3.463641244E+02  5.504214506E+02  6.719092091E+02  1.250000000E+02  0.00000E+00  9.000E+00
      21     1     1     2   502   511 -9.377118422E+00  3.732459394E+01 -4.408994289E+00  3.873622198E+01  6.690604782E-07  0.00000E+00  9.000E+00
#rwgt            1           1   2.3123203868735859E-002           7       54706           0
</event>
<event>
      5   9999  3.19816E-02  5.12427E+01 -1.00000E+00  1.38470E-01
      21    -1     0     0   502   501  0.000000000E+00  0.000000000E+00  5.285292084E+02  5.285292084E+02  0.000000000E+00  0.00000E+00  9.000E+00
      21    -1     0     0   512   502  0.000000000E+00  0.000000000E+00 -1.577794605E+03  1.577794605E+03  0.000000000E+00  0.00000E+00  9.000E+00
      25     1     1     2     0     0 -1.713096081E+01 -6.559443783E+02 -6.396251925E+02  9.248253263E+02  1.250000000E+02  0.00000E+00  9.000E+00
      25     1     1     2     0     0 -2.147678022E+01  6.222508606E+02  1.226218532E+02  6.467754669E+02  1.250000000E+02  0.00000E+00  9.000E+00
      21     1     1     2   512   501  3.860774104E+01  3.369351771E+01 -5.322620574E+02  5.347230204E+02  7.629394531E-06  0.00000E+00  9.000E+00
#rwgt            1           1   3.2135000498635519E-002           7       54808           0
</event>
<event>
      5   9999  3.19816E-02  8.42605E+01 -1.00000E+00  1.27268E-01
      21    -1     0     0   502   511  0.000000000E+00  0.000000000E+00  4.973717099E+02  4.973717099E+02  0.000000000E+00  0.00000E+00  9.000E+00
      21    -1     0     0   501   502  0.000000000E+00  0.000000000E+00 -7.399698325E+02  7.399698325E+02  0.000000000E+00  0.00000E+00  9.000E+00
      25     1     1     2     0     0  7.770306057E+01  1.979693985E+02 -2.735940231E+02  3.683861260E+02  1.250000000E+02  0.00000E+00  9.000E+00
      25     1     1     2     0     0 -1.616879962E+02 -1.911603727E+02 -3.673491832E+02  4.617961873E+02  1.250000000E+02  0.00000E+00  9.000E+00
      21     1     1     2   501   511  8.398493567E+01 -6.809025773E+00  3.983450836E+02  4.071592292E+02  0.000000000E+00  0.00000E+00  9.000E+00
#rwgt            1           1   2.8296663603714165E-002           7       54976           0
</event>
<event>
      5   9999  3.19816E-02  1.65461E+01 -1.00000E+00  1.73462E-01
      21    -1     0     0   502   501  0.000000000E+00  0.000000000E+00  3.705297718E+02  3.705297718E+02  0.000000000E+00  0.00000E+00  9.000E+00
      -1    -1     0     0     0   502  0.000000000E+00  0.000000000E+00 -1.603362451E+02  1.603362451E+02  0.000000000E+00  0.00000E+00  9.000E+00
      25     1     1     2     0     0  7.492422482E+01  6.987065411E+01 -1.243942217E+01  1.620965360E+02  1.250000000E+02  0.00000E+00  9.000E+00
      25     1     1     2     0     0 -6.010819251E+01 -7.723679452E+01  2.729722756E+02  3.157805891E+02  1.250000000E+02  0.00000E+00  9.000E+00
      -1     1     1     2     0   501 -1.481603232E+01  7.366140412E+00 -5.033932664E+01  5.298889171E+01  6.743495762E-07  0.00000E+00  9.000E+00
#rwgt            1           1   2.9173904683476828E-002           7       55016           0
</event>
<event>
      5   9999  3.19816E-02  1.94567E+02 -1.00000E+00  1.12085E-01
      21    -1     0     0   502   501  0.000000000E+00  0.000000000E+00  1.406646038E+02  1.406646038E+02  0.000000000E+00  0.00000E+00  9.000E+00
      21    -1     0     0   511   502  0.000000000E+00  0.000000000E+00 -1.204464677E+03  1.204464677E+03  0.000000000E+00  0.00000E+00  9.000E+00
      25     1     1     2     0     0 -1.244312847E+02 -2.404607627E+02 -3.584594832E+02  4.662860968E+02  1.250000000E+02  0.00000E+00  9.000E+00
      25     1     1     2     0     0 -6.782988636E+01  2.703274588E+02 -2.947080737E+02  4.244474964E+02  1.250000000E+02  0.00000E+00  9.000E+00
      21     1     1     2   511   501  1.922611710E+02 -2.986669618E+01 -4.106325166E+02  4.543956879E+02  5.394796609E-06  0.00000E+00  9.000E+00
#rwgt            1           1   2.8282325007054469E-002           7       55169           0
</event>
<event>
      5   9999  3.19816E-02  2.13531E+01 -1.00000E+00  1.64057E-01
      21    -1     0     0   512   501  0.000000000E+00  0.000000000E+00  8.574929817E+02  8.574929817E+02  0.000000000E+00  0.00000E+00  9.000E+00
      21    -1     0     0   501   502  0.000000000E+00  0.000000000E+00 -2.950070824E+02  2.950070824E+02  0.000000000E+00  0.00000E+00  9.000E+00
      25     1     1     2     0     0  7.266918798E+01 -1.220321196E+02 -2.507447238E+02  3.141187126E+02  1.250000000E+02  0.00000E+00  9.000E+00
      25     1     1     2     0     0 -5.135308848E+01  1.207762809E+02  6.953517591E+02  7.185841068E+02  1.250000000E+02  0.00000E+00  9.000E+00
      21     1     1     2   512   502 -2.131609950E+01  1.255838709E+00  1.178788641E+02  1.197972446E+02  1.348699152E-06  0.00000E+00  9.000E+00
#rwgt            1           1   3.0437599861756794E-002           7       55247           0
</event>
<event>
      5   9999  3.19816E-02  4.97804E+01 -1.00000E+00  1.39185E-01
      21    -1     0     0   502   511  0.000000000E+00  0.000000000E+00  1.821981710E+02  1.821981710E+02  0.000000000E+00  0.00000E+00  9.000E+00
      21    -1     0     0   501   502  0.000000000E+00  0.000000000E+00 -5.787579066E+02  5.787579066E+02  0.000000000E+00  0.00000E+00  9.000E+00
      25     1     1     2     0     0  1.673757790E+02 -8.656971781E+01 -3.898544638E+02  4.506888842E+02  1.250000000E+02  0.00000E+00  9.000E+00
      25     1     1     2     0     0 -2.129471397E+02  6.653632359E+01  1.453638456E+01  2.561442429E+02  1.250000000E+02  0.00000E+00  9.000E+00
      21     1     1     2   501   511  4.557136070E+01  2.003339422E+01 -2.124165638E+01  5.412295046E+01  9.233911863E-07  0.00000E+00  9.000E+00
#rwgt            1           1   2.7835813359335094E-002           7       55413           0
</event>
<event>
      5   9999  3.19816E-02  1.03911E+02 -1.00000E+00  1.23083E-01
      21    -1     0     0   502   501  0.000000000E+00  0.000000000E+00  2.089442669E+03  2.089442669E+03  0.000000000E+00  0.00000E+00  9.000E+00
      21    -1     0     0   512   502  0.000000000E+00  0.000000000E+00 -1.510893077E+03  1.510893077E+03  0.000000000E+00  0.00000E+00  9.000E+00
      25     1     1     2     0     0  4.648924730E+02 -6.661083722E+02 -4.112905890E+02  9.190268351E+02  1.250000000E+02  0.00000E+00  9.000E+00
      25     1     1     2     0     0 -5.474300831E+02  6.029817111E+02  1.739346164E+03  1.924634178E+03  1.250000000E+02  0.00000E+00  9.000E+00
      21     1     1     2   512   501  8.253761007E+01  6.312666111E+01 -7.495059835E+02  7.566747331E+02  1.078959322E-05  0.00000E+00  9.000E+00
#rwgt            1           1   5.5891927595248046E-002           7       55505           0
</event>
<event>
      5   9999  3.19816E-02  6.49247E+01 -1.00000E+00  1.32898E-01
      21    -1     0     0   502   501  0.000000000E+00  0.000000000E+00  1.388314856E+03  1.388314856E+03  0.000000000E+00  0.00000E+00  9.000E+00
      21    -1     0     0   501   511  0.000000000E+00  0.000000000E+00 -6.222098867E+01  6.222098867E+01  0.000000000E+00  0.00000E+00  9.000E+00
      25     1     1     2     0     0  2.177501742E+02  4.791973368E+00  4.551887835E+02  5.198652999E+02  1.250000000E+02  0.00000E+00  9.000E+00
      25     1     1     2     0     0 -2.168873877E+02  6.012699031E+01  7.567520271E+02  7.993459979E+02  1.250000000E+02  0.00000E+00  9.000E+00
      21     1     1     2   502   511 -8.627864709E-01 -6.491896367E+01  1.141530566E+02  1.313245467E+02  1.907348633E-06  0.00000E+00  9.000E+00
#rwgt            1           1   3.8513377215164395E-002           7       55681           0
</event>
<event>
      5   9999  3.19816E-02  9.01029E+01 -1.00000E+00  1.25898E-01
      21    -1     0     0   502   501  0.000000000E+00  0.000000000E+00  2.345423864E+03  2.345423864E+03  0.000000000E+00  0.00000E+00  9.000E+00
      21    -1     0     0   512   502  0.000000000E+00  0.000000000E+00 -7.938703062E+02  7.938703062E+02  0.000000000E+00  0.00000E+00  9.000E+00
      25     1     1     2     0     0  8.926848453E+00  1.762461964E+02  1.774074390E+03  1.787206578E+03  1.250000000E+02  0.00000E+00  9.000E+00
      25     1     1     2     0     0 -7.292217232E+00 -8.615815746E+01  5.518980520E+02  5.724446387E+02  1.250000000E+02  0.00000E+00  9.000E+00
      21     1     1     2   512   501 -1.634631221E+00 -9.008803890E+01 -7.744188843E+02  7.796429536E+02  0.000000000E+00  0.00000E+00  9.000E+00
#rwgt            1           1   6.8590680618606084E-002           7       55801           0
</event>
<event>
      5   9999  3.19816E-02  8.84118E+01 -1.00000E+00  1.26283E-01
       1    -1     0     0   502     0  0.000000000E+00  0.000000000E+00  1.470638043E+03  1.470638043E+03  0.000000000E+00  0.00000E+00  9.000E+00
      21    -1     0     0   501   502  0.000000000E+00  0.000000000E+00 -6.635834994E+02  6.635834994E+02  0.000000000E+00  0.00000E+00  9.000E+00
      25     1     1     2     0     0 -1.615883108E+02  4.626558833E+01 -3.972711347E+02  4.491109454E+02  1.250000000E+02  0.00000E+00  9.000E+00
      25     1     1     2     0     0  8.029035824E+01 -1.151949769E+01 -2.157932655E+02  2.622422046E+02  1.250000000E+02  0.00000E+00  9.000E+00
       1     1     1     2   501     0  8.129795254E+01 -3.474609064E+01  1.420118944E+03  1.422868393E+03  0.000000000E+00  0.00000E+00  9.000E+00
#rwgt            1           1   2.8659267174651410E-002           7       55869           0
</event>
<event>
      5   9999  3.19816E-02  2.23916E+01 -1.00000E+00  1.62421E-01
      21    -1     0     0   502   501  0.000000000E+00  0.000000000E+00  3.745320461E+02  3.745320461E+02  0.000000000E+00  0.00000E+00  9.000E+00
      21    -1     0     0   501   511  0.000000000E+00  0.000000000E+00 -9.487577631E+01  9.487577631E+01  0.000000000E+00  0.00000E+00  9.000E+00
      25     1     1     2     0     0 -8.349230191E+01 -8.447975602E+01  6.933455438E+01  1.858496007E+02  1.250000000E+02  0.00000E+00  9.000E+00
      25     1     1     2     0     0  8.974727774E+01  6.297950506E+01  1.957867915E+02  2.568627253E+02  1.250000000E+02  0.00000E+00  9.000E+00
      21     1     1     2   502   511 -6.254975823E+00  2.150025096E+01  1.453492383E+01  2.669549634E+01  3.371747881E-07  0.00000E+00  9.000E+00
#rwgt            1           1   2.8594002389660034E-002           7       55925           0
</event>
<event>
      5   9999  3.88505E-02  3.34353E+01 -1.00000E+00  1.49840E-01
      21    -1     0     0   502   512  0.000000000E+00  0.000000000E+00  1.342698148E+03  1.342698148E+03  0.000000000E+00  0.00000E+00  9.000E+00
      21    -1     0     0   501   502  0.000000000E+00  0.000000000E+00 -1.198218521E+03  1.198218521E+03  0.000000000E+00  0.00000E+00  9.000E+00
      25     1     1     2     0     0  6.091487041E+02 -3.293090932E+01 -1.015107818E+03  1.190888522E+03  1.250000000E+02  0.00000E+00  9.000E+00
      25     1     1     2     0     0 -6.422025857E+02  3.796673707E+01  1.074236708E+03  1.258362085E+03  1.250000000E+02  0.00000E+00  9.000E+00
      21     1     1     2   501   512  3.305388159E+01 -5.035827747E+00  8.535073674E+01  9.166606194E+01  1.651812370E-06  0.00000E+00  9.000E+00
#rwgt            1           1   9.2601176805786861E-002           7       56014           0
</event>
<event>
      5   9999  3.19816E-02  4.42431E+01 -1.00000E+00  1.42176E-01
      21    -1     0     0   511   501  0.000000000E+00  0.000000000E+00  5.694528409E+02  5.694528409E+02  0.000000000E+00  0.00000E+00  9.000E+00
      21    -1     0     0   501   502  0.000000000E+00  0.000000000E+00 -2.985630840E+02  2.985630840E+02  0.000000000E+00  0.00000E+00  9.000E+00
      25     1     1     2     0     0  7.665941084E+01 -3.045117246E+02  1.260619322E+02  3.607224230E+02  1.250000000E+02  0.00000E+00  9.000E+00
      25     1     1     2     0     0 -1.049600909E+02  3.385194193E+02  2.168081290E+01  3.764400026E+02  1.250000000E+02  0.00000E+00  9.000E+00
      21     1     1     2   511   502  2.830068003E+01 -3.400769462E+01  1.231470118E+02  1.308534993E+02  3.015782986E-06  0.00000E+00  9.000E+00
#rwgt            1           1   3.0789492947448042E-002           7       56211           0
</event>
<event>
      5   9999  3.19816E-02  4.90304E+01 -1.00000E+00  1.39563E-01
      21    -1     0     0   502   512  0.000000000E+00  0.000000000E+00  1.468602819E+03  1.468602819E+03  0.000000000E+00  0.00000E+00  9.000E+00
      21    -1     0     0   501   502  0.000000000E+00  0.000000000E+00 -8.174676889E+01  8.174676889E+01  0.000000000E+00  0.00000E+00  9.000E+00
      25     1     1     2     0     0  4.613028158E+01  2.408308815E+02  7.946952181E+02  8.410071379E+02  1.250000000E+02  0.00000E+00  9.000E+00
      25     1     1     2     0     0 -6.418803445E+01 -1.952469280E+02  1.963748841E+02  3.105310963E+02  1.250000000E+02  0.00000E+00  9.000E+00
      21     1     1     2   501   512  1.805775286E+01 -4.558395350E+01  3.957859477E+02  3.988113535E+02  0.000000000E+00  0.00000E+00  9.000E+00
#rwgt            1           1   2.9404243911944777E-002           7       56315           0
</event>
<event>
      5   9999  3.19816E-02  1.72126E+01 -1.00000E+00  1.71933E-01
      21    -1     0     0   502   501  0.000000000E+00  0.000000000E+00  8.341068739E+02  8.341068739E+02  0.000000000E+00  0.00000E+00  9.000E+00
      21    -1     0     0   501   511  0.000000000E+00  0.000000000E+00 -1.498558996E+02  1.498558996E+02  0.000000000E+00  0.00000E+00  9.000E+00
      25     1     1     2     0     0  2.897565036E+02  2.872593131E+01  5.303041220E+02  6.177632818E+02  1.250000000E+02  0.00000E+00  9.000E+00
      25     1     1     2     0     0 -2.855982957E+02 -4.542866299E+01  1.453976232E+02  3.469807182E+02  1.250000000E+02  0.00000E+00  9.000E+00
      21     1     1     2   502   511 -4.158207848E+00  1.670273169E+01  8.549229035E+00  1.921877351E+01  2.064765462E-07  0.00000E+00  9.000E+00
#rwgt            1           1   3.0977255082389622E-002           7       56408           0
</event>
<event>
      5   9999  3.19816E-02  5.77696E+01 -1.00000E+00  1.35588E-01
      21    -1     0     0   502   501  0.000000000E+00  0.000000000E+00  3.947942404E+02  3.947942404E+02  0.000000000E+00  0.00000E+00  9.000E+00
      21    -1     0     0   501   512  0.000000000E+00  0.000000000E+00 -1.563204662E+02  1.563204662E+02  0.000000000E+00  0.00000E+00  9.000E+00
      25     1     1     2     0     0 -7.316348201E+01  1.407248035E+02  2.566290323E+02  3.265575380E+02  1.250000000E+02  0.00000E+00  9.000E+00
      25     1     1     2     0     0  6.531364707E+01 -8.349100434E+01  3.516865310E-01  1.638955276E+02  1.250000000E+02  0.00000E+00  9.000E+00
      21     1     1     2   502   512  7.849834941E+00 -5.723379914E+01 -1.850694463E+01  6.066164086E+01  6.307962682E-07  0.00000E+00  9.000E+00
#rwgt            1           1   3.4120917774372976E-002           7       56615           0
</event>
<event>
      5   9999  3.19816E-02  1.38459E+02 -1.00000E+00  1.17789E-01
       3    -1     0     0   502     0  0.000000000E+00  0.000000000E+00  4.083132721E+02  4.083132721E+02  0.000000000E+00  0.00000E+00  9.000E+00
      21    -1     0     0   501   502  0.000000000E+00  0.000000000E+00 -4.152348324E+02  4.152348324E+02  0.000000000E+00  0.00000E+00  9.000E+00
      25     1     1     2     0     0  1.674354946E+01  5.808605942E+01  1.110397430E+02  1.777896546E+02  1.250000000E+02  0.00000E+00  9.000E+00
      25     1     1     2     0     0  2.799927851E+01 -1.891160903E+02 -3.246661812E+02  3.969659738E+02  1.250000000E+02  0.00000E+00  9.000E+00
       3     1     1     2   501     0 -4.474282797E+01  1.310300308E+02  2.067048778E+02  2.487924760E+02  4.672030912E-06  0.00000E+00  9.000E+00
#rwgt            1           1   2.8542529972106392E-002           7       56713           0
</event>
<event>
      5   9999  3.19816E-02  3.81304E+01 -1.00000E+00  1.46141E-01
      21    -1     0     0   511   501  0.000000000E+00  0.000000000E+00  3.893139970E+02  3.893139970E+02  0.000000000E+00  0.00000E+00  9.000E+00
      21    -1     0     0   501   502  0.000000000E+00  0.000000000E+00 -6.800176114E+02  6.800176114E+02  0.000000000E+00  0.00000E+00  9.000E+00
      25     1     1     2     0     0  8.430707106E+01 -4.157985514E+02  3.234499351E+01  4.434718888E+02  1.250000000E+02  0.00000E+00  9.000E+00
      25     1     1     2     0     0 -9.543903065E+01  3.793293289E+02 -3.785635288E+02  5.585111401E+02  1.250000000E+02  0.00000E+00  9.000E+00
      21     1     1     2   511   502  1.113195959E+01  3.646922247E+01  5.551492088E+01  6.734857944E+01  6.743495762E-07  0.00000E+00  9.000E+00
#rwgt            1           1   2.5706591024638174E-002           7       56760           0
</event>
<event>
      5   9999  3.19816E-02  1.09915E+02 -1.00000E+00  1.22009E-01
      -3    -1     0     0     0   501  0.000000000E+00  0.000000000E+00  1.016287068E+02  1.016287068E+02  0.000000000E+00  0.00000E+00  9.000E+00
      21    -1     0     0   501   502  0.000000000E+00  0.000000000E+00 -6.519182296E+02  6.519182296E+02  0.000000000E+00  0.00000E+00  9.000E+00
      25     1     1     2     0     0 -7.878740697E+01  7.195849947E+01 -3.612559505E+02  3.968832863E+02  1.250000000E+02  0.00000E+00  9.000E+00
      25     1     1     2     0     0  1.032959173E+02  3.518957589E+01 -1.823491580E+02  2.465452660E+02  1.250000000E+02  0.00000E+00  9.000E+00
      -3     1     1     2     0   502 -2.450851036E+01 -1.071480754E+02 -6.684414281E+00  1.101183841E+02  1.500806607E-06  0.00000E+00  9.000E+00
#rwgt            1           1   3.2803181102666570E-002           7       56862           0
</event>
<event>
      5   9999  3.19816E-02  8.16668E+01 -1.00000E+00  1.27918E-01
      21    -1     0     0   502   501  0.000000000E+00  0.000000000E+00  1.416595865E+02  1.416595865E+02  0.000000000E+00  0.00000E+00  9.000E+00
      21    -1     0     0   501   511  0.000000000E+00  0.000000000E+00 -3.635676424E+02  3.635676424E+02  0.000000000E+00  0.00000E+00  9.000E+00
      25     1     1     2     0     0 -8.852132156E+01 -5.235510457E+01  1.083094069E+00  1.618741932E+02  1.250000000E+02  0.00000E+00  9.000E+00
      25     1     1     2     0     0  2.003040732E+01  9.683490967E+01 -7.917266659E+01  1.779649631E+02  1.250000000E+02  0.00000E+00  9.000E+00
      21     1     1     2   502   511  6.849091424E+01 -4.447980510E+01 -1.438184834E+02  1.653880726E+02  0.000000000E+00  0.00000E+00  9.000E+00
#rwgt            2          11   3.9196323751250674E-003           7       56917           0
</event>
<event>
      5   9999  3.19816E-02  1.38769E+02 -1.00000E+00  1.17749E-01
       1    -1     0     0   502     0  0.000000000E+00  0.000000000E+00  3.463490939E+03  3.463490939E+03  0.000000000E+00  0.00000E+00  9.000E+00
      21    -1     0     0   501   502  0.000000000E+00  0.000000000E+00 -3.530834181E+02  3.530834181E+02  0.000000000E+00  0.00000E+00  9.000E+00
      25     1     1     2     0     0  1.865656182E+02 -3.006365567E+01  3.381405949E+02  4.070314671E+02  1.250000000E+02  0.00000E+00  9.000E+00
      25     1     1     2     0     0 -6.796210170E+01  1.021053647E+02 -2.928861758E+02  3.412501498E+02  1.250000000E+02  0.00000E+00  9.000E+00
       1     1     1     2   501     0 -1.186035165E+02 -7.204170899E+01  3.065153102E+03  3.068292740E+03  6.103515625E-05  0.00000E+00  9.000E+00
#rwgt            1           1   2.5158099864617891E-002           7       56937           0
</event>
<event>
      5   9999  3.19816E-02  1.47960E+01 -1.00000E+00  1.77946E-01
      21    -1     0     0   502   501  0.000000000E+00  0.000000000E+00  5.162422115E+02  5.162422115E+02  0.000000000E+00  0.00000E+00  9.000E+00
      21    -1     0     0   501   511  0.000000000E+00  0.000000000E+00 -3.392644127E+02  3.392644127E+02  0.000000000E+00  0.00000E+00  9.000E+00
      25     1     1     2     0     0  3.681685989E+01 -2.581386841E+02  3.235007862E+02  4.338995507E+02  1.250000000E+02  0.00000E+00  9.000E+00
      25     1     1     2     0     0 -4.865085228E+01  2.670199808E+02 -2.574256403E+01  2.999237489E+02  1.250000000E+02  0.00000E+00  9.000E+00
      21     1     1     2   502   511  1.183399239E+01 -8.881296684E+00 -1.207804234E+02  1.216833246E+02  0.000000000E+00  0.00000E+00  9.000E+00
#rwgt            1           1   2.7983459744704325E-002           7       57049           0
</event>
<event>
      5   9999  3.19816E-02  1.50141E+01 -1.00000E+00  1.77345E-01
      21    -1     0     0   502   501  0.000000000E+00  0.000000000E+00  2.884048289E+02  2.884048289E+02  0.000000000E+00  0.00000E+00  9.000E+00
      21    -1     0     0   501   512  0.000000000E+00  0.000000000E+00 -2.397466139E+02  2.397466139E+02  0.000000000E+00  0.00000E+00  9.000E+00
      25     1     1     2     0     0 -6.341616837E+01  1.936200541E+02  1.142675514E+02  2.649385006E+02  1.250000000E+02  0.00000E+00  9.000E+00
      25     1     1     2     0     0  4.900976562E+01 -1.978482185E+02 -5.663127448E+01  2.457193032E+02  1.250000000E+02  0.00000E+00  9.000E+00
      21     1     1     2   502   512  1.440640275E+01  4.228164382E+00 -8.978061909E+00  1.749363913E+01  2.064765462E-07  0.00000E+00  9.000E+00
#rwgt            1           1   2.6899690485747516E-002           7       57181           0
</event>
<event>
      5   9999  3.19816E-02  1.37222E+01 -1.00000E+00  1.81105E-01
      21    -1     0     0   502   501  0.000000000E+00  0.000000000E+00  1.130944136E+03  1.130944136E+03  0.000000000E+00  0.00000E+00  9.000E+00
      21    -1     0     0   511   502  0.000000000E+00  0.000000000E+00 -1.599557693E+02  1.599557693E+02  0.000000000E+00  0.00000E+00  9.000E+00
      25     1     1     2     0     0 -1.340940832E+02  3.355584460E+02  4.809952426E+02  6.144608346E+02  1.250000000E+02  0.00000E+00  9.000E+00
      25     1     1     2     0     0  1.476874929E+02 -3.336824758E+02  5.176555518E+02  6.455601138E+02  1.250000000E+02  0.00000E+00  9.000E+00
      21     1     1     2   511   501 -1.359340969E+01 -1.875970218E+00 -2.766242788E+01  3.087895671E+01  1.215700987E-06  0.00000E+00  9.000E+00
#rwgt            1           1   2.6905593790928134E-002           7       57390           0
</event>
<event>
      5   9999  3.19816E-02  3.48727E+01 -1.00000E+00  1.48634E-01
      21    -1     0     0   502   501  0.000000000E+00  0.000000000E+00  4.651193227E+02  4.651193227E+02  0.000000000E+00  0.00000E+00  9.000E+00
      21    -1     0     0   501   512  0.000000000E+00  0.000000000E+00 -6.762539644E+01  6.762539644E+01  0.000000000E+00  0.00000E+00  9.000E+00
      25     1     1     2     0     0 -2.354209412E+01  5.549083544E+01  1.388700535E+02  1.963246158E+02  1.250000000E+02  0.00000E+00  9.000E+00
      25     1     1     2     0     0  3.828654092E+01 -8.709312139E+01  2.573738044E+02  3.015250341E+02  1.250000000E+02  0.00000E+00  9.000E+00
      21     1     1     2   502   512 -1.474444680E+01  3.160228595E+01  1.250068444E+00  3.489506928E+01  4.650499384E-07  0.00000E+00  9.000E+00
#rwgt            1           1   4.3653314614625981E-002           7       57654           0
</event>
<event>
      5   9999  3.19816E-02  3.51164E+01 -1.00000E+00  1.48437E-01
      21    -1     0     0   502   501  0.000000000E+00  0.000000000E+00  3.550441945E+02  3.550441945E+02  0.000000000E+00  0.00000E+00  9.000E+00
       2    -1     0     0   501     0  0.000000000E+00  0.000000000E+00 -1.963415987E+03  1.963415987E+03  0.000000000E+00  0.00000E+00  9.000E+00
      25     1     1     2     0     0  1.566878373E+02 -3.566587346E+02 -6.812196092E+02  7.946330520E+02  1.250000000E+02  0.00000E+00  9.000E+00
      25     1     1     2     0     0 -1.864199669E+02  3.753445429E+02  1.376200649E+02  4.584759669E+02  1.250000000E+02  0.00000E+00  9.000E+00
       2     1     1     2   502     0  2.973212968E+01 -1.868580833E+01 -1.064772249E+03  1.065351163E+03  1.525878906E-05  0.00000E+00  9.000E+00
#rwgt            1           1   2.6640744822271523E-002           7       57747           0
</event>
<event>
      5   9999  3.19816E-02  1.44470E+01 -1.00000E+00  1.78934E-01
      21    -1     0     0   511   501  0.000000000E+00  0.000000000E+00  2.006085786E+02  2.006085786E+02  0.000000000E+00  0.00000E+00  9.000E+00
      21    -1     0     0   501   502  0.000000000E+00  0.000000000E+00 -1.400033984E+03  1.400033984E+03  0.000000000E+00  0.00000E+00  9.000E+00
      25     1     1     2     0     0  4.275405398E+02 -8.496605865E+01 -4.850424495E+02  6.640040076E+02  1.250000000E+02  0.00000E+00  9.000E+00
      25     1     1     2     0     0 -4.136117771E+02  8.113112482E+01 -7.659127238E+02  8.831218840E+02  1.250000000E+02  0.00000E+00  9.000E+00
      21     1     1     2   511   502 -1.392876272E+01  3.834933823E+00  5.152976763E+01  5.351667124E+01  1.907348633E-06  0.00000E+00  9.000E+00
#rwgt            1           1   2.8930569867932895E-002           7       57901           0
</event>
<event>
      5   9999  3.19816E-02  1.92285E+02 -1.00000E+00  1.12274E-01
      21    -1     0     0   502   512  0.000000000E+00  0.000000000E+00  2.278679574E+03  2.278679574E+03  0.000000000E+00  0.00000E+00  9.000E+00
      21    -1     0     0   501   502  0.000000000E+00  0.000000000E+00 -7.764754044E+01  7.764754044E+01  0.000000000E+00  0.00000E+00  9.000E+00
      25     1     1     2     0     0 -3.453911517E+02  1.605859405E+02  1.137709490E+03  1.206271435E+03  1.250000000E+02  0.00000E+00  9.000E+00
      25     1     1     2     0     0  1.706967728E+02 -8.024109011E+01  4.015713405E+02  4.609344447E+02  1.250000000E+02  0.00000E+00  9.000E+00
      21     1     1     2   501   512  1.746943789E+02 -8.034485037E+01  6.617512028E+02  6.891212342E+02  7.629394531E-06  0.00000E+00  9.000E+00
#rwgt            2          11   2.3931548060858350E-003           7       58256           0
</event>
<event>
      5   9999  3.19816E-02  2.23108E+01 -1.00000E+00  1.62544E-01
      21    -1     0     0   502   501  0.000000000E+00  0.000000000E+00  9.579023383E+01  9.579023383E+01  0.000000000E+00  0.00000E+00  9.000E+00
      21    -1     0     0   511   502  0.000000000E+00  0.000000000E+00 -6.047164424E+02  6.047164424E+02  0.000000000E+00  0.00000E+00  9.000E+00
      25     1     1     2     0     0 -5.352439438E+00  1.512083154E+02 -6.987026424E+01  2.083253635E+02  1.250000000E+02  0.00000E+00  9.000E+00
      25     1     1     2     0     0  2.763510765E+01 -1.500886624E+02 -4.142202485E+02  4.587959459E+02  1.250000000E+02  0.00000E+00  9.000E+00
      21     1     1     2   511   501 -2.228266821E+01 -1.119653076E+00 -2.483569582E+01  3.338536674E+01  0.000000000E+00  0.00000E+00  9.000E+00
#rwgt            1           1   2.9426480040051859E-002           7       58276           0
</event>
<event>
      5   9999  3.19816E-02  1.15307E+01 -1.00000E+00  1.88868E-01
      21    -1     0     0   502   501  0.000000000E+00  0.000000000E+00  2.652813840E+02  2.652813840E+02  0.000000000E+00  0.00000E+00  9.000E+00
      21    -1     0     0   501   512  0.000000000E+00  0.000000000E+00 -5.682205106E+02  5.682205106E+02  0.000000000E+00  0.00000E+00  9.000E+00
      25     1     1     2     0     0  1.207517869E+02  8.076191060E+01 -4.904873319E+02  5.265988064E+02  1.250000000E+02  0.00000E+00  9.000E+00
      25     1     1     2     0     0 -1.290533831E+02 -7.275933155E+01  2.074403782E+02  2.839105608E+02  1.250000000E+02  0.00000E+00  9.000E+00
      21     1     1     2   502   512  8.301596254E+00 -8.002579048E+00 -1.989217293E+01  2.299252739E+01  2.384185791E-07  0.00000E+00  9.000E+00
#rwgt            1           1   2.7046615141506237E-002           7       58460           0
</event>
<event>
      5   9999  3.19816E-02  2.81992E+01 -1.00000E+00  1.54931E-01
      21    -1     0     0   502   511  0.000000000E+00  0.000000000E+00  5.406804424E+02  5.406804424E+02  0.000000000E+00  0.00000E+00  9.000E+00
      21    -1     0     0   501   502  0.000000000E+00  0.000000000E+00 -6.807741839E+02  6.807741839E+02  0.000000000E+00  0.00000E+00  9.000E+00
      25     1     1     2     0     0 -2.277531466E+02  4.952491853E+02 -2.471267951E+02  6.114244878E+02  1.250000000E+02  0.00000E+00  9.000E+00
      25     1     1     2     0     0  2.559516744E+02 -4.950545771E+02  9.351266026E+01  5.787572130E+02  1.250000000E+02  0.00000E+00  9.000E+00
      21     1     1     2   501   511 -2.819852775E+01 -1.946082350E-01  1.352039334E+01  3.127292560E+01  2.384185791E-07  0.00000E+00  9.000E+00
#rwgt            1           1   2.3231264035436537E-002           7       58750           0
</event>
<event>
      5   9999  3.19816E-02  1.02882E+02 -1.00000E+00  1.23276E-01
      21    -1     0     0   502   512  0.000000000E+00  0.000000000E+00  6.313331918E+02  6.313331918E+02  0.000000000E+00  0.00000E+00  9.000E+00
      21    -1     0     0   501   502  0.000000000E+00  0.000000000E+00 -6.948493554E+02  6.948493554E+02  0.000000000E+00  0.00000E+00  9.000E+00
      25     1     1     2     0     0 -5.156466553E+02  2.881376831E+02 -1.919172176E+02  6.335392774E+02  1.250000000E+02  0.00000E+00  9.000E+00
      25     1     1     2     0     0  4.130948709E+02 -2.799061503E+02 -1.680226283E+01  5.146864496E+02  1.250000000E+02  0.00000E+00  9.000E+00
      21     1     1     2   501   512  1.025517844E+02 -8.231532786E+00  1.452033169E+02  1.779568202E+02  1.907348633E-06  0.00000E+00  9.000E+00
#rwgt            2          11   3.7830682257997310E-003           7       58946           0
</event>
<event>
      5   9999  3.19816E-02  6.33175E+02 -1.00000E+00  9.60233E-02
      21    -1     0     0   502   511  0.000000000E+00  0.000000000E+00  6.051459576E+02  6.051459576E+02  0.000000000E+00  0.00000E+00  9.000E+00
      21    -1     0     0   501   502  0.000000000E+00  0.000000000E+00 -1.808276539E+03  1.808276539E+03  0.000000000E+00  0.00000E+00  9.000E+00
      25     1     1     2     0     0 -4.967158047E+01 -4.106432601E+00 -4.617147165E+01  1.422706347E+02  1.250000000E+02  0.00000E+00  9.000E+00
      25     1     1     2     0     0  3.989060041E+02  5.322599526E+02 -1.429647801E+03  1.581753613E+03  1.250000000E+02  0.00000E+00  9.000E+00
      21     1     1     2   501   511 -3.492344237E+02 -5.281535200E+02  2.726886913E+02  6.893982490E+02  9.344061824E-06  0.00000E+00  9.000E+00
#rwgt            2          11   3.9113443873629635E-003           7       58981           0
</event>
<event>
      5   9999  3.19816E-02  3.87956E+01 -1.00000E+00  1.45668E-01
      21    -1     0     0   502   501  0.000000000E+00  0.000000000E+00  1.585000463E+03  1.585000463E+03  0.000000000E+00  0.00000E+00  9.000E+00
      21    -1     0     0   512   502  0.000000000E+00  0.000000000E+00 -7.953127388E+02  7.953127388E+02  0.000000000E+00  0.00000E+00  9.000E+00
      25     1     1     2     0     0  5.297434205E+02  4.856581428E+02  1.236571027E+03  1.435696635E+03  1.250000000E+02  0.00000E+00  9.000E+00
      25     1     1     2     0     0 -5.546756328E+02 -4.559346668E+02 -2.923052554E+02  7.852444462E+02  1.250000000E+02  0.00000E+00  9.000E+00
      21     1     1     2   512   501  2.493221221E+01 -2.972347601E+01 -1.545780471E+02  1.593721207E+02  1.907348633E-06  0.00000E+00  9.000E+00
#rwgt            1           1   3.4209419644545984E-002           7       59001           0
</event>
<event>
      5   9999  3.19816E-02  9.69432E+01 -1.00000E+00  1.24437E-01
       3    -1     0     0   502     0  0.000000000E+00  0.000000000E+00  3.866146197E+02  3.866146197E+02  0.000000000E+00  0.00000E+00  9.000E+00
      21    -1     0     0   501   502  0.000000000E+00  0.000000000E+00 -1.449266902E+02  1.449266902E+02  0.000000000E+00  0.00000E+00  9.000E+00
      25     1     1     2     0     0 -3.801562156E+00  4.202433167E+01 -1.839915917E+01  1.332067017E+02  1.250000000E+02  0.00000E+00  9.000E+00
      25     1     1     2     0     0  4.341019632E+01 -1.305067946E+02  9.964931085E+01  2.108825591E+02  1.250000000E+02  0.00000E+00  9.000E+00
       3     1     1     2   501     0 -3.960863416E+01  8.848246298E+01  1.604377778E+02  1.874520490E+02  2.697398305E-06  0.00000E+00  9.000E+00
#rwgt            1           1   2.0776037549797548E-002           7       59159           0
</event>
<event>
      5   9999  3.19816E-02  3.96663E+01 -1.00000E+00  1.45066E-01
      21    -1     0     0   502   501  0.000000000E+00  0.000000000E+00  2.734886156E+01  2.734886156E+01  0.000000000E+00  0.00000E+00  9.000E+00
       2    -1     0     0   501     0  0.000000000E+00  0.000000000E+00 -2.465474183E+03  2.465474183E+03  0.000000000E+00  0.00000E+00  9.000E+00
      25     1     1     2     0     0 -3.045704648E+01  1.128676016E+02 -7.945456034E+02  8.127696125E+02  1.250000000E+02  0.00000E+00  9.000E+00
      25     1     1     2     0     0  5.099050024E+01 -7.892950567E+01 -3.228655235E+02  3.587437027E+02  1.250000000E+02  0.00000E+00  9.000E+00
       2     1     1     2   502     0 -2.053345376E+01 -3.393809594E+01 -1.320714195E+03  1.321309729E+03  3.051757812E-05  0.00000E+00  9.000E+00
#rwgt            1           1   3.1084027618830369E-002           7       59214           0
</event>
<event>
      5   9999  3.19816E-02  5.21479E+01 -1.00000E+00  1.38041E-01
      21    -1     0     0   511   501  0.000000000E+00  0.000000000E+00  6.303328650E+02  6.303328650E+02  0.000000000E+00  0.00000E+00  9.000E+00
      21    -1     0     0   501   502  0.000000000E+00  0.000000000E+00 -4.996863323E+02  4.996863323E+02  0.000000000E+00  0.00000E+00  9.000E+00
      25     1     1     2     0     0 -8.493348226E+01  4.419679493E+02 -8.640849941E+01  4.750166243E+02  1.250000000E+02  0.00000E+00  9.000E+00
      25     1     1     2     0     0  3.883574592E+01 -4.663483636E+02  5.825612062E+01  4.878604175E+02  1.250000000E+02  0.00000E+00  9.000E+00
      21     1     1     2   511   502  4.609773634E+01  2.438041430E+01  1.587989115E+02  1.671421556E+02  1.907348633E-06  0.00000E+00  9.000E+00
#rwgt            1           1   3.0318583935779408E-002           7       59298           0
</event>
<event>
      5   9999  3.19816E-02  6.06972E+01 -1.00000E+00  1.34436E-01
       1    -1     0     0   502     0  0.000000000E+00  0.000000000E+00  4.031482692E+02  4.031482692E+02  0.000000000E+00  0.00000E+00  9.000E+00
      21    -1     0     0   501   502  0.000000000E+00  0.000000000E+00 -6.810267157E+02  6.810267157E+02  0.000000000E+00  0.00000E+00  9.000E+00
      25     1     1     2     0     0  9.979447802E+01 -2.013256331E+01 -1.221415724E+02  2.022568210E+02  1.250000000E+02  0.00000E+00  9.000E+00
      25     1     1     2     0     0 -1.048516521E+02 -4.035358781E+01  3.416973973E+02  3.807944227E+02  1.250000000E+02  0.00000E+00  9.000E+00
       1     1     1     2   501     0  5.057174064E+00  6.048615111E+01 -4.974342716E+02  5.011237412E+02  0.000000000E+00  0.00000E+00  9.000E+00
#rwgt            1           1   2.8717841585915085E-002           7       59461           0
</event>
<event>
      5   9999  3.19816E-02  3.46038E+01 -1.00000E+00  1.48855E-01
      21    -1     0     0   502   501  0.000000000E+00  0.000000000E+00  1.084484976E+03  1.084484976E+03  0.000000000E+00  0.00000E+00  9.000E+00
      21    -1     0     0   511   502  0.000000000E+00  0.000000000E+00 -3.836204386E+02  3.836204386E+02  0.000000000E+00  0.00000E+00  9.000E+00
      25     1     1     2     0     0  1.605374483E+02 -4.383053454E+02  4.779514003E+02  6.796663808E+02  1.250000000E+02  0.00000E+00  9.000E+00
      25     1     1     2     0     0 -1.461917419E+02  4.697954392E+02  3.758481679E+02  6.316380494E+02  1.250000000E+02  0.00000E+00  9.000E+00
      21     1     1     2   511   501 -1.434570645E+01 -3.149009384E+01 -1.529350304E+02  1.568009848E+02  4.264961200E-06  0.00000E+00  9.000E+00
#rwgt            1           1   2.7779065370862607E-002           7       59528           0
</event>
<event>
      5   9999  3.19816E-02  1.00407E+02 -1.00000E+00  1.23749E-01
      21    -1     0     0   502   501  0.000000000E+00  0.000000000E+00  4.019982671E+02  4.019982671E+02  0.000000000E+00  0.00000E+00  9.000E+00
      21    -1     0     0   501   512  0.000000000E+00  0.000000000E+00 -8.652297592E+02  8.652297592E+02  0.000000000E+00  0.00000E+00  9.000E+00
      25     1     1     2     0     0 -2.450090050E+02 -3.544263734E+02  3.930181176E+01  4.503521945E+02  1.250000000E+02  0.00000E+00  9.000E+00
      25     1     1     2     0     0  3.224606332E+02  4.183227371E+02 -4.387110517E+02  6.979019697E+02  1.250000000E+02  0.00000E+00  9.000E+00
      21     1     1     2   502   512 -7.745162817E+01 -6.389636374E+01 -6.382225210E+01  1.189738621E+02  6.743495762E-07  0.00000E+00  9.000E+00
#rwgt            1           1   3.1042467166602902E-002           7       59678           0
</event>
<event>
      5   9999  3.19816E-02  3.58012E+01 -1.00000E+00  1.47892E-01
      21    -1     0     0   502   511  0.000000000E+00  0.000000000E+00  2.987063887E+03  2.987063887E+03  0.000000000E+00  0.00000E+00  9.000E+00
      21    -1     0     0   501   502  0.000000000E+00  0.000000000E+00 -8.107557795E+02  8.107557795E+02  0.000000000E+00  0.00000E+00  9.000E+00
      25     1     1     2     0     0 -7.384198867E+01  1.354797281E+03  4.834062935E+02  1.445764489E+03  1.250000000E+02  0.00000E+00  9.000E+00
      25     1     1     2     0     0  1.085314595E+02 -1.363649706E+03  1.104674647E+03  1.762739537E+03  1.250000000E+02  0.00000E+00  9.000E+00
      21     1     1     2   501   511 -3.468947079E+01  8.852425195E+00  5.882271670E+02  5.893156410E+02  0.000000000E+00  0.00000E+00  9.000E+00
#rwgt            2          11   5.3915128223106070E-003           7       59758           0
</event>
<event>
      5   9999  3.19816E-02  2.11057E+01 -1.00000E+00  1.64464E-01
      21    -1     0     0   512   501  0.000000000E+00  0.000000000E+00  1.062669365E+03  1.062669365E+03  0.000000000E+00  0.00000E+00  9.000E+00
      21    -1     0     0   501   502  0.000000000E+00  0.000000000E+00 -1.175990257E+03  1.175990257E+03  0.000000000E+00  0.00000E+00  9.000E+00
      25     1     1     2     0     0 -3.001068662E+01  1.487494890E+02 -5.368362166E+01  2.037988788E+02  1.250000000E+02  0.00000E+00  9.000E+00
      25     1     1     2     0     0  1.298557609E+01 -1.612233249E+02 -1.037158689E+03  1.057111504E+03  1.250000000E+02  0.00000E+00  9.000E+00
      21     1     1     2   512   502  1.702511054E+01  1.247383588E+01  9.775214181E+02  9.777492388E+02  1.868812365E-05  0.00000E+00  9.000E+00
#rwgt            1           1   2.7972319525535527E-002           7       59778           0
</event>
<event>
      5   9999  3.19816E-02  5.77312E+01 -1.00000E+00  1.35604E-01
      21    -1     0     0   511   501  0.000000000E+00  0.000000000E+00  1.714672966E+02  1.714672966E+02  0.000000000E+00  0.00000E+00  9.000E+00
      21    -1     0     0   501   502  0.000000000E+00  0.000000000E+00 -1.784539553E+03  1.784539553E+03  0.000000000E+00  0.00000E+00  9.000E+00
      25     1     1     2     0     0 -1.524662450E+02  1.711028792E+02 -1.633919936E+03  1.654642411E+03  1.250000000E+02  0.00000E+00  9.000E+00
      25     1     1     2     0     0  9.876839705E+01 -1.499030455E+02  6.553915756E+01  2.283560826E+02  1.250000000E+02  0.00000E+00  9.000E+00
      21     1     1     2   511   502  5.369784792E+01 -2.119983375E+01 -4.469147787E+01  7.300835580E+01  6.743495762E-07  0.00000E+00  9.000E+00
#rwgt            1           1   2.7942493534504460E-002           7       59967           0
</event>
<event>
      5   9999  3.19816E-02  4.44061E+01 -1.00000E+00  1.42081E-01
      21    -1     0     0   512   501  0.000000000E+00  0.000000000E+00  3.942106580E+02  3.942106580E+02  0.000000000E+00  0.00000E+00  9.000E+00
      21    -1     0     0   501   502  0.000000000E+00  0.000000000E+00 -2.205654923E+02  2.205654923E+02  0.000000000E+00  0.00000E+00  9.000E+00
      25     1     1     2     0     0 -1.523407843E+02 -1.578150334E+02  4.583981802E+01  2.565922607E+02  1.250000000E+02  0.00000E+00  9.000E+00
      25     1     1     2     0     0  1.715798067E+02  1.978370974E+02  1.121929482E+02  3.111131704E+02  1.250000000E+02  0.00000E+00  9.000E+00
      21     1     1     2   512   502 -1.923902248E+01 -4.002206393E+01  1.561239945E+01  4.707071918E+01  2.384185791E-07  0.00000E+00  9.000E+00
#rwgt            1           1   2.7535663061789912E-002           7       60066           0
</event>
<event>
      5   9999  3.19816E-02  6.81066E+01 -1.00000E+00  1.31827E-01
      21    -1     0     0   502   501  0.000000000E+00  0.000000000E+00  3.077159137E+02  3.077159137E+02  0.000000000E+00  0.00000E+00  9.000E+00
      21    -1     0     0   501   511  0.000000000E+00  0.000000000E+00 -1.743637265E+03  1.743637265E+03  0.000000000E+00  0.00000E+00  9.000E+00
      25     1     1     2     0     0  5.068671059E+02 -4.068754378E+02 -3.275266497E+02  7.384853358E+02  1.250000000E+02  0.00000E+00  9.000E+00
      25     1     1     2     0     0 -4.436815979E+02  4.322939658E+02 -9.565481034E+02  1.146446993E+03  1.250000000E+02  0.00000E+00  9.000E+00
      21     1     1     2   502   511 -6.318550795E+01 -2.541852795E+01 -1.518465980E+02  1.664208500E+02  1.907348633E-06  0.00000E+00  9.000E+00
#rwgt            1           1   3.0664241113806064E-002           7       60140           0
</event>
<event>
      5   9999  3.19816E-02  3.15543E+02 -1.00000E+00  1.04884E-01
       1    -1     0     0   502     0  0.000000000E+00  0.000000000E+00  2.518649318E+03  2.518649318E+03  0.000000000E+00  0.00000E+00  9.000E+00
      21    -1     0     0   501   502  0.000000000E+00  0.000000000E+00 -4.379919228E+02  4.379919228E+02  0.000000000E+00  0.00000E+00  9.000E+00
      25     1     1     2     0     0 -2.794623284E+02 -4.400549688E+02 -1.570536498E+02  5.586039899E+02  1.250000000E+02  0.00000E+00  9.000E+00
      25     1     1     2     0     0  4.675922021E+02  1.867283924E+02  1.080685230E+03  1.198755824E+03  1.250000000E+02  0.00000E+00  9.000E+00
       1     1     1     2   501     0 -1.881298737E+02  2.533265764E+02  1.157025815E+03  1.199281427E+03  2.157918644E-05  0.00000E+00  9.000E+00
#rwgt            2          17   6.0073296556574735E-004           7       60299           0
</event>
<event>
      5   9999  3.19816E-02  3.09085E+01 -1.00000E+00  1.52145E-01
      21    -1     0     0   502   501  0.000000000E+00  0.000000000E+00  5.039699456E+02  5.039699456E+02  0.000000000E+00  0.00000E+00  9.000E+00
      21    -1     0     0   511   502  0.000000000E+00  0.000000000E+00 -9.059870333E+01  9.059870333E+01  0.000000000E+00  0.00000E+00  9.000E+00
      25     1     1     2     0     0  1.325867283E+01 -1.696096661E+00  4.024509767E+02  4.216283408E+02  1.250000000E+02  0.00000E+00  9.000E+00
      25     1     1     2     0     0 -3.702961941E+01 -1.805932969E+01 -1.517876227E+01  1.324867047E+02  1.250000000E+02  0.00000E+00  9.000E+00
      21     1     1     2   511   501  2.377094658E+01  1.975542635E+01  2.609902781E+01  4.045360335E+01  6.743495762E-07  0.00000E+00  9.000E+00
#rwgt            1           1   2.5096978417990363E-002           7       60318           0
</event>
<event>
      5   9999  3.19816E-02  3.75481E+01 -1.00000E+00  1.46565E-01
      21    -1     0     0   502   501  0.000000000E+00  0.000000000E+00  4.147365890E+02  4.147365890E+02  0.000000000E+00  0.00000E+00  9.000E+00
      21    -1     0     0   501   512  0.000000000E+00  0.000000000E+00 -2.722465479E+03  2.722465479E+03  0.000000000E+00  0.00000E+00  9.000E+00
      25     1     1     2     0     0 -2.402082465E+02  5.859384750E+02  7.389949457E+01  6.496999564E+02  1.250000000E+02  0.00000E+00  9.000E+00
      25     1     1     2     0     0  2.403406287E+02 -6.234863807E+02 -2.278649120E+03  2.377891019E+03  1.250000000E+02  0.00000E+00  9.000E+00
      21     1     1     2   502   512 -1.323822597E-01  3.754790571E+01 -1.029792642E+02  1.096110925E+02  1.907348633E-06  0.00000E+00  9.000E+00
#rwgt            1           1   3.1628015011507707E-002           7       60436           0
</event>
<event>
      5   9999  3.19816E-02  4.04490E+02 -1.00000E+00  1.01540E-01
      21    -1     0     0   502   501  0.000000000E+00  0.000000000E+00  1.308307581E+03  1.308307581E+03  0.000000000E+00  0.00000E+00  9.000E+00
      21    -1     0     0   501   511  0.000000000E+00  0.000000000E+00 -6.161193110E+02  6.161193110E+02  0.000000000E+00  0.00000E+00  9.000E+00
      25     1     1     2     0     0  5.524285770E+02 -4.614458044E+02  8.651883365E+02  1.132380422E+03  1.250000000E+02  0.00000E+00  9.000E+00
      25     1     1     2     0     0 -1.855113762E+02  2.911992603E+02 -1.046522518E+02  3.818226993E+02  1.250000000E+02  0.00000E+00  9.000E+00
      21     1     1     2   502   511 -3.669172008E+02  1.702465441E+02 -6.834781470E+01  4.102237704E+02  4.672030912E-06  0.00000E+00  9.000E+00
#rwgt            2          11   3.5788798263991944E-003           7       60656           0
</event>
<event>
      5   9999  3.19816E-02  3.07326E+01 -1.00000E+00  1.52316E-01
      21    -1     0     0   502   512  0.000000000E+00  0.000000000E+00  1.311622895E+03  1.311622895E+03  0.000000000E+00  0.00000E+00  9.000E+00
      21    -1     0     0   501   502  0.000000000E+00  0.000000000E+00 -6.798854403E+01  6.798854403E+01  0.000000000E+00  0.00000E+00  9.000E+00
      25     1     1     2     0     0 -1.590588256E+02  1.464025012E+02  2.845927347E+02  3.786177849E+02  1.250000000E+02  0.00000E+00  9.000E+00
      25     1     1     2     0     0  1.326578099E+02 -1.621339777E+02  7.249689205E+02  7.649120583E+02  1.250000000E+02  0.00000E+00  9.000E+00
      21     1     1     2   501   512  2.640101573E+01  1.573147647E+01  2.340726953E+02  2.360815954E+02  0.000000000E+00  0.00000E+00  9.000E+00
#rwgt            1           1   2.8564648066239217E-002           7       60676           0
</event>
<event>
      5   9999  3.19816E-02  1.23764E+02 -1.00000E+00  1.19802E-01
      21    -1     0     0   502   511  0.000000000E+00  0.000000000E+00  1.698056273E+03  1.698056273E+03  0.000000000E+00  0.00000E+00  9.000E+00
      21    -1     0     0   501   502  0.000000000E+00  0.000000000E+00 -8.185463868E+01  8.185463868E+01  0.000000000E+00  0.00000E+00  9.000E+00
      25     1     1     2     0     0 -6.445445266E+01  6.459227447E+01  9.143518488E+01  1.797551986E+02  1.250000000E+02  0.00000E+00  9.000E+00
      25     1     1     2     0     0 -6.271630235E-01 -1.698633961E+02  2.866840938E+02  3.559027062E+02  1.250000000E+02  0.00000E+00  9.000E+00
      21     1     1     2   501   511  6.508161569E+01  1.052711216E+02  1.238082356E+03  1.244253007E+03  3.051757812E-05  0.00000E+00  9.000E+00
#rwgt            1           1   2.4684710355722540E-002           7       60817           0
</event>
<event>
      5   9999  3.19816E-02  4.50587E+01 -1.00000E+00  1.41704E-01
      21    -1     0     0   502   501  0.000000000E+00  0.000000000E+00  4.048687393E+02  4.048687393E+02  0.000000000E+00  0.00000E+00  9.000E+00
      21    -1     0     0   501   512  0.000000000E+00  0.000000000E+00 -1.684216102E+03  1.684216102E+03  0.000000000E+00  0.00000E+00  9.000E+00
      25     1     1     2     0     0 -3.510973744E+00  1.187876055E+02 -3.701752529E+02  4.083840594E+02  1.250000000E+02  0.00000E+00  9.000E+00
      25     1     1     2     0     0  2.677383298E+01 -8.019846541E+01  3.705938899E+02  4.001418039E+02  1.250000000E+02  0.00000E+00  9.000E+00
      21     1     1     2   502   512 -2.326285923E+01 -3.858914005E+01 -1.279766000E+03  1.280558978E+03  0.000000000E+00  0.00000E+00  9.000E+00
#rwgt            1           1   2.9003529123777700E-002           7       60885           0
</event>
<event>
      5   9999  3.19816E-02  1.06928E+02 -1.00000E+00  1.22533E-01
      21    -1     0     0   502   511  0.000000000E+00  0.000000000E+00  2.465531151E+03  2.465531151E+03  0.000000000E+00  0.00000E+00  9.000E+00
      21    -1     0     0   501   502  0.000000000E+00  0.000000000E+00 -5.555780839E+02  5.555780839E+02  0.000000000E+00  0.00000E+00  9.000E+00
      25     1     1     2     0     0  9.061194019E+02  1.815805063E+02  5.119970603E+02  1.063856118E+03  1.250000000E+02  0.00000E+00  9.000E+00
      25     1     1     2     0     0 -8.759801545E+02 -2.841733325E+02  5.045927333E+02  1.057513376E+03  1.250000000E+02  0.00000E+00  9.000E+00
      21     1     1     2   501   511 -3.013924742E+01  1.025928262E+02  8.933632731E+02  8.997397401E+02  0.000000000E+00  0.00000E+00  9.000E+00
#rwgt            1           1   2.8065360068096974E-002           7       61056           0
</event>
<event>
      5   9999  3.19816E-02  1.72479E+01 -1.00000E+00  1.71855E-01
      21    -1     0     0   502   501  0.000000000E+00  0.000000000E+00  1.369216645E+02  1.369216645E+02  0.000000000E+00  0.00000E+00  9.000E+00
      21    -1     0     0   501   512  0.000000000E+00  0.000000000E+00 -6.024988470E+02  6.024988470E+02  0.000000000E+00  0.00000E+00  9.000E+00
      25     1     1     2     0     0  1.187416001E+02  2.183582741E+02 -2.058565412E+02  3.460951011E+02  1.250000000E+02  0.00000E+00  9.000E+00
      25     1     1     2     0     0 -1.031780890E+02 -2.257924728E+02 -2.410899134E+02  3.679365505E+02  1.250000000E+02  0.00000E+00  9.000E+00
      21     1     1     2   502   512 -1.556351116E+01  7.434198758E+00 -1.863072781E+01  2.538885995E+01  3.371747881E-07  0.00000E+00  9.000E+00
#rwgt            1           1   2.9391150407661892E-002           7       61140           0
</event>
<event>
      5   9999  3.19816E-02  2.66585E+01 -1.00000E+00  1.56689E-01
      21    -1     0     0   502   501  0.000000000E+00  0.000000000E+00  1.126553589E+03  1.126553589E+03  0.000000000E+00  0.00000E+00  9.000E+00
      21    -1     0     0   511   502  0.000000000E+00  0.000000000E+00 -1.070696836E+02  1.070696836E+02  0.000000000E+00  0.00000E+00  9.000E+00
      25     1     1     2     0     0 -2.563645556E+02 -1.220181741E+01  3.880326717E+02  4.817323157E+02  1.250000000E+02  0.00000E+00  9.000E+00
      25     1     1     2     0     0  2.746973392E+02  3.155596856E+01  6.513894918E+02  7.186011949E+02  1.250000000E+02  0.00000E+00  9.000E+00
      21     1     1     2   511   501 -1.833278357E+01 -1.935415115E+01 -1.993825805E+01  3.328976200E+01  7.907449699E-07  0.00000E+00  9.000E+00
#rwgt            1           1   3.6189927598633098E-002           7       61308           0
</event>
<event>
      5   9999  3.19816E-02  3.50812E+01 -1.00000E+00  1.48465E-01
      21    -1     0     0   502   501  0.000000000E+00  0.000000000E+00  3.822594696E+02  3.822594696E+02  0.000000000E+00  0.00000E+00  9.000E+00
      21    -1     0     0   512   502  0.000000000E+00  0.000000000E+00 -3.418828616E+02  3.418828616E+02  0.000000000E+00  0.00000E+00  9.000E+00
      25     1     1     2     0     0  3.173600953E+02 -3.338167328E+01  1.442366010E+01  3.430230432E+02  1.250000000E+02  0.00000E+00  9.000E+00
      25     1     1     2     0     0 -3.083937704E+02 -5.343277341E-01  5.282218143E+01  3.369305359E+02  1.250000000E+02  0.00000E+00  9.000E+00
      21     1     1     2   512   501 -8.966324853E+00  3.391600101E+01 -2.686923353E+01  4.418875215E+01  6.743495762E-07  0.00000E+00  9.000E+00
#rwgt            1           1   2.8835443839197988E-002           7       61462           0
</event>
<event>
      5   9999  3.19816E-02  1.81324E+02 -1.00000E+00  1.13220E-01
      21    -1     0     0   502   511  0.000000000E+00  0.000000000E+00  1.976078622E+03  1.976078622E+03  0.000000000E+00  0.00000E+00  9.000E+00
      21    -1     0     0   501   502  0.000000000E+00  0.000000000E+00 -3.699235438E+02  3.699235438E+02  0.000000000E+00  0.00000E+00  9.000E+00
      25     1     1     2     0     0  3.464175258E+02 -3.833317320E+02  2.823622569E+02  6.019150796E+02  1.250000000E+02  0.00000E+00  9.000E+00
      25     1     1     2     0     0 -2.331955776E+02  2.417013462E+02 -4.692948781E+01  3.614237056E+02  1.250000000E+02  0.00000E+00  9.000E+00
      21     1     1     2   501   511 -1.132219482E+02  1.416303859E+02  1.370722309E+03  1.382663381E+03  0.000000000E+00  0.00000E+00  9.000E+00
#rwgt            2          11   1.4974060606495637E-003           7       61685           0
</event>
<event>
      5   9999  3.19816E-02  2.43116E+02 -1.00000E+00  1.08646E-01
      21    -1     0     0   502   501  0.000000000E+00  0.000000000E+00  1.375839138E+02  1.375839138E+02  0.000000000E+00  0.00000E+00  9.000E+00
      21    -1     0     0   512   502  0.000000000E+00  0.000000000E+00 -1.102741345E+03  1.102741345E+03  0.000000000E+00  0.00000E+00  9.000E+00
      25     1     1     2     0     0  5.254594378E+01 -9.397219431E+01 -1.557899716E+02  2.269082739E+02  1.250000000E+02  0.00000E+00  9.000E+00
      25     1     1     2     0     0 -7.599603377E+01  3.359548303E+02 -5.027319816E+02  6.220976535E+02  1.250000000E+02  0.00000E+00  9.000E+00
      21     1     1     2   512   501  2.345009000E+01 -2.419826360E+02 -3.066354780E+02  3.913193315E+02  3.814697266E-06  0.00000E+00  9.000E+00
#rwgt            2          11   3.0717288173620150E-003           7       61945           0
</event>
<event>
      5   9999  3.19816E-02  8.48312E+01 -1.00000E+00  1.27129E-01
      21    -1     0     0   502   501  0.000000000E+00  0.000000000E+00  4.611518961E+02  4.611518961E+02  0.000000000E+00  0.00000E+00  9.000E+00
      21    -1     0     0   511   502  0.000000000E+00  0.000000000E+00 -4.679233358E+02  4.679233358E+02  0.000000000E+00  0.00000E+00  9.000E+00
      25     1     1     2     0     0  1.980706963E+02 -3.959283480E+01  2.974695528E+02  3.806740445E+02  1.250000000E+02  0.00000E+00  9.000E+00
      25     1     1     2     0     0 -2.821253893E+02  2.814096395E+01 -9.734408122E+01  3.247884224E+02  1.250000000E+02  0.00000E+00  9.000E+00
      21     1     1     2   511   501  8.405469298E+01  1.145187085E+01 -2.068969114E+02  2.236127650E+02  2.697398305E-06  0.00000E+00  9.000E+00
#rwgt            1           1   2.4454168559217514E-002           7       61995           0
</event>
<event>
      5   9999  3.19816E-02  2.78214E+01 -1.00000E+00  1.55349E-01
      21    -1     0     0   502   512  0.000000000E+00  0.000000000E+00  3.154307673E+02  3.154307673E+02  0.000000000E+00  0.00000E+00  9.000E+00
      21    -1     0     0   501   502  0.000000000E+00  0.000000000E+00 -9.106799060E+02  9.106799060E+02  0.000000000E+00  0.00000E+00  9.000E+00
      25     1     1     2     0     0 -2.830535805E+02 -2.268755272E+00 -7.891117929E+02  8.476124695E+02  1.250000000E+02  0.00000E+00  9.000E+00
      25     1     1     2     0     0  2.651620798E+02  2.357420403E+01  1.906683554E+02  3.504940704E+02  1.250000000E+02  0.00000E+00  9.000E+00
      21     1     1     2   501   512  1.789150070E+01 -2.130544876E+01  3.194298823E+00  2.800413342E+01  1.632340424E-07  0.00000E+00  9.000E+00
#rwgt            1           1   3.0289240891047151E-002           7       62095           0
</event>
<event>
      5   9999  3.19816E-02  5.79197E+02 -1.00000E+00  9.70712E-02
      21    -1     0     0   502   501  0.000000000E+00  0.000000000E+00  7.192599557E+02  7.192599557E+02  0.000000000E+00  0.00000E+00  9.000E+00
       1    -1     0     0   501     0  0.000000000E+00  0.000000000E+00 -5.648803717E+02  5.648803717E+02  0.000000000E+00  0.00000E+00  9.000E+00
      25     1     1     2     0     0  1.528851502E+02 -1.057624184E+02 -8.688358407E+01  2.402775800E+02  1.250000000E+02  0.00000E+00  9.000E+00
      25     1     1     2     0     0  4.138055425E+02 -1.394749895E+01  1.485162938E+02  4.572872721E+02  1.250000000E+02  0.00000E+00  9.000E+00
       1     1     1     2   502     0 -5.666906926E+02  1.197099174E+02  9.274687427E+01  5.865754752E+02  8.529922400E-06  0.00000E+00  9.000E+00
#rwgt            2          12   2.7452715628208438E-004           7       62225           0
</event>
<event>
      5   9999  3.19816E-02  4.25356E+01 -1.00000E+00  1.43204E-01
      21    -1     0     0   502   501  0.000000000E+00  0.000000000E+00  5.696493780E+02  5.696493780E+02  0.000000000E+00  0.00000E+00  9.000E+00
      21    -1     0     0   511   502  0.000000000E+00  0.000000000E+00 -4.356592102E+02  4.356592102E+02  0.000000000E+00  0.00000E+00  9.000E+00
      25     1     1     2     0     0 -3.645942322E+02  1.536731111E+02  2.169704100E+02  4.682366261E+02  1.250000000E+02  0.00000E+00  9.000E+00
      25     1     1     2     0     0  4.046386802E+02 -1.393302176E+02 -2.273755106E+00  4.458425070E+02  1.250000000E+02  0.00000E+00  9.000E+00
      21     1     1     2   511   501 -4.004444796E+01 -1.434289349E+01 -8.070648718E+01  9.122945511E+01  0.000000000E+00  0.00000E+00  9.000E+00
#rwgt            1           1   3.0348968368781631E-002           7       62244           0
</event>
<event>
      5   9999  3.19816E-02  3.03195E+01 -1.00000E+00  1.52721E-01
       2    -1     0     0   502     0  0.000000000E+00  0.000000000E+00  2.711336195E+03  2.711336195E+03  0.000000000E+00  0.00000E+00  9.000E+00
      21    -1     0     0   501   502  0.000000000E+00  0.000000000E+00 -1.300006798E+02  1.300006798E+02  0.000000000E+00  0.00000E+00  9.000E+00
      25     1     1     2     0     0  1.184751494E+02 -1.258270543E+02  6.493878967E+01  2.229593125E+02  1.250000000E+02  0.00000E+00  9.000E+00
      25     1     1     2     0     0 -9.834312714E+01  1.031560022E+02  1.256359623E+02  2.274245512E+02  1.250000000E+02  0.00000E+00  9.000E+00
       2     1     1     2   501     0 -2.013202223E+01  2.267105213E+01  2.390760763E+03  2.390953011E+03  3.051757812E-05  0.00000E+00  9.000E+00
#rwgt            1           1   2.7927205423848727E-002           7       62362           0
</event>
<event>
      5   9999  3.19816E-02  8.83178E+01 -1.00000E+00  1.26304E-01
       1    -1     0     0   502     0  0.000000000E+00  0.000000000E+00  3.282137345E+03  3.282137345E+03  0.000000000E+00  0.00000E+00  9.000E+00
      21    -1     0     0   501   502  0.000000000E+00  0.000000000E+00 -5.064973158E+01  5.064973158E+01  0.000000000E+00  0.00000E+00  9.000E+00
      25     1     1     2     0     0  3.366651588E+01  1.736172410E+02  6.120552169E+02  6.492403016E+02  1.250000000E+02  0.00000E+00  9.000E+00
      25     1     1     2     0     0  5.239034248E+01 -1.934728085E+02  4.163504193E+02  4.786952551E+02  1.250000000E+02  0.00000E+00  9.000E+00
       1     1     1     2   501     0 -8.605685836E+01  1.985556748E+01  2.203081977E+03  2.204851520E+03  3.051757812E-05  0.00000E+00  9.000E+00
#rwgt            1           1   1.3514122134872126E-002           7       62539           0
</event>
<event>
      5   9999  3.19816E-02  3.87843E+02 -1.00000E+00  1.02090E-01
      21    -1     0     0   502   501  0.000000000E+00  0.000000000E+00  2.505753340E+02  2.505753340E+02  0.000000000E+00  0.00000E+00  9.000E+00
       2    -1     0     0   501     0  0.000000000E+00  0.000000000E+00 -1.246725804E+03  1.246725804E+03  0.000000000E+00  0.00000E+00  9.000E+00
      25     1     1     2     0     0  2.448480745E+02 -4.116964925E+01 -4.832804190E+02  5.575217332E+02  1.250000000E+02  0.00000E+00  9.000E+00
      25     1     1     2     0     0  6.207665674E+01 -1.959366531E+02  6.003525467E+01  2.479393376E+02  1.250000000E+02  0.00000E+00  9.000E+00
       2     1     1     2   502     0 -3.069247312E+02  2.371063024E+02 -5.729053060E+02  6.918400674E+02  7.629394531E-06  0.00000E+00  9.000E+00
#rwgt            2          13   1.0915371247299140E-003           7       62597           0
</event>
<event>
      5   9999  3.19816E-02  2.27487E+02 -1.00000E+00  1.09649E-01
      21    -1     0     0   502   501  0.000000000E+00  0.000000000E+00  2.950058554E+03  2.950058554E+03  0.000000000E+00  0.00000E+00  9.000E+00
      21    -1     0     0   501   511  0.000000000E+00  0.000000000E+00 -1.168330478E+03  1.168330478E+03  0.000000000E+00  0.00000E+00  9.000E+00
      25     1     1     2     0     0 -1.494658064E+02 -1.599763209E+03  1.413356373E+03  2.143544632E+03  1.250000000E+02  0.00000E+00  9.000E+00
      25     1     1     2     0     0  3.762330095E+02  1.617849826E+03  4.623742874E+02  1.728700182E+03  1.250000000E+02  0.00000E+00  9.000E+00
      21     1     1     2   502   511 -2.267672031E+02 -1.808661742E+01 -9.400258529E+01  2.461442182E+02  4.862803949E-06  0.00000E+00  9.000E+00
#rwgt            1           1   2.3651090438754793E-002           7       62646           0
</event>
<event>
      5   9999  3.19816E-02  2.88519E+02 -1.00000E+00  1.06146E-01
      21    -1     0     0   512   501  0.000000000E+00  0.000000000E+00  1.408930454E+03  1.408930454E+03  0.000000000E+00  0.00000E+00  9.000E+00
      21    -1     0     0   501   502  0.000000000E+00  0.000000000E+00 -5.292081106E+02  5.292081106E+02  0.000000000E+00  0.00000E+00  9.000E+00
      25     1     1     2     0     0  4.948253435E+01 -7.830290974E+01 -4.584580036E+00  1.556466680E+02  1.250000000E+02  0.00000E+00  9.000E+00
      25     1     1     2     0     0  9.459964295E+01  3.282703255E+02 -3.560470973E+02  5.090236090E+02  1.250000000E+02  0.00000E+00  9.000E+00
      21     1     1     2   512   502 -1.440821773E+02 -2.499674158E+02  1.240354020E+03  1.273468287E+03  2.157918644E-05  0.00000E+00  9.000E+00
#rwgt            2          11   6.0449195931736258E-003           7       62713           0
</event>
<event>
      5   9999  3.19816E-02  7.01708E+01 -1.00000E+00  1.31167E-01
      21    -1     0     0   502   501  0.000000000E+00  0.000000000E+00  2.271427185E+02  2.271427185E+02  0.000000000E+00  0.00000E+00  9.000E+00
       2    -1     0     0   501     0  0.000000000E+00  0.000000000E+00 -2.490548344E+03  2.490548344E+03  0.000000000E+00  0.00000E+00  9.000E+00
      25     1     1     2     0     0  6.265675455E+01 -2.899331578E+02 -5.931511694E+01  3.273077879E+02  1.250000000E+02  0.00000E+00  9.000E+00
      25     1     1     2     0     0 -1.317241625E+02  3.023279359E+02 -2.435713036E+02  4.286086977E+02  1.250000000E+02  0.00000E+00  9.000E+00
       2     1     1     2   502     0  6.906740798E+01 -1.239477803E+01 -1.960519205E+03  1.961774577E+03  0.000000000E+00  0.00000E+00  9.000E+00
#rwgt            1           1   2.8968113420038650E-002           7       62793           0
</event>
<event>
      5   9999  3.19816E-02  3.40510E+02 -1.00000E+00  1.03835E-01
      21    -1     0     0   502   511  0.000000000E+00  0.000000000E+00  2.575085081E+03  2.575085081E+03  0.000000000E+00  0.00000E+00  9.000E+00
      21    -1     0     0   501   502  0.000000000E+00  0.000000000E+00 -2.621545085E+02  2.621545085E+02  0.000000000E+00  0.00000E+00  9.000E+00
      25     1     1     2     0     0 -5.224568579E+02 -1.516222715E+02  2.691929630E+02  6.197098780E+02  1.250000000E+02  0.00000E+00  9.000E+00
      25     1     1     2     0     0  2.570814868E+02  3.649829603E+02  7.675385325E+02  8.966849229E+02  1.250000000E+02  0.00000E+00  9.000E+00
      21     1     1     2   501   511  2.653753711E+02 -2.133606888E+02  1.276199077E+03  1.320844789E+03  2.157918644E-05  0.00000E+00  9.000E+00
#rwgt            2          11   9.9473114759102859E-004           7       62919           0
</event>
<event>
      5   9999  3.19816E-02  1.63242E+02 -1.00000E+00  1.14956E-01
      21    -1     0     0   512   501  0.000000000E+00  0.000000000E+00  7.598403631E+02  7.598403631E+02  0.000000000E+00  0.00000E+00  9.000E+00
      21    -1     0     0   501   502  0.000000000E+00  0.000000000E+00 -5.928657155E+02  5.928657155E+02  0.000000000E+00  0.00000E+00  9.000E+00
      25     1     1     2     0     0 -9.733806353E+01  4.211296071E+02 -3.581118618E+02  5.750599536E+02  1.250000000E+02  0.00000E+00  9.000E+00
      25     1     1     2     0     0  2.060924072E+02 -2.993902043E+02  4.659507046E+02  6.040228753E+02  1.250000000E+02  0.00000E+00  9.000E+00
      21     1     1     2   512   502 -1.087543436E+02 -1.217394028E+02  5.913580480E+01  1.736232498E+02  3.631483605E-06  0.00000E+00  9.000E+00
#rwgt            1           1   3.4611236900233489E-002           7       62939           0
</event>
<event>
      5   9999  3.19816E-02  4.09095E+01 -1.00000E+00  1.44237E-01
      21    -1     0     0   502   501  0.000000000E+00  0.000000000E+00  9.776459096E+02  9.776459096E+02  0.000000000E+00  0.00000E+00  9.000E+00
      21    -1     0     0   511   502  0.000000000E+00  0.000000000E+00 -4.060272528E+02  4.060272528E+02  0.000000000E+00  0.00000E+00  9.000E+00
      25     1     1     2     0     0  3.462743193E+01  3.424269995E+02 -2.537850119E+02  4.455189573E+02  1.250000000E+02  0.00000E+00  9.000E+00
      25     1     1     2     0     0  5.531189604E+00 -3.346251095E+02  8.229759522E+02  8.971727682E+02  1.250000000E+02  0.00000E+00  9.000E+00
      21     1     1     2   511   501 -4.015862153E+01 -7.801889913E+00  2.427716496E+00  4.098143698E+01  6.377975511E-07  0.00000E+00  9.000E+00
#rwgt            1           1   3.2451381381044885E-002           7       62989           0
</event>
<event>
      5   9999  3.19816E-02  9.20324E+01 -1.00000E+00  1.25472E-01
       2    -1     0     0   502     0  0.000000000E+00  0.000000000E+00  2.800887992E+03  2.800887992E+03  0.000000000E+00  0.00000E+00  9.000E+00
      21    -1     0     0   501   502  0.000000000E+00  0.000000000E+00 -6.302481800E+01  6.302481800E+01  0.000000000E+00  0.00000E+00  9.000E+00
      25     1     1     2     0     0  7.787796772E+01 -1.652537802E+02  2.462007118E+02  3.310794168E+02  1.250000000E+02  0.00000E+00  9.000E+00
      25     1     1     2     0     0 -1.607932287E+01  2.334512628E+02  8.942843820E+02  9.328062997E+02  1.250000000E+02  0.00000E+00  9.000E+00
       2     1     1     2   501     0 -6.179864485E+01 -6.819748260E+01  1.597378080E+03  1.600027093E+03  0.000000000E+00  0.00000E+00  9.000E+00
#rwgt            1           1   2.6851674768609647E-002           7       63162           0
</event>
<event>
      5   9999  3.19816E-02  1.40604E+02 -1.00000E+00  1.17518E-01
      21    -1     0     0   502   511  0.000000000E+00  0.000000000E+00  5.941944402E+02  5.941944402E+02  0.000000000E+00  0.00000E+00  9.000E+00
      21    -1     0     0   501   502  0.000000000E+00  0.000000000E+00 -1.345756580E+03  1.345756580E+03  0.000000000E+00  0.00000E+00  9.000E+00
      25     1     1     2     0     0 -1.686465367E+02  5.531965011E+02  1.939327214E+02  6.226579507E+02  1.250000000E+02  0.00000E+00  9.000E+00
      25     1     1     2     0     0  9.497760597E+01 -6.729564115E+02 -9.522097742E+02  1.176528594E+03  1.250000000E+02  0.00000E+00  9.000E+00
      21     1     1     2   501   511  7.366893071E+01  1.197599105E+02  6.714913437E+00  1.407644755E+02  3.254872070E-06  0.00000E+00  9.000E+00
#rwgt            1           1   3.0264831943298504E-002           7       63241           0
</event>
<event>
      5   9999  3.19816E-02  3.39602E+01 -1.00000E+00  1.49391E-01
      21    -1     0     0   502   501  0.000000000E+00  0.000000000E+00  1.219167812E+02  1.219167812E+02  0.000000000E+00  0.00000E+00  9.000E+00
      21    -1     0     0   501   512  0.000000000E+00  0.000000000E+00 -4.516708961E+02  4.516708961E+02  0.000000000E+00  0.00000E+00  9.000E+00
      25     1     1     2     0     0 -1.405259842E+02  7.406507140E+01 -2.390454943E+02  3.130510108E+02  1.250000000E+02  0.00000E+00  9.000E+00
      25     1     1     2     0     0  1.190313063E+02 -4.777302397E+01 -1.764223223E+01  1.799637799E+02  1.250000000E+02  0.00000E+00  9.000E+00
      21     1     1     2   502   512  2.149467787E+01 -2.629204744E+01 -7.306638847E+01  8.057288662E+01  0.000000000E+00  0.00000E+00  9.000E+00
#rwgt            1           1   2.6917718567762584E-002           7       63335           0
</event>
<event>
      5   9999  3.19816E-02  3.30019E+02 -1.00000E+00  1.04264E-01
      21    -1     0     0   502   501  0.000000000E+00  0.000000000E+00  3.057341415E+02  3.057341415E+02  0.000000000E+00  0.00000E+00  9.000E+00
      21    -1     0     0   501   511  0.000000000E+00  0.000000000E+00 -2.326923579E+03  2.326923579E+03  0.000000000E+00  0.00000E+00  9.000E+00
      25     1     1     2     0     0 -4.170273365E+02  5.464175479E+02 -5.283507950E+02  8.759357845E+02  1.250000000E+02  0.00000E+00  9.000E+00
      25     1     1     2     0     0  5.274196779E+02 -2.354093128E+02 -8.676683710E+02  1.049791628E+03  1.250000000E+02  0.00000E+00  9.000E+00
      21     1     1     2   502   511 -1.103923414E+02 -3.110082351E+02 -6.251702713E+02  7.069303074E+02  7.629394531E-06  0.00000E+00  9.000E+00
#rwgt            1           1   3.0837436366874724E-002           7       63428           0
</event>
<event>
      5   9999  3.19816E-02  3.19456E+02 -1.00000E+00  1.04713E-01
      21    -1     0     0   502   501  0.000000000E+00  0.000000000E+00  1.868495981E+02  1.868495981E+02  0.000000000E+00  0.00000E+00  9.000E+00
       2    -1     0     0   501     0  0.000000000E+00  0.000000000E+00 -1.521550301E+03  1.521550301E+03  0.000000000E+00  0.00000E+00  9.000E+00
      25     1     1     2     0     0 -1.886096678E+02 -1.864584867E+02 -1.068173589E+02  3.120501918E+02  1.250000000E+02  0.00000E+00  9.000E+00
      25     1     1     2     0     0  1.429552370E+02 -1.297186639E+02 -1.560442101E+02  2.779171226E+02  1.250000000E+02  0.00000E+00  9.000E+00
       2     1     1     2   502     0  4.565443084E+01  3.161771506E+02 -1.071839134E+03  1.118432585E+03  1.525878906E-05  0.00000E+00  9.000E+00
#rwgt            1           1   2.7750103000049275E-002           7       63515           0
</event>
<event>
      5   9999  3.19816E-02  2.76145E+01 -1.00000E+00  1.55582E-01
      21    -1     0     0   502   511  0.000000000E+00  0.000000000E+00  5.209268810E+02  5.209268810E+02  0.000000000E+00  0.00000E+00  9.000E+00
      21    -1     0     0   501   502  0.000000000E+00  0.000000000E+00 -8.269316482E+02  8.269316482E+02  0.000000000E+00  0.00000E+00  9.000E+00
      25     1     1     2     0     0  5.564505542E+01  2.544650623E+02  3.080485784E+02  4.223360827E+02  1.250000000E+02  0.00000E+00  9.000E+00
      25     1     1     2     0     0 -3.242668268E+01 -2.694139203E+02 -7.392377117E+02  7.973285048E+02  1.250000000E+02  0.00000E+00  9.000E+00
      21     1     1     2   501   511 -2.321837273E+01  1.494885795E+01  1.251843660E+02  1.281939417E+02  1.907348633E-06  0.00000E+00  9.000E+00
#rwgt            1           1   3.1310220963490024E-002           7       63546           0
</event>
<event>
      5   9999  3.19816E-02  2.41752E+01 -1.00000E+00  1.59850E-01
      21    -1     0     0   502   501  0.000000000E+00  0.000000000E+00  3.758379211E+01  3.758379211E+01  0.000000000E+00  0.00000E+00  9.000E+00
       2    -1     0     0   501     0  0.000000000E+00  0.000000000E+00 -1.847835614E+03  1.847835614E+03  0.000000000E+00  0.00000E+00  9.000E+00
      25     1     1     2     0     0 -7.289183235E+01  8.452536132E+01 -9.756307315E+02  9.899182189E+02  1.250000000E+02  0.00000E+00  9.000E+00
      25     1     1     2     0     0  5.249344322E+01 -7.155055859E+01 -1.641717579E+02  2.246161394E+02  1.250000000E+02  0.00000E+00  9.000E+00
       2     1     1     2   502     0  2.039838913E+01 -1.297480273E+01 -6.704493325E+02  6.708850477E+02  1.078959322E-05  0.00000E+00  9.000E+00
#rwgt            1           1   3.5941039158956335E-002           7       63764           0
</event>
<event>
      5   9999  3.19816E-02  1.21425E+02 -1.00000E+00  1.20151E-01
      21    -1     0     0   502   501  0.000000000E+00  0.000000000E+00  1.401687688E+02  1.401687688E+02  0.000000000E+00  0.00000E+00  9.000E+00
      21    -1     0     0   511   502  0.000000000E+00  0.000000000E+00 -5.732360535E+02  5.732360535E+02  0.000000000E+00  0.00000E+00  9.000E+00
      25     1     1     2     0     0  8.048312647E+01  1.150617523E+00  3.922109681E+00  1.487253862E+02  1.250000000E+02  0.00000E+00  9.000E+00
      25     1     1     2     0     0 -1.310949538E+02 -1.115253232E+02 -1.732975088E+02  2.743734884E+02  1.250000000E+02  0.00000E+00  9.000E+00
      21     1     1     2   511   501  5.061182728E+01  1.103747057E+02 -2.636918855E+02  2.903059476E+02  0.000000000E+00  0.00000E+00  9.000E+00
#rwgt            1           1   3.0002513388472239E-002           7       63845           0
</event>
<event>
      5   9999  3.19816E-02  1.58810E+01 -1.00000E+00  1.75080E-01
      21    -1     0     0   502   501  0.000000000E+00  0.000000000E+00  1.303275631E+02  1.303275631E+02  0.000000000E+00  0.00000E+00  9.000E+00
      21    -1     0     0   512   502  0.000000000E+00  0.000000000E+00 -2.959258944E+02  2.959258944E+02  0.000000000E+00  0.00000E+00  9.000E+00
      25     1     1     2     0     0 -8.215743815E+01  9.788940286E+01 -3.584265648E+01  1.823235472E+02  1.250000000E+02  0.00000E+00  9.000E+00
      25     1     1     2     0     0  7.869240215E+01 -1.133877361E+02 -1.029537336E+02  2.127762771E+02  1.250000000E+02  0.00000E+00  9.000E+00
      21     1     1     2   512   501  3.465035997E+00  1.549833325E+01 -2.680194118E+01  3.115363316E+01  0.000000000E+00  0.00000E+00  9.000E+00
#rwgt            1           1   3.4679565740705028E-002           7       63903           0
</event>
<event>
      5   9999  3.19816E-02  3.74641E+01 -1.00000E+00  1.46627E-01
      21    -1     0     0   511   501  0.000000000E+00  0.000000000E+00  6.976900262E+02  6.976900262E+02  0.000000000E+00  0.00000E+00  9.000E+00
      21    -1     0     0   501   502  0.000000000E+00  0.000000000E+00 -4.762254311E+02  4.762254311E+02  0.000000000E+00  0.00000E+00  9.000E+00
      25     1     1     2     0     0 -1.607328246E+02 -8.956802538E+01 -4.146499145E+02  4.705497037E+02  1.250000000E+02  0.00000E+00  9.000E+00
      25     1     1     2     0     0  1.947782301E+02  1.052035664E+02  5.985964435E+02  6.503453325E+02  1.250000000E+02  0.00000E+00  9.000E+00
      21     1     1     2   511   502 -3.404540546E+01 -1.563554103E+01  3.751806604E+01  5.302042112E+01  4.768371582E-07  0.00000E+00  9.000E+00
#rwgt            1           1   2.7691185259823597E-002           7       63989           0
</event>
<event>
      5   9999  3.19816E-02  1.08621E+01 -1.00000E+00  1.91695E-01
      21    -1     0     0   512   501  0.000000000E+00  0.000000000E+00  2.087370124E+02  2.087370124E+02  0.000000000E+00  0.00000E+00  9.000E+00
      21    -1     0     0   501   502  0.000000000E+00  0.000000000E+00 -1.596615985E+02  1.596615985E+02  0.000000000E+00  0.00000E+00  9.000E+00
      25     1     1     2     0     0 -4.474696281E+01  7.747210315E+01  1.906176939E+01  1.548953469E+02  1.250000000E+02  0.00000E+00  9.000E+00
      25     1     1     2     0     0  3.389144490E+01 -7.785036296E+01 -2.868439988E+01  1.538086599E+02  1.250000000E+02  0.00000E+00  9.000E+00
      21     1     1     2   512   502  1.085551791E+01  3.782598157E-01  5.869804436E+01  5.969460412E+01  6.743495762E-07  0.00000E+00  9.000E+00
#rwgt            1           1   6.5141503544467752E-002           7       64177           0
</event>
<event>
      5   9999  3.19816E-02  8.18445E+01 -1.00000E+00  1.27872E-01
      21    -1     0     0   502   501  0.000000000E+00  0.000000000E+00  2.125270940E+02  2.125270940E+02  0.000000000E+00  0.00000E+00  9.000E+00
      21    -1     0     0   501   511  0.000000000E+00  0.000000000E+00 -1.067496306E+03  1.067496306E+03  0.000000000E+00  0.00000E+00  9.000E+00
      25     1     1     2     0     0  2.930075819E+01 -3.447654050E+02 -6.423562687E+01  3.734607538E+02  1.250000000E+02  0.00000E+00  9.000E+00
      25     1     1     2     0     0  5.165894938E+01  3.327633533E+02 -6.777088417E+02  7.670165386E+02  1.250000000E+02  0.00000E+00  9.000E+00
      21     1     1     2   502   511 -8.095970757E+01  1.200205164E+01 -1.130247436E+02  1.395461077E+02  1.348699152E-06  0.00000E+00  9.000E+00
#rwgt            1           1   3.0465986049017228E-002           7       64279           0
</event>
<event>
      5   9999  3.19816E-02  2.00112E+02 -1.00000E+00  1.11639E-01
      21    -1     0     0   502   501  0.000000000E+00  0.000000000E+00  6.046405373E+02  6.046405373E+02  0.000000000E+00  0.00000E+00  9.000E+00
      21    -1     0     0   512   502  0.000000000E+00  0.000000000E+00 -9.199043470E+02  9.199043470E+02  0.000000000E+00  0.00000E+00  9.000E+00
      25     1     1     2     0     0 -1.735586023E+02  5.857133090E+02  1.780557741E+02  6.484686017E+02  1.250000000E+02  0.00000E+00  9.000E+00
      25     1     1     2     0     0 -2.595308454E+00 -4.907670083E+02 -2.619637876E+02  5.701833197E+02  1.250000000E+02  0.00000E+00  9.000E+00
      21     1     1     2   512   501  1.761539107E+02 -9.494630064E+01 -2.313557963E+02  3.058929629E+02  5.394796609E-06  0.00000E+00  9.000E+00
#rwgt            1           1   2.8703121368893629E-002           7       64345           0
</event>
<event>
      5   9999  3.19816E-02  8.13568E+02 -1.00000E+00  9.31951E-02
      21    -1     0     0   502   501  0.000000000E+00  0.000000000E+00  2.573411963E+03  2.573411963E+03  0.000000000E+00  0.00000E+00  9.000E+00
       2    -1     0     0   501     0  0.000000000E+00  0.000000000E+00 -3.126910589E+03  3.126910589E+03  0.000000000E+00  0.00000E+00  9.000E+00
      25     1     1     2     0     0  7.132244553E+01 -7.311361439E+02  2.236376115E+03  2.357254776E+03  1.250000000E+02  0.00000E+00  9.000E+00
      25     1     1     2     0     0  3.485267463E+02  3.427261644E+01  6.238763229E+01  3.770447212E+02  1.250000000E+02  0.00000E+00  9.000E+00
       2     1     1     2   502     0 -4.198491918E+02  6.968635275E+02 -2.852262373E+03  2.966023055E+03  3.051757812E-05  0.00000E+00  9.000E+00
#rwgt            2          13   1.3391301905664434E-002           7       64457           0
</event>
<event>
      5   9999  3.19816E-02  1.17166E+01 -1.00000E+00  1.88126E-01
      21    -1     0     0   502   501  0.000000000E+00  0.000000000E+00  3.440655367E+02  3.440655367E+02  0.000000000E+00  0.00000E+00  9.000E+00
      21    -1     0     0   511   502  0.000000000E+00  0.000000000E+00 -8.807870172E+02  8.807870172E+02  0.000000000E+00  0.00000E+00  9.000E+00
      25     1     1     2     0     0 -2.731569116E+02  2.103955697E+01 -7.432638084E+02  8.019497803E+02  1.250000000E+02  0.00000E+00  9.000E+00
      25     1     1     2     0     0  2.638122591E+02 -2.810757178E+01  2.453454140E+02  3.823693447E+02  1.250000000E+02  0.00000E+00  9.000E+00
      21     1     1     2   511   501  9.344652563E+00  7.068014806E+00 -3.880308612E+01  4.053342889E+01  0.000000000E+00  0.00000E+00  9.000E+00
#rwgt            1           1   2.5375446905067715E-002           7       64491           0
</event>
<event>
      5   9999  3.19816E-02  1.14719E+01 -1.00000E+00  1.89107E-01
      21    -1     0     0   502   501  0.000000000E+00  0.000000000E+00  3.464870642E+01  3.464870642E+01  0.000000000E+00  0.00000E+00  9.000E+00
      21    -1     0     0   501   512  0.000000000E+00  0.000000000E+00 -2.384167827E+03  2.384167827E+03  0.000000000E+00  0.00000E+00  9.000E+00
      25     1     1     2     0     0  2.333964267E+02 -1.041278315E+02 -1.077058130E+03  1.113999871E+03  1.250000000E+02  0.00000E+00  9.000E+00
      25     1     1     2     0     0 -2.223661686E+02  1.072802401E+02 -1.203339183E+03  1.234749348E+03  1.250000000E+02  0.00000E+00  9.000E+00
      21     1     1     2   502   512 -1.103025808E+01 -3.152408563E+00 -6.912180738E+01  7.006731426E+01  1.651812370E-06  0.00000E+00  9.000E+00
#rwgt            1           1   6.8833511359242552E-002           7       64774           0
</event>
<event>
      5   9999  3.19816E-02  1.30907E+02 -1.00000E+00  1.18786E-01
       2    -1     0     0   502     0  0.000000000E+00  0.000000000E+00  3.206493869E+03  3.206493869E+03  0.000000000E+00  0.00000E+00  9.000E+00
      21    -1     0     0   501   502  0.000000000E+00  0.000000000E+00 -1.220519622E+02  1.220519622E+02  0.000000000E+00  0.00000E+00  9.000E+00
      25     1     1     2     0     0  9.285404970E+01  1.100511985E+02  1.344395308E+03  1.357850097E+03  1.250000000E+02  0.00000E+00  9.000E+00
      25     1     1     2     0     0  3.317648762E+01 -7.465252293E+01 -6.359823860E+01  1.623065447E+02  1.250000000E+02  0.00000E+00  9.000E+00
       2     1     1     2   501     0 -1.260305373E+02 -3.539867555E+01  1.803644837E+03  1.808389190E+03  3.051757812E-05  0.00000E+00  9.000E+00
#rwgt            1           1   2.4790931324467726E-002           7       64917           0
</event>
<event>
      5   9999  3.19816E-02  1.53645E+01 -1.00000E+00  1.76407E-01
      21    -1     0     0   502   501  0.000000000E+00  0.000000000E+00  5.964687196E+01  5.964687196E+01  0.000000000E+00  0.00000E+00  9.000E+00
      21    -1     0     0   511   502  0.000000000E+00  0.000000000E+00 -8.709868195E+02  8.709868195E+02  0.000000000E+00  0.00000E+00  9.000E+00
      25     1     1     2     0     0  8.792210633E+01  1.540005925E+02 -4.350619977E+02  4.861588435E+02  1.250000000E+02  0.00000E+00  9.000E+00
      25     1     1     2     0     0 -9.822197564E+01 -1.425997438E+02 -3.100060221E+02  3.764451848E+02  1.250000000E+02  0.00000E+00  9.000E+00
      21     1     1     2   511   501  1.029986931E+01 -1.140084879E+01 -6.627192780E+01  6.802966321E+01  9.536743164E-07  0.00000E+00  9.000E+00
#rwgt            1           1   2.4347284915608884E-002           7       64956           0
</event>
<event>
      5   9999  3.19816E-02  4.80703E+01 -1.00000E+00  1.40058E-01
      21    -1     0     0   502   501  0.000000000E+00  0.000000000E+00  4.868719154E+02  4.868719154E+02  0.000000000E+00  0.00000E+00  9.000E+00
      21    -1     0     0   501   512  0.000000000E+00  0.000000000E+00 -2.064003452E+02  2.064003452E+02  0.000000000E+00  0.00000E+00  9.000E+00
      25     1     1     2     0     0 -2.163429819E+02 -1.170826939E+02  2.236010136E+02  3.551549751E+02  1.250000000E+02  0.00000E+00  9.000E+00
      25     1     1     2     0     0  1.982555613E+02  1.616203602E+02  4.184978641E+01  2.877547793E+02  1.250000000E+02  0.00000E+00  9.000E+00
      21     1     1     2   502   512  1.808742063E+01 -4.453766626E+01  1.502077012E+01  5.036250625E+01  9.973764736E-07  0.00000E+00  9.000E+00
#rwgt            1           1   2.5015488043213869E-002           7       65126           0
</event>
<event>
      5   9999  3.19816E-02  1.16778E+02 -1.00000E+00  1.20872E-01
      21    -1     0     0   502   501  0.000000000E+00  0.000000000E+00  1.096036805E+03  1.096036805E+03  0.000000000E+00  0.00000E+00  9.000E+00
      21    -1     0     0   501   511  0.000000000E+00  0.000000000E+00 -7.722404927E+01  7.722404927E+01  0.000000000E+00  0.00000E+00  9.000E+00
      25     1     1     2     0     0 -1.861317422E+00 -2.257106484E+02  4.785463487E+02  5.436730352E+02  1.250000000E+02  0.00000E+00  9.000E+00
      25     1     1     2     0     0  7.336146387E+01  1.333800831E+02  4.085847919E+02  4.535842625E+02  1.250000000E+02  0.00000E+00  9.000E+00
      21     1     1     2   502   511 -7.150014645E+01  9.233056524E+01  1.316816153E+02  1.760035569E+02  2.697398305E-06  0.00000E+00  9.000E+00
#rwgt            1           1   2.7978492367147442E-002           7       65185           0
</event>
<event>
      5   9999  3.19816E-02  2.22068E+02 -1.00000E+00  1.10018E-01
      21    -1     0     0   502   501  0.000000000E+00  0.000000000E+00  4.943604087E+01  4.943604087E+01  0.000000000E+00  0.00000E+00  9.000E+00
      21    -1     0     0   512   502  0.000000000E+00  0.000000000E+00 -3.526307207E+03  3.526307207E+03  0.000000000E+00  0.00000E+00  9.000E+00
      25     1     1     2     0     0  5.446103731E+01 -7.722598881E+01 -1.769733342E+03  1.776657243E+03  1.250000000E+02  0.00000E+00  9.000E+00
      25     1     1     2     0     0  1.460707827E+01  2.882798889E+02 -6.949327387E+02  7.628074281E+02  1.250000000E+02  0.00000E+00  9.000E+00
      21     1     1     2   512   501 -6.906811558E+01 -2.110539001E+02 -1.012205086E+03  1.036278577E+03  1.078959322E-05  0.00000E+00  9.000E+00
#rwgt            1           1   7.8653227736660433E-002           7       65256           0
</event>
<event>
      5   9999  3.19816E-02  3.17928E+01 -1.00000E+00  1.51309E-01
      21    -1     0     0   502   501  0.000000000E+00  0.000000000E+00  8.202872574E+02  8.202872574E+02  0.000000000E+00  0.00000E+00  9.000E+00
      21    -1     0     0   501   511  0.000000000E+00  0.000000000E+00 -3.663039463E+02  3.663039463E+02  0.000000000E+00  0.00000E+00  9.000E+00
      25     1     1     2     0     0  3.921572602E+02  3.229188561E+02  1.525570345E+02  5.449427063E+02  1.250000000E+02  0.00000E+00  9.000E+00
      25     1     1     2     0     0 -3.878304922E+02 -2.914218889E+02  3.291881912E+02  5.994406337E+02  1.250000000E+02  0.00000E+00  9.000E+00
      21     1     1     2   502   511 -4.326767990E+00 -3.149696719E+01 -2.776191459E+01  4.220786378E+01  8.920806376E-07  0.00000E+00  9.000E+00
#rwgt            1           1   2.8351365119913315E-002           7       65292           0
</event>
<event>
      5   9999  3.19816E-02  5.71403E+01 -1.00000E+00  1.35847E-01
      21    -1     0     0   512   501  0.000000000E+00  0.000000000E+00  3.213418859E+02  3.213418859E+02  0.000000000E+00  0.00000E+00  9.000E+00
      21    -1     0     0   501   502  0.000000000E+00  0.000000000E+00 -4.829267459E+02  4.829267459E+02  0.000000000E+00  0.00000E+00  9.000E+00
      25     1     1     2     0     0 -3.479517490E+00  2.425454269E+02 -2.875168810E+02  3.963979667E+02  1.250000000E+02  0.00000E+00  9.000E+00
      25     1     1     2     0     0  1.824009825E+01 -2.977463226E+02  7.660314026E+01  3.323832350E+02  1.250000000E+02  0.00000E+00  9.000E+00
      21     1     1     2   512   502 -1.476058076E+01  5.520089565E+01  4.932888070E+01  7.548743005E+01  9.536743164E-07  0.00000E+00  9.000E+00
#rwgt            1           1   2.5473251334027940E-002           7       65468           0
</event>
<event>
      5   9999  3.19816E-02  5.99024E+01 -1.00000E+00  1.34741E-01
       2    -1     0     0   502     0  0.000000000E+00  0.000000000E+00  6.261940462E+02  6.261940462E+02  0.000000000E+00  0.00000E+00  9.000E+00
      21    -1     0     0   501   502  0.000000000E+00  0.000000000E+00 -2.067045985E+03  2.067045985E+03  0.000000000E+00  0.00000E+00  9.000E+00
      25     1     1     2     0     0 -6.518908196E+02  5.285045981E+02 -1.002980137E+03  1.313724821E+03  1.250000000E+02  0.00000E+00  9.000E+00
      25     1     1     2     0     0  6.051358075E+02 -5.659514027E+02 -7.115974151E+02  1.099311701E+03  1.250000000E+02  0.00000E+00  9.000E+00
       2     1     1     2   501     0  4.675501205E+01  3.744680459E+01  2.737256137E+02  2.802035081E+02  5.394796609E-06  0.00000E+00  9.000E+00
#rwgt            1           1   2.9146686756207490E-002           7       65569           0
</event>
<event>
      5   9999  3.19816E-02  3.51535E+01 -1.00000E+00  1.48407E-01
      21    -1     0     0   511   501  0.000000000E+00  0.000000000E+00  5.703981692E+02  5.703981692E+02  0.000000000E+00  0.00000E+00  9.000E+00
      21    -1     0     0   501   502  0.000000000E+00  0.000000000E+00 -2.902896175E+02  2.902896175E+02  0.000000000E+00  0.00000E+00  9.000E+00
      25     1     1     2     0     0 -5.905590720E-02  1.792324955E+02 -7.462705339E+01  2.309079644E+02  1.250000000E+02  0.00000E+00  9.000E+00
      25     1     1     2     0     0  3.495014243E+01 -1.749453373E+02 -5.001651748E+01  2.235039944E+02  1.250000000E+02  0.00000E+00  9.000E+00
      21     1     1     2   511   502 -3.489108653E+01 -4.287158263E+00  4.047521226E+02  4.062758279E+02  5.394796609E-06  0.00000E+00  9.000E+00
#rwgt            1           1   3.4608825645903230E-002           7       65675           0
</event>
<event>
      5   9999  3.19816E-02  1.58456E+01 -1.00000E+00  1.75169E-01
       2    -1     0     0   502     0  0.000000000E+00  0.000000000E+00  2.662126587E+03  2.662126587E+03  0.000000000E+00  0.00000E+00  9.000E+00
      21    -1     0     0   501   502  0.000000000E+00  0.000000000E+00 -3.834413157E+01  3.834413157E+01  0.000000000E+00  0.00000E+00  9.000E+00
      25     1     1     2     0     0  1.686536408E+02 -4.217155886E+01  7.181995804E+02  7.494385420E+02  1.250000000E+02  0.00000E+00  9.000E+00
      25     1     1     2     0     0 -1.600684587E+02  2.885323946E+01  4.411200317E+02  4.864836105E+02  1.250000000E+02  0.00000E+00  9.000E+00
       2     1     1     2   501     0 -8.585182025E+00  1.331831940E+01  1.464462843E+03  1.464548566E+03  0.000000000E+00  0.00000E+00  9.000E+00
#rwgt            1           1   3.0566847993528806E-002           7       65780           0
</event>
<event>
      5   9999  3.19816E-02  1.80702E+01 -1.00000E+00  1.70089E-01
      21    -1     0     0   502   501  0.000000000E+00  0.000000000E+00  6.991297932E+01  6.991297932E+01  0.000000000E+00  0.00000E+00  9.000E+00
      21    -1     0     0   511   502  0.000000000E+00  0.000000000E+00 -1.220789253E+03  1.220789253E+03  0.000000000E+00  0.00000E+00  9.000E+00
      25     1     1     2     0     0  5.805958300E+01  4.029787901E+00 -4.861528812E+02  5.053283866E+02  1.250000000E+02  0.00000E+00  9.000E+00
      25     1     1     2     0     0 -6.086445578E+01  1.382138665E+01 -2.086885713E+01  1.412657846E+02  1.250000000E+02  0.00000E+00  9.000E+00
      21     1     1     2   511   501  2.804872779E+00 -1.785117455E+01 -6.438545351E+02  6.441080609E+02  7.629394531E-06  0.00000E+00  9.000E+00
#rwgt            1           1   1.9908061316455263E-002           7       65938           0
</event>
<event>
      5   9999  3.19816E-02  1.36695E+02 -1.00000E+00  1.18015E-01
      21    -1     0     0   502   501  0.000000000E+00  0.000000000E+00  1.805359474E+02  1.805359474E+02  0.000000000E+00  0.00000E+00  9.000E+00
       2    -1     0     0   501     0  0.000000000E+00  0.000000000E+00 -1.759617310E+03  1.759617310E+03  0.000000000E+00  0.00000E+00  9.000E+00
      25     1     1     2     0     0 -1.493275171E+02  9.040114944E+00  3.773327858E+01  1.985679515E+02  1.250000000E+02  0.00000E+00  9.000E+00
      25     1     1     2     0     0  2.816896224E+02 -4.318490743E+01 -3.537507653E+02  4.711460321E+02  1.250000000E+02  0.00000E+00  9.000E+00
       2     1     1     2   502     0 -1.323621053E+02  3.414479249E+01 -1.263063876E+03  1.270439274E+03  2.642899792E-05  0.00000E+00  9.000E+00
#rwgt            1           1   2.8060366277878248E-002           7       66061           0
</event>
<event>
      5   9999  3.19816E-02  1.14699E+02 -1.00000E+00  1.21207E-01
      21    -1     0     0   502   501  0.000000000E+00  0.000000000E+00  6.942160011E+01  6.942160011E+01  0.000000000E+00  0.00000E+00  9.000E+00
      21    -1     0     0   511   502  0.000000000E+00  0.000000000E+00 -1.956828525E+03  1.956828525E+03  0.000000000E+00  0.00000E+00  9.000E+00
      25     1     1     2     0     0 -5.727565077E+01 -1.719248965E+02 -6.194972208E+02  6.574499804E+02  1.250000000E+02  0.00000E+00  9.000E+00
      25     1     1     2     0     0  1.019674661E+00  2.718801018E+02 -4.347394725E+02  5.277719568E+02  1.250000000E+02  0.00000E+00  9.000E+00
      21     1     1     2   511   501  5.625597610E+01 -9.995520523E+01 -8.331702317E+02  8.410281879E+02  0.000000000E+00  0.00000E+00  9.000E+00
#rwgt            1           1   3.3437454566164079E-002           7       66136           0
</event>
<event>
      5   9999  3.19816E-02  3.79525E+01 -1.00000E+00  1.46270E-01
      21    -1     0     0   512   501  0.000000000E+00  0.000000000E+00  3.439036937E+02  3.439036937E+02  0.000000000E+00  0.00000E+00  9.000E+00
      21    -1     0     0   501   502  0.000000000E+00  0.000000000E+00 -3.660020523E+03  3.660020523E+03  0.000000000E+00  0.00000E+00  9.000E+00
      25     1     1     2     0     0 -2.424788535E+02  2.710331005E+02 -8.602000268E+02  9.422441414E+02  1.250000000E+02  0.00000E+00  9.000E+00
      25     1     1     2     0     0  2.183019079E+02 -3.002882680E+02 -2.743640160E+03  2.771464431E+03  1.250000000E+02  0.00000E+00  9.000E+00
      21     1     1     2   512   502  2.417694560E+01  2.925516750E+01  2.877233575E+02  2.902156439E+02  7.629394531E-06  0.00000E+00  9.000E+00
#rwgt            1           1   1.6221378452140459E-002           7       66183           0
</event>
<event>
      5   9999  3.19816E-02  4.03975E+01 -1.00000E+00  1.44574E-01
      21    -1     0     0   502   511  0.000000000E+00  0.000000000E+00  8.428396083E+02  8.428396083E+02  0.000000000E+00  0.00000E+00  9.000E+00
      21    -1     0     0   501   502  0.000000000E+00  0.000000000E+00 -6.858468312E+01  6.858468312E+01  0.000000000E+00  0.00000E+00  9.000E+00
      25     1     1     2     0     0 -2.592370977E+01 -1.517322620E+02  2.199123460E+02  2.961100437E+02  1.250000000E+02  0.00000E+00  9.000E+00
      25     1     1     2     0     0 -3.850371366E+00  1.790354766E+02  3.995731706E+02  4.553594689E+02  1.250000000E+02  0.00000E+00  9.000E+00
      21     1     1     2   501   511  2.977408114E+01 -2.730321466E+01  1.547694086E+02  1.599547788E+02  1.907348633E-06  0.00000E+00  9.000E+00
#rwgt            1           1   1.8770294509498978E-002           7       66334           0
</event>
<event>
      5   9999  3.19816E-02  5.26165E+01 -1.00000E+00  1.37823E-01
       1    -1     0     0   502     0  0.000000000E+00  0.000000000E+00  2.941292093E+03  2.941292093E+03  0.000000000E+00  0.00000E+00  9.000E+00
      21    -1     0     0   501   502  0.000000000E+00  0.000000000E+00 -3.304821363E+01  3.304821363E+01  0.000000000E+00  0.00000E+00  9.000E+00
      25     1     1     2     0     0  3.468220734E+01 -1.830989242E+02  6.871500810E+02  7.228611937E+02  1.250000000E+02  0.00000E+00  9.000E+00
      25     1     1     2     0     0  1.400087896E+01  1.631377433E+02  7.051724741E+02  7.346449252E+02  1.250000000E+02  0.00000E+00  9.000E+00
       1     1     1     2   501     0 -4.868308629E+01  1.996118088E+01  1.515921324E+03  1.516834187E+03  3.051757812E-05  0.00000E+00  9.000E+00
#rwgt            1           1   3.7238539937864641E-002           7       66432           0
</event>
<event>
      5   9999  3.19816E-02  4.02671E+01 -1.00000E+00  1.44661E-01
      21    -1     0     0   502   501  0.000000000E+00  0.000000000E+00  5.615865674E+02  5.615865674E+02  0.000000000E+00  0.00000E+00  9.000E+00
      21    -1     0     0   501   511  0.000000000E+00  0.000000000E+00 -1.962826466E+02  1.962826466E+02  0.000000000E+00  0.00000E+00  9.000E+00
      25     1     1     2     0     0 -1.776735953E+02 -8.303110285E+01 -1.648365323E+01  2.331496972E+02  1.250000000E+02  0.00000E+00  9.000E+00
      25     1     1     2     0     0  2.093215231E+02  1.079278705E+02  3.998456246E+02  4.805886482E+02  1.250000000E+02  0.00000E+00  9.000E+00
      21     1     1     2   502   511 -3.164792785E+01 -2.489676762E+01 -1.805805051E+01  4.413086860E+01  9.536743164E-07  0.00000E+00  9.000E+00
#rwgt            1           1   3.1024951077940857E-002           7       66490           0
</event>
<event>
      5   9999  3.19816E-02  6.46194E+01 -1.00000E+00  1.33004E-01
      21    -1     0     0   502   501  0.000000000E+00  0.000000000E+00  4.778709372E+02  4.778709372E+02  0.000000000E+00  0.00000E+00  9.000E+00
      21    -1     0     0   501   512  0.000000000E+00  0.000000000E+00 -4.981858815E+02  4.981858815E+02  0.000000000E+00  0.00000E+00  9.000E+00
      25     1     1     2     0     0  1.146041602E+02  2.976658975E+02 -1.494727120E+02  3.737729147E+02  1.250000000E+02  0.00000E+00  9.000E+00
      25     1     1     2     0     0 -1.791853180E+02 -2.998877790E+02  2.622344758E+02  4.543478607E+02  1.250000000E+02  0.00000E+00  9.000E+00
      21     1     1     2   502   512  6.458115779E+01  2.221881516E+00 -1.330767081E+02  1.479360434E+02  2.697398305E-06  0.00000E+00  9.000E+00
#rwgt            1           1   2.4613612555634459E-002           7       66573           0
</event>
<event>
      5   9999  3.19816E-02  4.90949E+01 -1.00000E+00  1.39530E-01
      21    -1     0     0   502   511  0.000000000E+00  0.000000000E+00  1.024660701E+03  1.024660701E+03  0.000000000E+00  0.00000E+00  9.000E+00
      21    -1     0     0   501   502  0.000000000E+00  0.000000000E+00 -8.147849788E+01  8.147849788E+01  0.000000000E+00  0.00000E+00  9.000E+00
      25     1     1     2     0     0  4.181051597E+01  1.590382099E+01 -3.457323765E+00  1.328081468E+02  1.250000000E+02  0.00000E+00  9.000E+00
      25     1     1     2     0     0 -9.090089107E+01 -1.657224039E+01  8.583319976E+02  8.722937747E+02  1.250000000E+02  0.00000E+00  9.000E+00
      21     1     1     2   501   511  4.909037509E+01  6.684194032E-01  8.830752941E+01  1.010372776E+02  0.000000000E+00  0.00000E+00  9.000E+00
#rwgt            1           1   3.0056687226663291E-002           7       66637           0
</event>
<event>
      5   9999  3.19816E-02  2.85228E+01 -1.00000E+00  1.54579E-01
       1    -1     0     0   502     0  0.000000000E+00  0.000000000E+00  1.717657048E+03  1.717657048E+03  0.000000000E+00  0.00000E+00  9.000E+00
      21    -1     0     0   501   502  0.000000000E+00  0.000000000E+00 -3.209734111E+02  3.209734111E+02  0.000000000E+00  0.00000E+00  9.000E+00
      25     1     1     2     0     0  1.891085422E+02  3.075131802E+02 -1.244285852E+02  4.017883392E+02  1.250000000E+02  0.00000E+00  9.000E+00
      25     1     1     2     0     0 -1.769496220E+02 -2.817117903E+02  4.898552114E+02  6.051907383E+02  1.250000000E+02  0.00000E+00  9.000E+00
       1     1     1     2   501     0 -1.215892019E+01 -2.580138986E+01  1.031257011E+03  1.031651382E+03  2.157918644E-05  0.00000E+00  9.000E+00
#rwgt            1           1   2.7066767958635701E-002           7       66706           0
</event>
<event>
      5   9999  3.19816E-02  1.05474E+01 -1.00000E+00  1.93119E-01
      21    -1     0     0   502   501  0.000000000E+00  0.000000000E+00  3.832143037E+02  3.832143037E+02  0.000000000E+00  0.00000E+00  9.000E+00
      21    -1     0     0   501   511  0.000000000E+00  0.000000000E+00 -3.175656586E+02  3.175656586E+02  0.000000000E+00  0.00000E+00  9.000E+00
      25     1     1     2     0     0 -7.628977679E+01 -1.924630059E+02 -2.060562609E+02  3.177205082E+02  1.250000000E+02  0.00000E+00  9.000E+00
      25     1     1     2     0     0  7.565257805E+01  2.029910935E+02  2.752720134E+02  3.719252317E+02  1.250000000E+02  0.00000E+00  9.000E+00
      21     1     1     2   502   511  6.371987383E-01 -1.052808763E+01 -3.567107404E+00  1.113422232E+01  4.214684851E-08  0.00000E+00  9.000E+00
#rwgt            1           1   3.2311838631939975E-002           7       66854           0
</event>
<event>
      5   9999  3.19816E-02  6.57995E+01 -1.00000E+00  1.32596E-01
      21    -1     0     0   502   501  0.000000000E+00  0.000000000E+00  4.764252667E+02  4.764252667E+02  0.000000000E+00  0.00000E+00  9.000E+00
      21    -1     0     0   501   512  0.000000000E+00  0.000000000E+00 -6.149976178E+02  6.149976178E+02  0.000000000E+00  0.00000E+00  9.000E+00
      25     1     1     2     0     0  1.482543333E+02  4.014682380E+02  1.078464358E+02  4.587068205E+02  1.250000000E+02  0.00000E+00  9.000E+00
      25     1     1     2     0     0 -1.464973178E+02 -4.672442798E+02 -1.730924061E+02  5.341953408E+02  1.250000000E+02  0.00000E+00  9.000E+00
      21     1     1     2   502   512 -1.757015576E+00  6.577604179E+01 -7.332638085E+01  9.852072323E+01  1.348699152E-06  0.00000E+00  9.000E+00
#rwgt            1           1   2.9611903544741372E-002           7       67051           0
</event>
<event>
      5   9999  3.19816E-02  6.96256E+01 -1.00000E+00  1.31339E-01
      21    -1     0     0   502   501  0.000000000E+00  0.000000000E+00  3.188205916E+02  3.188205916E+02  0.000000000E+00  0.00000E+00  9.000E+00
      21    -1     0     0   501   511  0.000000000E+00  0.000000000E+00 -1.451248716E+02  1.451248716E+02  0.000000000E+00  0.00000E+00  9.000E+00
      25     1     1     2     0     0 -8.445027703E+00  4.416349118E+01  2.728525055E+01  1.356142225E+02  1.250000000E+02  0.00000E+00  9.000E+00
      25     1     1     2     0     0 -6.041217650E+01 -3.384822223E+01  1.962081597E+02  2.427302519E+02  1.250000000E+02  0.00000E+00  9.000E+00
      21     1     1     2   502   511  6.885720420E+01 -1.031526895E+01 -4.979769029E+01  8.560098891E+01  1.168007728E-06  0.00000E+00  9.000E+00
#rwgt            1           1   5.1955713293113132E-002           7       67147           0
</event>
<event>
      5   9999  3.19816E-02  6.02067E+01 -1.00000E+00  1.34624E-01
      21    -1     0     0   502   512  0.000000000E+00  0.000000000E+00  5.901146118E+02  5.901146118E+02  0.000000000E+00  0.00000E+00  9.000E+00
      21    -1     0     0   501   502  0.000000000E+00  0.000000000E+00 -1.554611711E+02  1.554611711E+02  0.000000000E+00  0.00000E+00  9.000E+00
      25     1     1     2     0     0  1.156779831E+02 -1.241210851E+02  3.889436757E+02  4.423681978E+02  1.250000000E+02  0.00000E+00  9.000E+00
      25     1     1     2     0     0 -1.654100330E+02  9.018635386E+01 -2.450623352E+00  2.261085204E+02  1.250000000E+02  0.00000E+00  9.000E+00
      21     1     1     2   501   512  4.973204991E+01  3.393473119E+01  4.816038831E+01  7.709906466E+01  0.000000000E+00  0.00000E+00  9.000E+00
#rwgt            2          11   2.8037085206896709E-003           7       67299           0
</event>
<event>
      5   9999  3.19816E-02  1.51273E+02 -1.00000E+00  1.16248E-01
      21    -1     0     0   511   501  0.000000000E+00  0.000000000E+00  1.220043893E+03  1.220043893E+03  0.000000000E+00  0.00000E+00  9.000E+00
      21    -1     0     0   501   502  0.000000000E+00  0.000000000E+00 -4.729432350E+02  4.729432350E+02  0.000000000E+00  0.00000E+00  9.000E+00
      25     1     1     2     0     0  7.627271806E+01  6.766072438E+01  9.127045773E+02  9.268495814E+02  1.250000000E+02  0.00000E+00  9.000E+00
      25     1     1     2     0     0 -5.222530676E+00 -2.012098572E+02 -4.130118760E+02  4.761475519E+02  1.250000000E+02  0.00000E+00  9.000E+00
      21     1     1     2   511   502 -7.105018738E+01  1.335491328E+02  2.474079563E+02  2.899899944E+02  2.697398305E-06  0.00000E+00  9.000E+00
#rwgt            1           1   3.5244498817616640E-002           7       67319           0
</event>
<event>
      5   9999  3.19816E-02  4.63136E+01 -1.00000E+00  1.41000E-01
      21    -1     0     0   502   501  0.000000000E+00  0.000000000E+00  4.034129554E+02  4.034129554E+02  0.000000000E+00  0.00000E+00  9.000E+00
       2    -1     0     0   501     0  0.000000000E+00  0.000000000E+00 -4.340007382E+03  4.340007382E+03  0.000000000E+00  0.00000E+00  9.000E+00
      25     1     1     2     0     0 -2.010166157E+01 -1.570452218E+02 -4.874599209E+02  5.275504270E+02  1.250000000E+02  0.00000E+00  9.000E+00
      25     1     1     2     0     0  6.467944957E+01  1.696058265E+02  3.515387302E+02  4.149145050E+02  1.250000000E+02  0.00000E+00  9.000E+00
       2     1     1     2   502     0 -4.457778800E+01 -1.256060469E+01 -3.800673236E+03  3.800955406E+03  4.315837288E-05  0.00000E+00  9.000E+00
#rwgt            1           1   2.8314954165180345E-002           7       67384           0
</event>
<event>
      5   9999  3.19816E-02  2.96283E+02 -1.00000E+00  1.05768E-01
      21    -1     0     0   511   501  0.000000000E+00  0.000000000E+00  2.181057154E+03  2.181057154E+03  0.000000000E+00  0.00000E+00  9.000E+00
      21    -1     0     0   501   502  0.000000000E+00  0.000000000E+00 -4.390318004E+02  4.390318004E+02  0.000000000E+00  0.00000E+00  9.000E+00
      25     1     1     2     0     0  3.299674908E+02  5.617557538E+02  1.474380727E+03  1.616747228E+03  1.250000000E+02  0.00000E+00  9.000E+00
      25     1     1     2     0     0 -3.815749664E+02 -2.700018252E+02 -1.360138917E+02  5.026183635E+02  1.250000000E+02  0.00000E+00  9.000E+00
      21     1     1     2   511   502  5.160747567E+01 -2.917539286E+02  4.036585187E+02  5.007233629E+02  1.078959322E-05  0.00000E+00  9.000E+00
#rwgt            2          11   4.0981399511236432E-003           7       67494           0
</event>
<event>
      5   9999  3.19816E-02  4.13390E+01 -1.00000E+00  1.43959E-01
      21    -1     0     0   502   512  0.000000000E+00  0.000000000E+00  4.169228638E+02  4.169228638E+02  0.000000000E+00  0.00000E+00  9.000E+00
      21    -1     0     0   501   502  0.000000000E+00  0.000000000E+00 -2.948563937E+02  2.948563937E+02  0.000000000E+00  0.00000E+00  9.000E+00
      25     1     1     2     0     0 -1.651808305E+02 -2.040081019E+02  1.692365149E+02  3.364075064E+02  1.250000000E+02  0.00000E+00  9.000E+00
      25     1     1     2     0     0  2.013091435E+02  2.240993657E+02 -6.095942969E+01  3.317935338E+02  1.250000000E+02  0.00000E+00  9.000E+00
      21     1     1     2   501   512 -3.612831308E+01 -2.009126385E+01  1.378938497E+01  4.357821734E+01  1.066240300E-06  0.00000E+00  9.000E+00
#rwgt            1           1   2.7392575405556861E-002           7       67514           0
</event>
<event>
      5   9999  3.30871E-02  1.65365E+01 -1.00000E+00  1.73484E-01
      21    -1     0     0   502   511  0.000000000E+00  0.000000000E+00  1.825003736E+02  1.825003736E+02  0.000000000E+00  0.00000E+00  9.000E+00
      21    -1     0     0   501   502  0.000000000E+00  0.000000000E+00 -1.898232655E+03  1.898232655E+03  0.000000000E+00  0.00000E+00  9.000E+00
      25     1     1     2     0     0 -3.195994326E+01  4.276089450E+01 -3.202599878E+02  3.479100342E+02  1.250000000E+02  0.00000E+00  9.000E+00
      25     1     1     2     0     0  4.459094781E+01 -5.343397510E+01 -1.560461943E+03  1.567006706E+03  1.250000000E+02  0.00000E+00  9.000E+00
      21     1     1     2   501   511 -1.263100455E+01  1.067308059E+01  1.649896495E+02  1.658162880E+02  1.907348633E-06  0.00000E+00  9.000E+00
#rwgt            1           1  0.10182338549784141                7       67590           0
</event>
<event>
      5   9999  3.19816E-02  1.02524E+02 -1.00000E+00  1.23343E-01
      21    -1     0     0   502   501  0.000000000E+00  0.000000000E+00  4.760372104E+02  4.760372104E+02  0.000000000E+00  0.00000E+00  9.000E+00
       2    -1     0     0   501     0  0.000000000E+00  0.000000000E+00 -1.639506887E+02  1.639506887E+02  0.000000000E+00  0.00000E+00  9.000E+00
      25     1     1     2     0     0 -7.066187315E+01  1.503814515E+02  1.756023395E+01  2.086649062E+02  1.250000000E+02  0.00000E+00  9.000E+00
      25     1     1     2     0     0 -3.184829730E+01 -1.486967040E+02  1.249327954E+02  2.331485089E+02  1.250000000E+02  0.00000E+00  9.000E+00
       2     1     1     2   502     0  1.025101704E+02 -1.684747486E+00  1.695934924E+02  1.981744840E+02  0.000000000E+00  0.00000E+00  9.000E+00
#rwgt            1           1   2.4419689996531168E-002           7       67727           0
</event>
<event>
      5   9999  3.19816E-02  1.41705E+02 -1.00000E+00  1.17381E-01
       2    -1     0     0   502     0  0.000000000E+00  0.000000000E+00  4.688040227E+02  4.688040227E+02  0.000000000E+00  0.00000E+00  9.000E+00
      21    -1     0     0   501   502  0.000000000E+00  0.000000000E+00 -2.821642647E+03  2.821642647E+03  0.000000000E+00  0.00000E+00  9.000E+00
      25     1     1     2     0     0  2.752553315E+02 -5.810242275E+02 -2.314627111E+03  2.405509990E+03  1.250000000E+02  0.00000E+00  9.000E+00
      25     1     1     2     0     0 -1.424818619E+02  6.305368431E+02 -1.819551324E+02  6.830889120E+02  1.250000000E+02  0.00000E+00  9.000E+00
       2     1     1     2   501     0 -1.327734696E+02 -4.951261556E+01  1.437436189E+02  2.018477676E+02  4.672030912E-06  0.00000E+00  9.000E+00
#rwgt            1           1   2.5692652649413655E-002           7       67776           0
</event>
<event>
      5   9999  3.19816E-02  1.79990E+02 -1.00000E+00  1.13340E-01
       2    -1     0     0   502     0  0.000000000E+00  0.000000000E+00  1.434805408E+03  1.434805408E+03  0.000000000E+00  0.00000E+00  9.000E+00
      21    -1     0     0   501   502  0.000000000E+00  0.000000000E+00 -7.968488382E+02  7.968488382E+02  0.000000000E+00  0.00000E+00  9.000E+00
      25     1     1     2     0     0  2.668151711E+02 -4.402135438E+02  3.733361307E+02  6.480610821E+02  1.250000000E+02  0.00000E+00  9.000E+00
      25     1     1     2     0     0 -2.061682551E+02  6.096785641E+02 -4.831822106E+02  8.144343740E+02  1.250000000E+02  0.00000E+00  9.000E+00
       2     1     1     2   501     0 -6.064691598E+01 -1.694650203E+02  7.478026498E+02  7.691587902E+02  1.525878906E-05  0.00000E+00  9.000E+00
#rwgt            2          18   1.4793812768511801E-003           7       67953           0
</event>
<event>
      5   9999  3.19816E-02  2.01419E+01 -1.00000E+00  1.66116E-01
      21    -1     0     0   502   501  0.000000000E+00  0.000000000E+00  4.006994598E+02  4.006994598E+02  0.000000000E+00  0.00000E+00  9.000E+00
      21    -1     0     0   501   511  0.000000000E+00  0.000000000E+00 -2.951067621E+02  2.951067621E+02  0.000000000E+00  0.00000E+00  9.000E+00
      25     1     1     2     0     0  2.111011127E+02 -1.369933426E+02  1.976830342E+02  3.435614031E+02  1.250000000E+02  0.00000E+00  9.000E+00
      25     1     1     2     0     0 -2.055288192E+02  1.563491285E+02 -3.177491431E+01  2.886551414E+02  1.250000000E+02  0.00000E+00  9.000E+00
      21     1     1     2   502   511 -5.572293490E+00 -1.935578591E+01 -6.031542219E+01  6.358967728E+01  6.743495762E-07  0.00000E+00  9.000E+00
#rwgt            1           1   2.2537273783707297E-002           7       67972           0
</event>
<event>
      5   9999  3.19816E-02  2.10145E+02 -1.00000E+00  1.10871E-01
      21    -1     0     0   512   501  0.000000000E+00  0.000000000E+00  1.580943372E+03  1.580943372E+03  0.000000000E+00  0.00000E+00  9.000E+00
      21    -1     0     0   501   502  0.000000000E+00  0.000000000E+00 -7.363239703E+02  7.363239703E+02  0.000000000E+00  0.00000E+00  9.000E+00
      25     1     1     2     0     0 -9.389775187E+02 -3.164256382E+02  2.187093252E+02  1.022380914E+03  1.250000000E+02  0.00000E+00  9.000E+00
      25     1     1     2     0     0  7.353261474E+02  3.682627811E+02  2.575380334E+02  8.707886412E+02  1.250000000E+02  0.00000E+00  9.000E+00
      21     1     1     2   512   502  2.036513714E+02 -5.183714287E+01  3.683720430E+02  4.240977865E+02  5.394796609E-06  0.00000E+00  9.000E+00
#rwgt            2          11   4.1819248910337685E-003           7       68146           0
</event>
<event>
      5   9999  3.19816E-02  1.84807E+02 -1.00000E+00  1.12912E-01
      21    -1     0     0   502   501  0.000000000E+00  0.000000000E+00  1.537561312E+02  1.537561312E+02  0.000000000E+00  0.00000E+00  9.000E+00
       2    -1     0     0   501     0  0.000000000E+00  0.000000000E+00 -2.853633263E+03  2.853633263E+03  0.000000000E+00  0.00000E+00  9.000E+00
      25     1     1     2     0     0  2.084900119E+02 -4.915401734E+01 -6.748999894E+02  7.190265629E+02  1.250000000E+02  0.00000E+00  9.000E+00
      25     1     1     2     0     0 -3.640991761E+02  1.488502843E+02 -2.083160672E+02  4.623258602E+02  1.250000000E+02  0.00000E+00  9.000E+00
       2     1     1     2   502     0  1.556091642E+02 -9.969626691E+01 -1.816661075E+03  1.826036971E+03  3.051757812E-05  0.00000E+00  9.000E+00
#rwgt            2          13   1.5658483718895045E-003           7       68166           0
</event>
<event>
      5   9999  3.19816E-02  4.58056E+02 -1.00000E+00  9.99452E-02
      -1    -1     0     0     0   501  0.000000000E+00  0.000000000E+00  1.131483444E+03  1.131483444E+03  0.000000000E+00  0.00000E+00  9.000E+00
      21    -1     0     0   501   502  0.000000000E+00  0.000000000E+00 -3.973735566E+02  3.973735566E+02  0.000000000E+00  0.00000E+00  9.000E+00
      25     1     1     2     0     0 -2.376049328E+02  3.765904084E+02 -8.203902915E+01  4.697146390E+02  1.250000000E+02  0.00000E+00  9.000E+00
      25     1     1     2     0     0 -1.200343531E+02 -9.039231140E+01  1.321666932E+02  2.359492545E+02  1.250000000E+02  0.00000E+00  9.000E+00
      -1     1     1     2     0   502  3.576392859E+02 -2.861980970E+02  6.839822230E+02  8.231931067E+02  1.321449896E-05  0.00000E+00  9.000E+00
#rwgt            1           1   2.6499274158511499E-002           7       68200           0
</event>
<event>
      5   9999  3.19816E-02  3.48131E+01 -1.00000E+00  1.48683E-01
      21    -1     0     0   502   501  0.000000000E+00  0.000000000E+00  2.179784573E+02  2.179784573E+02  0.000000000E+00  0.00000E+00  9.000E+00
       1    -1     0     0   501     0  0.000000000E+00  0.000000000E+00 -1.242735414E+03  1.242735414E+03  0.000000000E+00  0.00000E+00  9.000E+00
      25     1     1     2     0     0  1.866434911E+02  2.615100367E+02 -5.459016459E+02  6.456445609E+02  1.250000000E+02  0.00000E+00  9.000E+00
      25     1     1     2     0     0 -2.203748633E+02 -2.528992288E+02 -2.389004480E+01  3.587740717E+02  1.250000000E+02  0.00000E+00  9.000E+00
       1     1     1     2   502     0  3.373137217E+01 -8.610807851E+00 -4.549652660E+02  4.562952385E+02  5.394796609E-06  0.00000E+00  9.000E+00
#rwgt            1           1   2.7173687824757469E-002           7       68231           0
</event>
<event>
      5   9999  3.19816E-02  2.57008E+01 -1.00000E+00  1.57857E-01
      21    -1     0     0   502   511  0.000000000E+00  0.000000000E+00  6.698784075E+02  6.698784075E+02  0.000000000E+00  0.00000E+00  9.000E+00
      21    -1     0     0   501   502  0.000000000E+00  0.000000000E+00 -2.048184535E+02  2.048184535E+02  0.000000000E+00  0.00000E+00  9.000E+00
      25     1     1     2     0     0  2.395634149E+02 -8.177925163E+01  1.368441539E+02  3.137352359E+02  1.250000000E+02  0.00000E+00  9.000E+00
      25     1     1     2     0     0 -2.625019137E+02  7.018809578E+01  7.755635976E+01  3.089880458E+02  1.250000000E+02  0.00000E+00  9.000E+00
      21     1     1     2   501   511  2.293849880E+01  1.159115585E+01  2.506594403E+02  2.519735793E+02  0.000000000E+00  0.00000E+00  9.000E+00
#rwgt            1           1   2.4683932954488605E-002           7       68352           0
</event>
<event>
      5   9999  3.19816E-02  2.38177E+01 -1.00000E+00  1.60343E-01
      21    -1     0     0   502   501  0.000000000E+00  0.000000000E+00  9.304225292E+01  9.304225292E+01  0.000000000E+00  0.00000E+00  9.000E+00
      21    -1     0     0   501   512  0.000000000E+00  0.000000000E+00 -2.245183580E+03  2.245183580E+03  0.000000000E+00  0.00000E+00  9.000E+00
      25     1     1     2     0     0 -1.025312942E+01  1.601665066E+01  3.894011591E+01  1.322988752E+02  1.250000000E+02  0.00000E+00  9.000E+00
      25     1     1     2     0     0 -1.341662009E+01 -1.866698006E+01 -5.430964172E+02  5.577698273E+02  1.250000000E+02  0.00000E+00  9.000E+00
      21     1     1     2   502   512  2.366974952E+01  2.650329401E+00 -1.647985026E+03  1.648157130E+03  0.000000000E+00  0.00000E+00  9.000E+00
#rwgt            1           1   2.8769557398328715E-002           7       68468           0
</event>
<event>
      5   9999  3.19816E-02  1.08699E+02 -1.00000E+00  1.22220E-01
      21    -1     0     0   502   501  0.000000000E+00  0.000000000E+00  1.254263747E+03  1.254263747E+03  0.000000000E+00  0.00000E+00  9.000E+00
      21    -1     0     0   501   511  0.000000000E+00  0.000000000E+00 -2.032709857E+03  2.032709857E+03  0.000000000E+00  0.00000E+00  9.000E+00
      25     1     1     2     0     0 -5.377055764E+02  9.576776044E+02 -1.371037667E+03  1.761148195E+03  1.250000000E+02  0.00000E+00  9.000E+00
      25     1     1     2     0     0  5.246584825E+02 -1.065590489E+03  6.904833699E+02  1.379544090E+03  1.250000000E+02  0.00000E+00  9.000E+00
      21     1     1     2   502   511  1.304709389E+01  1.079128845E+02 -9.789181286E+01  1.462813191E+02  1.907348633E-06  0.00000E+00  9.000E+00
#rwgt            1           1   4.1244741780948307E-002           7       68633           0
</event>
<event>
      5   9999  3.19816E-02  1.19665E+01 -1.00000E+00  1.87156E-01
      21    -1     0     0   502   501  0.000000000E+00  0.000000000E+00  2.600595934E+02  2.600595934E+02  0.000000000E+00  0.00000E+00  9.000E+00
      21    -1     0     0   501   512  0.000000000E+00  0.000000000E+00 -5.077360181E+02  5.077360181E+02  0.000000000E+00  0.00000E+00  9.000E+00
      25     1     1     2     0     0 -9.732680763E+01 -1.305305968E+02  1.873582953E+02  2.779188281E+02  1.250000000E+02  0.00000E+00  9.000E+00
      25     1     1     2     0     0  1.087763713E+02  1.340098208E+02 -4.077271879E+02  4.600623771E+02  1.250000000E+02  0.00000E+00  9.000E+00
      21     1     1     2   502   512 -1.144956367E+01 -3.479223997E+00 -2.730753218E+01  2.981440628E+01  0.000000000E+00  0.00000E+00  9.000E+00
#rwgt            1           1   2.9009501480076416E-002           7       68774           0
</event>
<event>
      5   9999  3.19816E-02  3.39589E+01 -1.00000E+00  1.49393E-01
      21    -1     0     0   511   501  0.000000000E+00  0.000000000E+00  8.454124621E+01  8.454124621E+01  0.000000000E+00  0.00000E+00  9.000E+00
      21    -1     0     0   501   502  0.000000000E+00  0.000000000E+00 -1.050395113E+03  1.050395113E+03  0.000000000E+00  0.00000E+00  9.000E+00
      25     1     1     2     0     0  1.124870155E+02  1.166621646E+02 -1.192860215E+02  2.368914186E+02  1.250000000E+02  0.00000E+00  9.000E+00
      25     1     1     2     0     0 -1.028614924E+02 -1.492283925E+02 -8.327819177E+02  8.613944057E+02  1.250000000E+02  0.00000E+00  9.000E+00
      21     1     1     2   511   502 -9.625523104E+00  3.256622795E+01 -1.378592738E+01  3.665053467E+01  6.951036328E-07  0.00000E+00  9.000E+00
#rwgt            1           1   3.2317912150699346E-002           7       69022           0
</event>
<event>
      5   9999  3.19816E-02  5.16974E+01 -1.00000E+00  1.38253E-01
      21    -1     0     0   502   512  0.000000000E+00  0.000000000E+00  3.276838651E+02  3.276838651E+02  0.000000000E+00  0.00000E+00  9.000E+00
      21    -1     0     0   501   502  0.000000000E+00  0.000000000E+00 -2.679587826E+02  2.679587826E+02  0.000000000E+00  0.00000E+00  9.000E+00
      25     1     1     2     0     0  1.401961447E+02 -1.465353256E+02  7.717608864E+01  2.504170707E+02  1.250000000E+02  0.00000E+00  9.000E+00
      25     1     1     2     0     0 -1.613960729E+02  1.936859943E+02 -4.756756975E+01  2.853955684E+02  1.250000000E+02  0.00000E+00  9.000E+00
      21     1     1     2   501   512  2.119992825E+01 -4.715066876E+01  3.011656363E+01  5.983000859E+01  6.743495762E-07  0.00000E+00  9.000E+00
#rwgt            1           1   2.8429769225909236E-002           7       69127           0
</event>
<event>
      5   9999  3.19816E-02  6.13612E+00 -1.00000E+00  2.23969E-01
      21    -1     0     0   502   511  0.000000000E+00  0.000000000E+00  5.622448268E+02  5.622448268E+02  0.000000000E+00  0.00000E+00  9.000E+00
      21    -1     0     0   501   502  0.000000000E+00  0.000000000E+00 -1.109663403E+02  1.109663403E+02  0.000000000E+00  0.00000E+00  9.000E+00
      25     1     1     2     0     0  4.508610831E+01 -1.844949549E+02  2.485055714E+02  3.368251246E+02  1.250000000E+02  0.00000E+00  9.000E+00
      25     1     1     2     0     0 -4.460661312E+01  1.783776002E+02  1.186016436E+02  2.519914047E+02  1.250000000E+02  0.00000E+00  9.000E+00
      21     1     1     2   501   511 -4.794951870E-01  6.117354657E+00  8.417127153E+01  8.439463783E+01  1.651812370E-06  0.00000E+00  9.000E+00
#rwgt            1           1   2.6461439449254474E-002           7       69275           0
</event>
<event>
      5   9999  3.19816E-02  7.01867E+01 -1.00000E+00  1.31162E-01
       2    -1     0     0   502     0  0.000000000E+00  0.000000000E+00  2.858349111E+03  2.858349111E+03  0.000000000E+00  0.00000E+00  9.000E+00
      21    -1     0     0   501   502  0.000000000E+00  0.000000000E+00 -4.495906421E+01  4.495906421E+01  0.000000000E+00  0.00000E+00  9.000E+00
      25     1     1     2     0     0 -1.697584163E+02  7.209797866E+01  4.846763556E+02  5.334343522E+02  1.250000000E+02  0.00000E+00  9.000E+00
      25     1     1     2     0     0  2.334652546E+02 -4.264275085E+01  8.922654617E+02  9.317119102E+02  1.250000000E+02  0.00000E+00  9.000E+00
       2     1     1     2   501     0 -6.370683828E+01 -2.945522781E+01  1.436448229E+03  1.438161913E+03  2.157918644E-05  0.00000E+00  9.000E+00
#rwgt            1           1   2.6567309242446050E-002           7       69477           0
</event>
<event>
      5   9999  3.19816E-02  4.66945E+01 -1.00000E+00  1.40792E-01
      21    -1     0     0   502   511  0.000000000E+00  0.000000000E+00  1.007579666E+03  1.007579666E+03  0.000000000E+00  0.00000E+00  9.000E+00
      21    -1     0     0   501   502  0.000000000E+00  0.000000000E+00 -1.108290683E+02  1.108290683E+02  0.000000000E+00  0.00000E+00  9.000E+00
      25     1     1     2     0     0  1.997769046E+02 -4.726675257E+01  4.215643638E+02  4.852694822E+02  1.250000000E+02  0.00000E+00  9.000E+00
      25     1     1     2     0     0 -1.838930151E+02  9.117664455E+01  1.088240986E+02  2.638133923E+02  1.250000000E+02  0.00000E+00  9.000E+00
      21     1     1     2   501   511 -1.588388949E+01 -4.390989198E+01  3.663621352E+02  3.693258597E+02  0.000000000E+00  0.00000E+00  9.000E+00
#rwgt            1           1   2.7926344400200920E-002           7       69626           0
</event>
<event>
      5   9999  3.19816E-02  4.87121E+01 -1.00000E+00  1.39725E-01
      21    -1     0     0   502   501  0.000000000E+00  0.000000000E+00  1.602655210E+03  1.602655210E+03  0.000000000E+00  0.00000E+00  9.000E+00
      21    -1     0     0   501   512  0.000000000E+00  0.000000000E+00 -6.429551401E+01  6.429551401E+01  0.000000000E+00  0.00000E+00  9.000E+00
      25     1     1     2     0     0  4.529004917E+01 -2.798765490E+02  8.280687891E+02  8.841408206E+02  1.250000000E+02  0.00000E+00  9.000E+00
      25     1     1     2     0     0 -7.320210094E+01  2.399543542E+02  5.999126018E+02  6.621606825E+02  1.250000000E+02  0.00000E+00  9.000E+00
      21     1     1     2   502   512  2.791205177E+01  3.992219473E+01  1.103783056E+02  1.206492213E+02  0.000000000E+00  0.00000E+00  9.000E+00
#rwgt            1           1   2.8315092701605836E-002           7       69722           0
</event>
<event>
      5   9999  3.19816E-02  6.02745E+02 -1.00000E+00  9.65997E-02
      21    -1     0     0   502   501  0.000000000E+00  0.000000000E+00  2.283591534E+02  2.283591534E+02  0.000000000E+00  0.00000E+00  9.000E+00
       2    -1     0     0   501     0  0.000000000E+00  0.000000000E+00 -2.497323545E+03  2.497323545E+03  0.000000000E+00  0.00000E+00  9.000E+00
      25     1     1     2     0     0 -3.513694957E+01  3.429600913E+02 -3.609151488E+02  5.145298573E+02  1.250000000E+02  0.00000E+00  9.000E+00
      25     1     1     2     0     0 -4.958704188E+02 -5.777111584E+01 -8.810274492E+02  1.020323155E+03  1.250000000E+02  0.00000E+00  9.000E+00
       2     1     1     2   502     0  5.310073684E+02 -2.851889754E+02 -1.027021794E+03  1.190829686E+03  2.642899792E-05  0.00000E+00  9.000E+00
#rwgt            2          13   1.3045905373124983E-003           7       69840           0
</event>
<event>
      5   9999  3.19816E-02  5.45204E+01 -1.00000E+00  1.36964E-01
      21    -1     0     0   502   501  0.000000000E+00  0.000000000E+00  1.149702647E+03  1.149702647E+03  0.000000000E+00  0.00000E+00  9.000E+00
       2    -1     0     0   501     0  0.000000000E+00  0.000000000E+00 -6.333409759E+02  6.333409759E+02  0.000000000E+00  0.00000E+00  9.000E+00
      25     1     1     2     0     0  1.503923092E+02  6.523210775E+02  3.454548413E+02  7.636129138E+02  1.250000000E+02  0.00000E+00  9.000E+00
      25     1     1     2     0     0 -1.725206262E+02 -6.024932791E+02  4.198213583E+02  7.646152567E+02  1.250000000E+02  0.00000E+00  9.000E+00
       2     1     1     2   502     0  2.212831707E+01 -4.982779841E+01 -2.489145288E+02  2.548154520E+02  3.814697266E-06  0.00000E+00  9.000E+00
#rwgt            1           1   1.7959469846495820E-002           7       69874           0
</event>
<event>
      5   9999  3.19816E-02  1.43413E+02 -1.00000E+00  1.17172E-01
      21    -1     0     0   511   501  0.000000000E+00  0.000000000E+00  6.709145569E+02  6.709145569E+02  0.000000000E+00  0.00000E+00  9.000E+00
      21    -1     0     0   501   502  0.000000000E+00  0.000000000E+00 -4.935348509E+02  4.935348509E+02  0.000000000E+00  0.00000E+00  9.000E+00
      25     1     1     2     0     0 -1.759859410E+02 -8.387010969E+01 -4.107191543E+02  4.715087172E+02  1.250000000E+02  0.00000E+00  9.000E+00
      25     1     1     2     0     0  1.541622947E+02 -5.787233436E+01  4.433250377E+02  4.891597993E+02  1.250000000E+02  0.00000E+00  9.000E+00
      21     1     1     2   511   502  2.182364635E+01  1.417424441E+02  1.447738225E+02  2.037808913E+02  2.697398305E-06  0.00000E+00  9.000E+00
#rwgt            2          11   3.9202375662263011E-003           7       70009           0
</event>
<event>
      5   9999  3.19816E-02  1.09332E+02 -1.00000E+00  1.22110E-01
      21    -1     0     0   502   501  0.000000000E+00  0.000000000E+00  8.064566392E+01  8.064566392E+01  0.000000000E+00  0.00000E+00  9.000E+00
       1    -1     0     0   501     0  0.000000000E+00  0.000000000E+00 -1.879641736E+03  1.879641736E+03  0.000000000E+00  0.00000E+00  9.000E+00
      25     1     1     2     0     0 -1.781331085E+01  2.336903084E+01  8.943427094E+00  1.287183380E+02  1.250000000E+02  0.00000E+00  9.000E+00
      25     1     1     2     0     0 -4.112684942E+01 -1.154540191E+02 -8.826686518E+02  8.998610988E+02  1.250000000E+02  0.00000E+00  9.000E+00
       1     1     1     2   502     0  5.894016027E+01  9.208498823E+01 -9.252708469E+02  9.317079627E+02  1.525878906E-05  0.00000E+00  9.000E+00
#rwgt            2          12   3.6513123209511259E-004           7       70044           0
</event>
<event>
      5   9999  3.19816E-02  4.04917E+01 -1.00000E+00  1.44512E-01
      21    -1     0     0   502   501  0.000000000E+00  0.000000000E+00  6.356406465E+01  6.356406465E+01  0.000000000E+00  0.00000E+00  9.000E+00
       1    -1     0     0   501     0  0.000000000E+00  0.000000000E+00 -1.552969168E+03  1.552969168E+03  0.000000000E+00  0.00000E+00  9.000E+00
      25     1     1     2     0     0  6.616155882E+01 -5.855808435E-01 -4.797059734E+01  1.493448124E+02  1.250000000E+02  0.00000E+00  9.000E+00
      25     1     1     2     0     0 -3.932311634E+01 -2.973398010E+01 -3.485477024E+02  3.735517607E+02  1.250000000E+02  0.00000E+00  9.000E+00
       1     1     1     2   502     0 -2.683844248E+01  3.031956095E+01 -1.092886803E+03  1.093636659E+03  0.000000000E+00  0.00000E+00  9.000E+00
#rwgt            1           1   2.6240122263714652E-002           7       70078           0
</event>
<event>
      5   9999  3.19816E-02  6.40797E+01 -1.00000E+00  1.33194E-01
      21    -1     0     0   502   501  0.000000000E+00  0.000000000E+00  8.794039007E+02  8.794039007E+02  0.000000000E+00  0.00000E+00  9.000E+00
      -2    -1     0     0     0   502  0.000000000E+00  0.000000000E+00 -5.806947006E+01  5.806947006E+01  0.000000000E+00  0.00000E+00  9.000E+00
      25     1     1     2     0     0 -3.914281932E+00  1.061676735E+02  1.714677859E+02  2.373038097E+02  1.250000000E+02  0.00000E+00  9.000E+00
      25     1     1     2     0     0 -4.359334501E+01 -6.316494547E+01  6.035119667E+02  6.210812217E+02  1.250000000E+02  0.00000E+00  9.000E+00
      -2     1     1     2     0   501  4.750762694E+01 -4.300272804E+01  4.635467801E+01  7.908833928E+01  1.168007728E-06  0.00000E+00  9.000E+00
#rwgt            1           1   2.8129379155662416E-002           7       70144           0
</event>
<event>
      5   9999  3.19816E-02  2.73237E+01 -1.00000E+00  1.55913E-01
      21    -1     0     0   502   501  0.000000000E+00  0.000000000E+00  1.640402838E+03  1.640402838E+03  0.000000000E+00  0.00000E+00  9.000E+00
      21    -1     0     0   511   502  0.000000000E+00  0.000000000E+00 -1.294602281E+02  1.294602281E+02  0.000000000E+00  0.00000E+00  9.000E+00
      25     1     1     2     0     0  2.663932780E+02 -2.766753743E+02  7.867164440E+02  8.843429225E+02  1.250000000E+02  0.00000E+00  9.000E+00
      25     1     1     2     0     0 -2.580199808E+02  3.026844078E+02  7.432710228E+02  8.522141601E+02  1.250000000E+02  0.00000E+00  9.000E+00
      21     1     1     2   511   501 -8.373297213E+00 -2.600903351E+01 -1.904485728E+01  3.330598323E+01  6.743495762E-07  0.00000E+00  9.000E+00
#rwgt            1           1   2.9022466406257760E-002           7       70226           0
</event>
<event>
      5   9999  3.19816E-02  6.99663E+01 -1.00000E+00  1.31231E-01
      21    -1     0     0   502   501  0.000000000E+00  0.000000000E+00  1.551296071E+03  1.551296071E+03  0.000000000E+00  0.00000E+00  9.000E+00
      21    -1     0     0   512   502  0.000000000E+00  0.000000000E+00 -1.016131767E+03  1.016131767E+03  0.000000000E+00  0.00000E+00  9.000E+00
      25     1     1     2     0     0  7.139536712E+01  3.421177682E+02  1.413608326E+03  1.461525014E+03  1.250000000E+02  0.00000E+00  9.000E+00
      25     1     1     2     0     0 -8.395484404E+01 -2.732879640E+02 -1.048784752E+02  3.291796191E+02  1.250000000E+02  0.00000E+00  9.000E+00
      21     1     1     2   512   501  1.255947692E+01 -6.882980429E+01 -7.735655473E+02  7.767232058E+02  1.525878906E-05  0.00000E+00  9.000E+00
#rwgt            1           1   3.3482464870133143E-002           7       70358           0
</event>
<event>
      5   9999  3.19816E-02  3.11601E+01 -1.00000E+00  1.51904E-01
      21    -1     0     0   511   501  0.000000000E+00  0.000000000E+00  6.804572591E+02  6.804572591E+02  0.000000000E+00  0.00000E+00  9.000E+00
      21    -1     0     0   501   502  0.000000000E+00  0.000000000E+00 -3.514797604E+02  3.514797604E+02  0.000000000E+00  0.00000E+00  9.000E+00
      25     1     1     2     0     0 -2.686758091E+02 -3.220175934E+02 -3.922516948E+01  4.393695879E+02  1.250000000E+02  0.00000E+00  9.000E+00
      25     1     1     2     0     0  2.882613743E+02  2.977821138E+02  3.480648958E+02  5.554664516E+02  1.250000000E+02  0.00000E+00  9.000E+00
      21     1     1     2   511   502 -1.958556522E+01  2.423547960E+01  2.013777238E+01  3.710097995E+01  3.371747881E-07  0.00000E+00  9.000E+00
#rwgt            1           1   3.0087819481474300E-002           7       70425           0
</event>
<event>
      5   9999  3.19816E-02  2.60988E+01 -1.00000E+00  1.57364E-01
      21    -1     0     0   512   501  0.000000000E+00  0.000000000E+00  2.911113889E+02  2.911113889E+02  0.000000000E+00  0.00000E+00  9.000E+00
      21    -1     0     0   501   502  0.000000000E+00  0.000000000E+00 -5.779542546E+02  5.779542546E+02  0.000000000E+00  0.00000E+00  9.000E+00
      25     1     1     2     0     0 -5.918012854E+01  1.670493660E+02 -1.967795627E+02  2.928395031E+02  1.250000000E+02  0.00000E+00  9.000E+00
      25     1     1     2     0     0  4.977130792E+01 -1.427055720E+02 -3.034138331E+02  3.612852301E+02  1.250000000E+02  0.00000E+00  9.000E+00
      21     1     1     2   512   502  9.408820616E+00 -2.434379397E+01  2.133505301E+02  2.149409103E+02  2.697398305E-06  0.00000E+00  9.000E+00
#rwgt            1           1   2.8352048727756169E-002           7       70645           0
</event>
<event>
      5   9999  3.19816E-02  2.30820E+02 -1.00000E+00  1.09428E-01
      21    -1     0     0   511   501  0.000000000E+00  0.000000000E+00  1.027166790E+03  1.027166790E+03  0.000000000E+00  0.00000E+00  9.000E+00
      21    -1     0     0   501   502  0.000000000E+00  0.000000000E+00 -2.544365742E+02  2.544365742E+02  0.000000000E+00  0.00000E+00  9.000E+00
      25     1     1     2     0     0  2.203975034E+02  5.529274806E+01  1.166883874E+02  2.843827126E+02  1.250000000E+02  0.00000E+00  9.000E+00
      25     1     1     2     0     0 -9.872493867E+01  1.408540210E+02 -7.896780253E+01  2.268201547E+02  1.250000000E+02  0.00000E+00  9.000E+00
      21     1     1     2   511   502 -1.216725647E+02 -1.961467691E+02  7.350096305E+02  7.704004965E+02  1.078959322E-05  0.00000E+00  9.000E+00
#rwgt            2          11   2.8494521216283503E-003           7       70703           0
</event>
<event>
      5   9999  3.19816E-02  2.35425E+01 -1.00000E+00  1.60730E-01
      21    -1     0     0   502   501  0.000000000E+00  0.000000000E+00  3.788684574E+02  3.788684574E+02  0.000000000E+00  0.00000E+00  9.000E+00
      21    -1     0     0   501   512  0.000000000E+00  0.000000000E+00 -5.310182201E+02  5.310182201E+02  0.000000000E+00  0.00000E+00  9.000E+00
      25     1     1     2     0     0  9.758360485E+01  2.780757111E+02  2.235236344E+02  3.904311414E+02  1.250000000E+02  0.00000E+00  9.000E+00
      25     1     1     2     0     0 -7.797071868E+01 -2.910981536E+02 -3.114266936E+02  4.510312112E+02  1.250000000E+02  0.00000E+00  9.000E+00
      21     1     1     2   502   512 -1.961288618E+01  1.302244251E+01 -6.424670356E+01  6.842432485E+01  0.000000000E+00  0.00000E+00  9.000E+00
#rwgt            1           1   2.9006591560982516E-002           7       70723           0
</event>
<event>
      5   9999  3.19816E-02  9.31354E+01 -1.00000E+00  1.25233E-01
      21    -1     0     0   502   501  0.000000000E+00  0.000000000E+00  1.945336693E+02  1.945336693E+02  0.000000000E+00  0.00000E+00  9.000E+00
      21    -1     0     0   501   511  0.000000000E+00  0.000000000E+00 -2.244711056E+03  2.244711056E+03  0.000000000E+00  0.00000E+00  9.000E+00
      25     1     1     2     0     0 -2.969814465E+02  3.410622989E+02 -1.308491792E+03  1.390070949E+03  1.250000000E+02  0.00000E+00  9.000E+00
      25     1     1     2     0     0  2.043190576E+02 -3.316871552E+02 -1.283259886E+02  4.287834017E+02  1.250000000E+02  0.00000E+00  9.000E+00
      21     1     1     2   502   511  9.266238891E+01 -9.375143736E+00 -6.133596054E+02  6.203903748E+02  0.000000000E+00  0.00000E+00  9.000E+00
#rwgt            2          11   1.6559653076631238E-003           7       70941           0
</event>
<event>
      5   9999  3.19816E-02  1.35627E+02 -1.00000E+00  1.18154E-01
      21    -1     0     0   502   501  0.000000000E+00  0.000000000E+00  1.696876520E+03  1.696876520E+03  0.000000000E+00  0.00000E+00  9.000E+00
      21    -1     0     0   501   512  0.000000000E+00  0.000000000E+00 -1.243546767E+02  1.243546767E+02  0.000000000E+00  0.00000E+00  9.000E+00
      25     1     1     2     0     0  2.403233962E+02 -2.679516848E+02  9.456644224E+02  1.019538935E+03  1.250000000E+02  0.00000E+00  9.000E+00
      25     1     1     2     0     0 -1.153098142E+02  3.205469741E+02  4.301734278E+02  5.627796139E+02  1.250000000E+02  0.00000E+00  9.000E+00
      21     1     1     2   502   512 -1.250135819E+02 -5.259528930E+01  1.966839931E+02  2.389126478E+02  2.697398305E-06  0.00000E+00  9.000E+00
#rwgt            2          11   4.5528747813837599E-003           7       70991           0
</event>
<event>
      5   9999  3.19816E-02  1.54013E+02 -1.00000E+00  1.15941E-01
      -1    -1     0     0     0   501  0.000000000E+00  0.000000000E+00  1.979366285E+03  1.979366285E+03  0.000000000E+00  0.00000E+00  9.000E+00
      21    -1     0     0   501   502  0.000000000E+00  0.000000000E+00 -1.235112442E+02  1.235112442E+02  0.000000000E+00  0.00000E+00  9.000E+00
      25     1     1     2     0     0  1.709466574E+02 -3.329974206E+02  1.354176851E+03  1.410506996E+03  1.250000000E+02  0.00000E+00  9.000E+00
      25     1     1     2     0     0 -1.484143454E+02  1.806417455E+02  1.411948538E+02  3.003651859E+02  1.250000000E+02  0.00000E+00  9.000E+00
      -1     1     1     2     0   502 -2.253231199E+01  1.523556751E+02  3.604833359E+02  3.920053473E+02  5.394796609E-06  0.00000E+00  9.000E+00
#rwgt            1           1   2.5687723816659725E-002           7       71011           0
</event>
<event>
      5   9999  3.19816E-02  1.52954E+01 -1.00000E+00  1.76589E-01
      21    -1     0     0   502   501  0.000000000E+00  0.000000000E+00  2.714336268E+02  2.714336268E+02  0.000000000E+00  0.00000E+00  9.000E+00
       2    -1     0     0   501     0  0.000000000E+00  0.000000000E+00 -1.653754066E+03  1.653754066E+03  0.000000000E+00  0.00000E+00  9.000E+00
      25     1     1     2     0     0 -3.223698129E+02  3.675393673E+01 -1.207722369E+02  3.680816232E+02  1.250000000E+02  0.00000E+00  9.000E+00
      25     1     1     2     0     0  3.104447378E+02 -2.717578500E+01 -4.305418558E+01  3.385160578E+02  1.250000000E+02  0.00000E+00  9.000E+00
       2     1     1     2   502     0  1.192507510E+01 -9.578151729E+00 -1.218494016E+03  1.218590012E+03  1.525878906E-05  0.00000E+00  9.000E+00
#rwgt            1           1   2.8850584241424882E-002           7       71052           0
</event>
<event>
      5   9999  3.19816E-02  6.15228E+01 -1.00000E+00  1.34124E-01
       1    -1     0     0   502     0  0.000000000E+00  0.000000000E+00  2.646113713E+03  2.646113713E+03  0.000000000E+00  0.00000E+00  9.000E+00
      21    -1     0     0   501   502  0.000000000E+00  0.000000000E+00 -4.975240337E+01  4.975240337E+01  0.000000000E+00  0.00000E+00  9.000E+00
      25     1     1     2     0     0 -1.578766241E+02  9.314446577E+01  2.015556689E+03  2.027731413E+03  1.250000000E+02  0.00000E+00  9.000E+00
      25     1     1     2     0     0  1.433170245E+02 -3.336925280E+01  1.844065718E+02  2.669907494E+02  1.250000000E+02  0.00000E+00  9.000E+00
       1     1     1     2   501     0  1.455959958E+01 -5.977521297E+01  3.963980495E+02  4.011439538E+02  0.000000000E+00  0.00000E+00  9.000E+00
#rwgt            1           1   7.9059988729625705E-002           7       71286           0
</event>
<event>
      5   9999  3.19816E-02  1.06002E+01 -1.00000E+00  1.92876E-01
      -1    -1     0     0     0   501  0.000000000E+00  0.000000000E+00  6.092799746E+02  6.092799746E+02  0.000000000E+00  0.00000E+00  9.000E+00
      21    -1     0     0   501   502  0.000000000E+00  0.000000000E+00 -2.732878744E+02  2.732878744E+02  0.000000000E+00  0.00000E+00  9.000E+00
      25     1     1     2     0     0  3.421881878E+02  1.049132372E+02  3.032975498E+02  4.855038073E+02  1.250000000E+02  0.00000E+00  9.000E+00
      25     1     1     2     0     0 -3.325072178E+02 -1.092310835E+02  9.727621399E+00  3.717688880E+02  1.250000000E+02  0.00000E+00  9.000E+00
      -1     1     1     2     0   502 -9.680970017E+00  4.317846387E+00  2.296692891E+01  2.529515371E+01  0.000000000E+00  0.00000E+00  9.000E+00
#rwgt            1           1   2.7068021256471581E-002           7       71375           0
</event>
<event>
      5   9999  3.19816E-02  4.09600E+01 -1.00000E+00  1.44204E-01
      21    -1     0     0   511   501  0.000000000E+00  0.000000000E+00  3.567266745E+02  3.567266745E+02  0.000000000E+00  0.00000E+00  9.000E+00
      21    -1     0     0   501   502  0.000000000E+00  0.000000000E+00 -1.856777899E+02  1.856777899E+02  0.000000000E+00  0.00000E+00  9.000E+00
      25     1     1     2     0     0  1.638069956E+02  2.614913866E+01 -1.505184536E+01  2.082500115E+02  1.250000000E+02  0.00000E+00  9.000E+00
      25     1     1     2     0     0 -1.754826935E+02 -6.540984523E+01  1.167974926E+02  2.536518832E+02  1.250000000E+02  0.00000E+00  9.000E+00
      21     1     1     2   511   502  1.167569795E+01  3.926070657E+01  6.930323739E+01  8.050256963E+01  0.000000000E+00  0.00000E+00  9.000E+00
#rwgt            1           1   2.6792863209247463E-002           7       71603           0
</event>
<event>
      5   9999  3.19816E-02  4.69229E+01 -1.00000E+00  1.40668E-01
      21    -1     0     0   502   512  0.000000000E+00  0.000000000E+00  1.821624757E+02  1.821624757E+02  0.000000000E+00  0.00000E+00  9.000E+00
      21    -1     0     0   501   502  0.000000000E+00  0.000000000E+00 -5.291675488E+02  5.291675488E+02  0.000000000E+00  0.00000E+00  9.000E+00
      25     1     1     2     0     0 -2.745814044E+02 -1.992299052E+01 -2.393167539E+02  3.856026217E+02  1.250000000E+02  0.00000E+00  9.000E+00
      25     1     1     2     0     0  2.277395208E+02  1.716657526E+01 -9.465473091E+01  2.770279746E+02  1.250000000E+02  0.00000E+00  9.000E+00
      21     1     1     2   501   512  4.684188355E+01  2.756415262E+00 -1.303358833E+01  4.869942817E+01  5.591411304E-07  0.00000E+00  9.000E+00
#rwgt            1           1   2.5205555615851319E-002           7       71686           0
</event>
<event>
      5   9999  3.19816E-02  8.75478E+01 -1.00000E+00  1.26483E-01
      21    -1     0     0   511   501  0.000000000E+00  0.000000000E+00  2.942321436E+02  2.942321436E+02  0.000000000E+00  0.00000E+00  9.000E+00
      21    -1     0     0   501   502  0.000000000E+00  0.000000000E+00 -1.961419321E+03  1.961419321E+03  0.000000000E+00  0.00000E+00  9.000E+00
      25     1     1     2     0     0  6.139066502E+02 -9.042983680E+01 -8.917767553E+02  1.093594857E+03  1.250000000E+02  0.00000E+00  9.000E+00
      25     1     1     2     0     0 -5.489450528E+02  3.173904673E+01 -8.677106353E+02  1.034840463E+03  1.250000000E+02  0.00000E+00  9.000E+00
      21     1     1     2   511   502 -6.496159734E+01  5.869079006E+01  9.230021310E+01  1.272161440E+02  3.015782986E-06  0.00000E+00  9.000E+00
#rwgt            1           1   3.6883153327717223E-002           7       71743           0
</event>
<event>
      5   9999  3.22423E-02  1.01640E+02 -1.00000E+00  1.23511E-01
      21    -1     0     0   512   501  0.000000000E+00  0.000000000E+00  1.988963123E+02  1.988963123E+02  0.000000000E+00  0.00000E+00  9.000E+00
      21    -1     0     0   501   502  0.000000000E+00  0.000000000E+00 -3.879424740E+03  3.879424740E+03  0.000000000E+00  0.00000E+00  9.000E+00
      25     1     1     2     0     0 -3.264061757E+02 -4.154619246E+02 -2.814143291E+03  2.866038567E+03  1.250000000E+02  0.00000E+00  9.000E+00
      25     1     1     2     0     0  4.261938030E+02  4.347769868E+02 -9.097400858E+02  1.101782288E+03  1.250000000E+02  0.00000E+00  9.000E+00
      21     1     1     2   512   502 -9.978762731E+01 -1.931506215E+01  4.335494902E+01  1.105001982E+02  3.438521648E-06  0.00000E+00  9.000E+00
#rwgt            1           1   2.0784227262065958E-002           7       71859           0
</event>
<event>
      5   9999  3.19816E-02  3.24318E+01 -1.00000E+00  1.50725E-01
       2    -1     0     0   502     0  0.000000000E+00  0.000000000E+00  3.189021417E+03  3.189021417E+03  0.000000000E+00  0.00000E+00  9.000E+00
      21    -1     0     0   501   502  0.000000000E+00  0.000000000E+00 -8.409699815E+01  8.409699815E+01  0.000000000E+00  0.00000E+00  9.000E+00
      25     1     1     2     0     0 -8.710174944E+01  1.798923941E+02  1.090304624E+02  2.597318424E+02  1.250000000E+02  0.00000E+00  9.000E+00
      25     1     1     2     0     0  8.639954845E+01 -1.474681743E+02  1.296072469E+03  1.313255721E+03  1.250000000E+02  0.00000E+00  9.000E+00
       2     1     1     2   501     0  7.022009887E-01 -3.242421980E+01  1.699821488E+03  1.700130852E+03  3.051757812E-05  0.00000E+00  9.000E+00
#rwgt            1           1   3.1236281735271623E-002           7       71978           0
</event>
<event>
      5   9999  3.19816E-02  8.13647E+01 -1.00000E+00  1.27995E-01
      21    -1     0     0   511   501  0.000000000E+00  0.000000000E+00  3.601079712E+03  3.601079712E+03  0.000000000E+00  0.00000E+00  9.000E+00
      21    -1     0     0   501   502  0.000000000E+00  0.000000000E+00 -3.597324399E+02  3.597324399E+02  0.000000000E+00  0.00000E+00  9.000E+00
      25     1     1     2     0     0 -2.490667073E+02 -4.009700354E+02  2.154895094E+03  2.209526886E+03  1.250000000E+02  0.00000E+00  9.000E+00
      25     1     1     2     0     0  1.731988458E+02  4.303686686E+02 -1.567819074E+02  5.053915290E+02  1.250000000E+02  0.00000E+00  9.000E+00
      21     1     1     2   511   502  7.586786146E+01 -2.939863319E+01  1.243234086E+03  1.245893737E+03  2.157918644E-05  0.00000E+00  9.000E+00
#rwgt            1           1   2.7436710269100557E-002           7       72154           0
</event>
<event>
      5   9999  3.19816E-02  9.38544E+01 -1.00000E+00  1.25080E-01
      21    -1     0     0   502   501  0.000000000E+00  0.000000000E+00  5.349144993E+02  5.349144993E+02  0.000000000E+00  0.00000E+00  9.000E+00
       1    -1     0     0   501     0  0.000000000E+00  0.000000000E+00 -1.341184384E+03  1.341184384E+03  0.000000000E+00  0.00000E+00  9.000E+00
      25     1     1     2     0     0  1.510293174E+02  2.143588595E+02  2.541134672E+02  3.859510715E+02  1.250000000E+02  0.00000E+00  9.000E+00
      25     1     1     2     0     0 -6.421945505E+01 -2.500336517E+02  1.164639883E+02  3.095639287E+02  1.250000000E+02  0.00000E+00  9.000E+00
       1     1     1     2   502     0 -8.680986232E+01  3.567479213E+01 -1.176847341E+03  1.180583884E+03  2.157918644E-05  0.00000E+00  9.000E+00
#rwgt            1           1   3.3413616953588764E-002           7       72328           0
</event>
<event>
      5   9999  3.19816E-02  2.23689E+02 -1.00000E+00  1.09906E-01
      21    -1     0     0   502   501  0.000000000E+00  0.000000000E+00  7.051923375E+02  7.051923375E+02  0.000000000E+00  0.00000E+00  9.000E+00
      21    -1     0     0   511   502  0.000000000E+00  0.000000000E+00 -1.006375238E+03  1.006375238E+03  0.000000000E+00  0.00000E+00  9.000E+00
      25     1     1     2     0     0 -7.913237170E+02  1.905434325E+02 -2.615073841E+02  8.640087597E+02  1.250000000E+02  0.00000E+00  9.000E+00
      25     1     1     2     0     0  5.702190419E+02 -1.566415290E+02  5.019751728E+01  6.064908203E+02  1.250000000E+02  0.00000E+00  9.000E+00
      21     1     1     2   511   501  2.211046751E+02 -3.390190353E+01 -8.987303412E+01  2.410679960E+02  2.336015456E-06  0.00000E+00  9.000E+00
#rwgt            1           1   2.1801250128244052E-002           7       72415           0
</event>
<event>
      5   9999  3.19816E-02  2.69265E+01 -1.00000E+00  1.56373E-01
      21    -1     0     0   502   501  0.000000000E+00  0.000000000E+00  3.109206471E+02  3.109206471E+02  0.000000000E+00  0.00000E+00  9.000E+00
      21    -1     0     0   501   512  0.000000000E+00  0.000000000E+00 -1.115415919E+03  1.115415919E+03  0.000000000E+00  0.00000E+00  9.000E+00
      25     1     1     2     0     0  9.736458917E+01 -4.446081867E+02 -2.576535566E+02  5.377421856E+02  1.250000000E+02  0.00000E+00  9.000E+00
      25     1     1     2     0     0 -7.216324834E+01  4.540913607E+02 -1.626710784E+02  5.034812588E+02  1.250000000E+02  0.00000E+00  9.000E+00
      21     1     1     2   502   512 -2.520134083E+01 -9.483174000E+00 -3.841706373E+02  3.851131220E+02  0.000000000E+00  0.00000E+00  9.000E+00
#rwgt            1           1   2.8738107989163139E-002           7       72476           0
</event>
<event>
      5   9999  3.19816E-02  6.96226E+01 -1.00000E+00  1.31340E-01
      21    -1     0     0   502   511  0.000000000E+00  0.000000000E+00  2.746805922E+02  2.746805922E+02  0.000000000E+00  0.00000E+00  9.000E+00
      21    -1     0     0   501   502  0.000000000E+00  0.000000000E+00 -1.351362383E+03  1.351362383E+03  0.000000000E+00  0.00000E+00  9.000E+00
      25     1     1     2     0     0 -1.337693727E+02  3.746537326E+02 -1.126302193E+03  1.201016775E+03  1.250000000E+02  0.00000E+00  9.000E+00
      25     1     1     2     0     0  1.225286155E+02 -3.059445623E+02  3.990879680E+01  3.547295433E+02  1.250000000E+02  0.00000E+00  9.000E+00
      21     1     1     2   501   511  1.124075719E+01 -6.870917028E+01  9.711605052E+00  7.029665693E+01  1.261592536E-06  0.00000E+00  9.000E+00
#rwgt            1           1   2.7354175279081003E-002           7       72618           0
</event>
<event>
      5   9999  3.19816E-02  2.78771E+01 -1.00000E+00  1.55287E-01
      21    -1     0     0   502   512  0.000000000E+00  0.000000000E+00  5.147344356E+02  5.147344356E+02  0.000000000E+00  0.00000E+00  9.000E+00
      21    -1     0     0   501   502  0.000000000E+00  0.000000000E+00 -1.936797183E+02  1.936797183E+02  0.000000000E+00  0.00000E+00  9.000E+00
      25     1     1     2     0     0  9.252454156E+01 -1.326910300E+02  3.630706470E+02  4.166689273E+02  1.250000000E+02  0.00000E+00  9.000E+00
      25     1     1     2     0     0 -9.906622060E+01  1.055923693E+02 -1.083173808E+02  2.198215629E+02  1.250000000E+02  0.00000E+00  9.000E+00
      21     1     1     2   501   512  6.541679037E+00  2.709866076E+01  6.630145119E+01  7.192366377E+01  9.536743164E-07  0.00000E+00  9.000E+00
#rwgt            1           1   2.6863684307557260E-002           7       72774           0
</event>
<event>
      5   9999  3.19816E-02  1.57569E+02 -1.00000E+00  1.15553E-01
      21    -1     0     0   502   501  0.000000000E+00  0.000000000E+00  1.121825399E+03  1.121825399E+03  0.000000000E+00  0.00000E+00  9.000E+00
       2    -1     0     0   501     0  0.000000000E+00  0.000000000E+00 -7.820600563E+02  7.820600563E+02  0.000000000E+00  0.00000E+00  9.000E+00
      25     1     1     2     0     0 -5.642840173E+02 -1.062628794E+02  8.357925226E+02  1.021705629E+03  1.250000000E+02  0.00000E+00  9.000E+00
      25     1     1     2     0     0  4.165099510E+02  5.157447009E+01 -9.056551324E+01  4.471773445E+02  1.250000000E+02  0.00000E+00  9.000E+00
       2     1     1     2   502     0  1.477740663E+02  5.468840935E+01 -4.054616662E+02  4.350024822E+02  5.394796609E-06  0.00000E+00  9.000E+00
#rwgt            1           1   1.3668745974509679E-002           7       72878           0
</event>
<event>
      5   9999  3.19816E-02  2.58255E+01 -1.00000E+00  1.57701E-01
      21    -1     0     0   502   511  0.000000000E+00  0.000000000E+00  1.607808376E+02  1.607808376E+02  0.000000000E+00  0.00000E+00  9.000E+00
      21    -1     0     0   501   502  0.000000000E+00  0.000000000E+00 -1.445217398E+03  1.445217398E+03  0.000000000E+00  0.00000E+00  9.000E+00
      25     1     1     2     0     0  3.042384318E+02  1.269147679E+02 -1.143145689E+03  1.196275657E+03  1.250000000E+02  0.00000E+00  9.000E+00
      25     1     1     2     0     0 -2.893946468E+02 -1.057813627E+02 -1.680231980E+02  3.725530209E+02  1.250000000E+02  0.00000E+00  9.000E+00
      21     1     1     2   501   511 -1.484378504E+01 -2.113340515E+01  2.673232622E+01  3.716955788E+01  1.305872339E-06  0.00000E+00  9.000E+00
#rwgt            1           1   2.7180300341325847E-002           7       72961           0
</event>
<event>
      5   9999  3.19816E-02  2.16807E+01 -1.00000E+00  1.63529E-01
      21    -1     0     0   512   501  0.000000000E+00  0.000000000E+00  1.424395702E+02  1.424395702E+02  0.000000000E+00  0.00000E+00  9.000E+00
      21    -1     0     0   501   502  0.000000000E+00  0.000000000E+00 -9.420659017E+02  9.420659017E+02  0.000000000E+00  0.00000E+00  9.000E+00
      25     1     1     2     0     0  1.676881677E+02 -7.787911190E+01 -3.487482178E+02  4.140468537E+02  1.250000000E+02  0.00000E+00  9.000E+00
      25     1     1     2     0     0 -1.562755621E+02  9.631291351E+01 -5.372833915E+02  5.813748115E+02  1.250000000E+02  0.00000E+00  9.000E+00
      21     1     1     2   512   502 -1.141260564E+01 -1.843380161E+01  8.640527773E+01  8.908380677E+01  1.651812370E-06  0.00000E+00  9.000E+00
#rwgt            1           1   2.6456269497688759E-002           7       73116           0
</event>
<event>
      5   9999  3.19816E-02  1.70699E+02 -1.00000E+00  1.14211E-01
      21    -1     0     0   502   501  0.000000000E+00  0.000000000E+00  1.806011115E+02  1.806011115E+02  0.000000000E+00  0.00000E+00  9.000E+00
      21    -1     0     0   511   502  0.000000000E+00  0.000000000E+00 -6.684814560E+02  6.684814560E+02  0.000000000E+00  0.00000E+00  9.000E+00
      25     1     1     2     0     0  9.354071165E+01 -1.460890952E+01  3.676756492E+01  1.610594263E+02  1.250000000E+02  0.00000E+00  9.000E+00
      25     1     1     2     0     0 -1.207747826E+02  1.831209494E+02 -2.033087081E+02  3.241593142E+02  1.250000000E+02  0.00000E+00  9.000E+00
      21     1     1     2   511   501  2.723407097E+01 -1.685120399E+02 -3.213392014E+02  3.638638269E+02  6.607249480E-06  0.00000E+00  9.000E+00
#rwgt            1           1   2.5747923045869422E-002           7       73257           0
</event>
<event>
      5   9999  3.19816E-02  8.91486E+01 -1.00000E+00  1.26114E-01
      -4    -1     0     0     0   501  0.000000000E+00  0.000000000E+00  2.014273329E+02  2.014273329E+02  0.000000000E+00  0.00000E+00  9.000E+00
      21    -1     0     0   501   502  0.000000000E+00  0.000000000E+00 -5.206787562E+02  5.206787562E+02  0.000000000E+00  0.00000E+00  9.000E+00
      25     1     1     2     0     0  5.542486847E+01 -9.103250574E+01  1.656854822E+01  1.651010295E+02  1.250000000E+02  0.00000E+00  9.000E+00
      25     1     1     2     0     0 -5.458529520E+01  1.801771236E+02 -1.775125376E+01  2.266791948E+02  1.250000000E+02  0.00000E+00  9.000E+00
      -4     1     1     2     0   502 -8.395732727E-01 -8.914461790E+01 -3.180687177E+02  3.303258648E+02  3.814697266E-06  0.00000E+00  9.000E+00
#rwgt            2           2   1.1048782429478206E-006           7       73294           0
</event>
<event>
      5   9999  3.19816E-02  8.40831E+01 -1.00000E+00  1.27312E-01
      21    -1     0     0   502   501  0.000000000E+00  0.000000000E+00  6.249071109E+02  6.249071109E+02  0.000000000E+00  0.00000E+00  9.000E+00
      21    -1     0     0   501   511  0.000000000E+00  0.000000000E+00 -2.317338268E+03  2.317338268E+03  0.000000000E+00  0.00000E+00  9.000E+00
      25     1     1     2     0     0 -5.016083776E+02 -1.012736548E+03 -1.092935266E+03  1.577142598E+03  1.250000000E+02  0.00000E+00  9.000E+00
      25     1     1     2     0     0  4.623998163E+02  9.383547350E+02 -3.633560621E+02  1.114439692E+03  1.250000000E+02  0.00000E+00  9.000E+00
      21     1     1     2   502   511  3.920856127E+01  7.438181269E+01 -2.361398296E+02  2.506630896E+02  2.697398305E-06  0.00000E+00  9.000E+00
#rwgt            1           1   2.7431919325258021E-002           7       73328           0
</event>
<event>
      5   9999  3.19816E-02  6.88867E+00 -1.00000E+00  2.16542E-01
      21    -1     0     0   502   512  0.000000000E+00  0.000000000E+00  1.218411001E+03  1.218411001E+03  0.000000000E+00  0.00000E+00  9.000E+00
      21    -1     0     0   501   502  0.000000000E+00  0.000000000E+00 -4.809262992E+01  4.809262992E+01  0.000000000E+00  0.00000E+00  9.000E+00
      25     1     1     2     0     0  3.695683021E+01 -8.655588419E+01  9.920534320E+02  1.004317052E+03  1.250000000E+02  0.00000E+00  9.000E+00
      25     1     1     2     0     0 -4.080373539E+01  9.227035378E+01  1.126198150E+02  1.961810025E+02  1.250000000E+02  0.00000E+00  9.000E+00
      21     1     1     2   501   512  3.846905180E+00 -5.714469591E+00  6.564512453E+01  6.600557716E+01  9.536743164E-07  0.00000E+00  9.000E+00
#rwgt            2          11   1.9488675852391371E-003           7       73464           0
</event>
<event>
      5   9999  3.19816E-02  5.43238E+02 -1.00000E+00  9.78394E-02
      21    -1     0     0   502   501  0.000000000E+00  0.000000000E+00  4.007301855E+02  4.007301855E+02  0.000000000E+00  0.00000E+00  9.000E+00
       2    -1     0     0   501     0  0.000000000E+00  0.000000000E+00 -1.237002186E+03  1.237002186E+03  0.000000000E+00  0.00000E+00  9.000E+00
      25     1     1     2     0     0  4.693506239E+02  7.142900255E+01 -1.110156979E+02  5.033305035E+02  1.250000000E+02  0.00000E+00  9.000E+00
      25     1     1     2     0     0 -2.416290668E+01  2.398826153E+02 -6.473074814E+01  2.791819925E+02  1.250000000E+02  0.00000E+00  9.000E+00
       2     1     1     2   502     0 -4.451877172E+02 -3.113116179E+02 -6.605255540E+02  8.552198750E+02  0.000000000E+00  0.00000E+00  9.000E+00
#rwgt            2          13   1.2902410052589399E-003           7       73544           0
</event>
<event>
      5   9999  3.19816E-02  3.38626E+01 -1.00000E+00  1.49474E-01
      21    -1     0     0   502   511  0.000000000E+00  0.000000000E+00  1.008243836E+03  1.008243836E+03  0.000000000E+00  0.00000E+00  9.000E+00
      21    -1     0     0   501   502  0.000000000E+00  0.000000000E+00 -4.381434484E+01  4.381434484E+01  0.000000000E+00  0.00000E+00  9.000E+00
      25     1     1     2     0     0 -5.528417290E+01  1.443775458E+02  3.425670433E+02  3.960787733E+02  1.250000000E+02  0.00000E+00  9.000E+00
      25     1     1     2     0     0  4.748037018E+01 -1.114263950E+02  5.410993197E+02  5.684045222E+02  1.250000000E+02  0.00000E+00  9.000E+00
      21     1     1     2   501   511  7.803802715E+00 -3.295115082E+01  8.076312831E+01  8.757488550E+01  9.536743164E-07  0.00000E+00  9.000E+00
#rwgt            1           1   2.9809067436025658E-002           7       73563           0
</event>
<event>
      5   9999  3.19816E-02  1.71985E+01 -1.00000E+00  1.71965E-01
      -1    -1     0     0     0   501  0.000000000E+00  0.000000000E+00  5.400337474E+02  5.400337474E+02  0.000000000E+00  0.00000E+00  9.000E+00
      21    -1     0     0   501   502  0.000000000E+00  0.000000000E+00 -7.841892405E+02  7.841892405E+02  0.000000000E+00  0.00000E+00  9.000E+00
      25     1     1     2     0     0 -3.121950508E+02  5.176799275E+01 -6.752360136E+02  7.561179464E+02  1.250000000E+02  0.00000E+00  9.000E+00
      25     1     1     2     0     0  3.024415113E+02 -3.760268048E+01  3.325342996E+02  4.680693215E+02  1.250000000E+02  0.00000E+00  9.000E+00
      -1     1     1     2     0   502  9.753539578E+00 -1.416531227E+01  9.854622091E+01  1.000357199E+02  2.336015456E-06  0.00000E+00  9.000E+00
#rwgt            1           1   2.6094011094999623E-002           7       73650           0
</event>
<event>
      5   9999  3.19816E-02  2.42604E+02 -1.00000E+00  1.08678E-01
      21    -1     0     0   511   501  0.000000000E+00  0.000000000E+00  2.836466308E+02  2.836466308E+02  0.000000000E+00  0.00000E+00  9.000E+00
      21    -1     0     0   501   502  0.000000000E+00  0.000000000E+00 -1.221046716E+03  1.221046716E+03  0.000000000E+00  0.00000E+00  9.000E+00
      25     1     1     2     0     0  3.432106330E+02  3.034031353E+02 -3.519772037E+02  5.910667923E+02  1.250000000E+02  0.00000E+00  9.000E+00
      25     1     1     2     0     0 -1.336506094E+02 -1.811685718E+02 -6.173768202E+02  6.689272568E+02  1.250000000E+02  0.00000E+00  9.000E+00
      21     1     1     2   511   502 -2.095600236E+02 -1.222345635E+02  3.195393870E+01  2.446992975E+02  3.354846783E-06  0.00000E+00  9.000E+00
#rwgt            1           1   2.8995080583366192E-002           7       73878           0
</event>
<event>
      5   9999  3.19816E-02  1.56457E+02 -1.00000E+00  1.15673E-01
       2    -1     0     0   502     0  0.000000000E+00  0.000000000E+00  2.028853482E+03  2.028853482E+03  0.000000000E+00  0.00000E+00  9.000E+00
      21    -1     0     0   501   502  0.000000000E+00  0.000000000E+00 -7.983252371E+02  7.983252371E+02  0.000000000E+00  0.00000E+00  9.000E+00
      25     1     1     2     0     0  1.982581897E+02 -2.752103620E+02 -5.686557937E+02  6.738259900E+02  1.250000000E+02  0.00000E+00  9.000E+00
      25     1     1     2     0     0 -4.332142709E+01  2.969678491E+02 -2.163737508E+01  3.258217694E+02  1.250000000E+02  0.00000E+00  9.000E+00
       2     1     1     2   501     0 -1.549367626E+02 -2.175748711E+01  1.820821414E+03  1.827530960E+03  2.157918644E-05  0.00000E+00  9.000E+00
#rwgt            1           1   2.8546896983443652E-002           7       73989           0
</event>
<event>
      5   9999  3.19816E-02  9.21100E+01 -1.00000E+00  1.25455E-01
      21    -1     0     0   511   501  0.000000000E+00  0.000000000E+00  1.971772476E+03  1.971772476E+03  0.000000000E+00  0.00000E+00  9.000E+00
      21    -1     0     0   501   502  0.000000000E+00  0.000000000E+00 -1.620739909E+02  1.620739909E+02  0.000000000E+00  0.00000E+00  9.000E+00
      25     1     1     2     0     0  8.818511124E+01  2.516673360E+01 -1.063853567E+02  1.880234625E+02  1.250000000E+02  0.00000E+00  9.000E+00
      25     1     1     2     0     0 -1.023631454E+02  6.584555143E+01  5.584612196E+02  5.850792971E+02  1.250000000E+02  0.00000E+00  9.000E+00
      21     1     1     2   511   502  1.417803412E+01 -9.101228503E+01  1.357622622E+03  1.360743707E+03  3.051757812E-05  0.00000E+00  9.000E+00
#rwgt            1           1   2.8318343720195861E-002           7       74039           0
</event>
<event>
      5   9999  3.19816E-02  3.09279E+01 -1.00000E+00  1.52127E-01
      21    -1     0     0   502   501  0.000000000E+00  0.000000000E+00  1.606419114E+03  1.606419114E+03  0.000000000E+00  0.00000E+00  9.000E+00
      21    -1     0     0   512   502  0.000000000E+00  0.000000000E+00 -2.736757854E+02  2.736757854E+02  0.000000000E+00  0.00000E+00  9.000E+00
      25     1     1     2     0     0  5.513415519E+02 -3.926579178E+01  2.455154832E+02  6.175938486E+02  1.250000000E+02  0.00000E+00  9.000E+00
      25     1     1     2     0     0 -5.822658375E+02  3.879034412E+01  1.074389687E+03  1.229014400E+03  1.250000000E+02  0.00000E+00  9.000E+00
      21     1     1     2   512   501  3.092428555E+01  4.754476604E-01  1.283815913E+01  3.348665132E+01  7.152557373E-07  0.00000E+00  9.000E+00
#rwgt            1           1   2.9228718690396609E-002           7       74122           0
</event>
<event>
      5   9999  3.19816E-02  1.25401E+02 -1.00000E+00  1.19562E-01
      21    -1     0     0   502   501  0.000000000E+00  0.000000000E+00  3.183797992E+02  3.183797992E+02  0.000000000E+00  0.00000E+00  9.000E+00
       1    -1     0     0   501     0  0.000000000E+00  0.000000000E+00 -3.518242114E+03  3.518242114E+03  0.000000000E+00  0.00000E+00  9.000E+00
      25     1     1     2     0     0  1.654761109E+02 -5.794058090E+02 -8.838792847E+02  1.077014867E+03  1.250000000E+02  0.00000E+00  9.000E+00
      25     1     1     2     0     0 -6.288882851E+01  5.072854299E+02 -9.457405661E+01  5.346613548E+02  1.250000000E+02  0.00000E+00  9.000E+00
       1     1     1     2   502     0 -1.025872824E+02  7.212037907E+01 -2.221408973E+03  2.224945690E+03  5.285799584E-05  0.00000E+00  9.000E+00
#rwgt            2          12   3.9285802035742652E-004           7       74323           0
</event>
<event>
      5   9999  3.19816E-02  4.89018E+01 -1.00000E+00  1.39628E-01
      21    -1     0     0   502   501  0.000000000E+00  0.000000000E+00  6.707569108E+02  6.707569108E+02  0.000000000E+00  0.00000E+00  9.000E+00
      21    -1     0     0   511   502  0.000000000E+00  0.000000000E+00 -2.398999274E+02  2.398999274E+02  0.000000000E+00  0.00000E+00  9.000E+00
      25     1     1     2     0     0 -2.678648999E+00  2.371309562E+02  5.109712752E+02  5.770224516E+02  1.250000000E+02  0.00000E+00  9.000E+00
      25     1     1     2     0     0  5.157888708E+01 -2.367345084E+02 -5.306125823E+01  2.777482784E+02  1.250000000E+02  0.00000E+00  9.000E+00
      21     1     1     2   511   501 -4.890023809E+01 -3.964477732E-01 -2.705303360E+01  5.588610814E+01  5.840038640E-07  0.00000E+00  9.000E+00
#rwgt            1           1   2.8737481002467844E-002           7       74342           0
</event>
<event>
      5   9999  3.19816E-02  4.41727E+01 -1.00000E+00  1.42217E-01
      21    -1     0     0   502   501  0.000000000E+00  0.000000000E+00  8.395722881E+01  8.395722881E+01  0.000000000E+00  0.00000E+00  9.000E+00
      21    -1     0     0   501   512  0.000000000E+00  0.000000000E+00 -1.188020911E+03  1.188020911E+03  0.000000000E+00  0.00000E+00  9.000E+00
      25     1     1     2     0     0  1.884098010E+02 -4.157585251E+01 -3.650934359E+02  4.314452706E+02  1.250000000E+02  0.00000E+00  9.000E+00
      25     1     1     2     0     0 -2.177665893E+02  7.458205762E+01 -2.955472546E+02  3.949151180E+02  1.250000000E+02  0.00000E+00  9.000E+00
      21     1     1     2   502   512  2.935678826E+01 -3.300620511E+01 -4.434229915E+02  4.456177509E+02  0.000000000E+00  0.00000E+00  9.000E+00
#rwgt            1           1   2.7572087243703015E-002           7       74413           0
</event>
<event>
      5   9999  3.19816E-02  1.10930E+02 -1.00000E+00  1.21835E-01
      21    -1     0     0   511   501  0.000000000E+00  0.000000000E+00  1.448758084E+02  1.448758084E+02  0.000000000E+00  0.00000E+00  9.000E+00
      21    -1     0     0   501   502  0.000000000E+00  0.000000000E+00 -1.262917047E+03  1.262917047E+03  0.000000000E+00  0.00000E+00  9.000E+00
      25     1     1     2     0     0  7.581868602E+01 -3.771226134E+02 -5.232231074E+02  6.613299924E+02  1.250000000E+02  0.00000E+00  9.000E+00
      25     1     1     2     0     0 -1.229214128E+02  2.766900946E+02 -5.128747248E+02  6.085495588E+02  1.250000000E+02  0.00000E+00  9.000E+00
      21     1     1     2   511   502  4.710272678E+01  1.004325188E+02 -8.194340676E+01  1.379133047E+02  2.132480600E-06  0.00000E+00  9.000E+00
#rwgt            1           1   2.7395563529386376E-002           7       74537           0
</event>
<event>
      5   9999  3.19816E-02  4.91357E+01 -1.00000E+00  1.39509E-01
      21    -1     0     0   502   501  0.000000000E+00  0.000000000E+00  1.598811849E+02  1.598811849E+02  0.000000000E+00  0.00000E+00  9.000E+00
      21    -1     0     0   501   512  0.000000000E+00  0.000000000E+00 -9.744844392E+02  9.744844392E+02  0.000000000E+00  0.00000E+00  9.000E+00
      25     1     1     2     0     0  4.161843700E-01  2.053920207E+02 -1.845294840E+01  2.411463594E+02  1.250000000E+02  0.00000E+00  9.000E+00
      25     1     1     2     0     0  3.998518898E+01 -1.774268623E+02 -2.087819542E+02  3.037992942E+02  1.250000000E+02  0.00000E+00  9.000E+00
      21     1     1     2   502   512 -4.040137335E+01 -2.796515839E+01 -5.873683517E+02  5.894199705E+02  7.629394531E-06  0.00000E+00  9.000E+00
#rwgt            1           1   2.6187101558443397E-002           7       74646           0
</event>
<event>
      5   9999  3.19816E-02  9.91083E+01 -1.00000E+00  1.24003E-01
      21    -1     0     0   502   501  0.000000000E+00  0.000000000E+00  1.147602142E+03  1.147602142E+03  0.000000000E+00  0.00000E+00  9.000E+00
      21    -1     0     0   511   502  0.000000000E+00  0.000000000E+00 -6.750770512E+01  6.750770512E+01  0.000000000E+00  0.00000E+00  9.000E+00
      25     1     1     2     0     0 -3.876761476E+01 -1.081163455E+02  6.342788904E+02  6.566024543E+02  1.250000000E+02  0.00000E+00  9.000E+00
      25     1     1     2     0     0  1.300682496E+02  1.466735512E+02  3.532372541E+02  4.228858449E+02  1.250000000E+02  0.00000E+00  9.000E+00
      21     1     1     2   511   501 -9.130063479E+01 -3.855720576E+01  9.257829223E+01  1.356215478E+02  0.000000000E+00  0.00000E+00  9.000E+00
#rwgt            1           1   3.2817334794725192E-002           7       74748           0
</event>
<event>
      5   9999  3.19816E-02  1.42830E+02 -1.00000E+00  1.17243E-01
       4    -1     0     0   502     0  0.000000000E+00  0.000000000E+00  3.331456734E+02  3.331456734E+02  0.000000000E+00  0.00000E+00  9.000E+00
      21    -1     0     0   501   502  0.000000000E+00  0.000000000E+00 -1.005565583E+03  1.005565583E+03  0.000000000E+00  0.00000E+00  9.000E+00
      25     1     1     2     0     0  2.504083974E+02  3.242195086E+02 -6.849761296E+02  8.078613453E+02  1.250000000E+02  0.00000E+00  9.000E+00
      25     1     1     2     0     0 -1.298052080E+02 -2.476992780E+02 -1.265924081E+02  3.314437541E+02  1.250000000E+02  0.00000E+00  9.000E+00
       4     1     1     2   501     0 -1.206031893E+02 -7.652023054E+01  1.391486277E+02  1.994061573E+02  2.697398305E-06  0.00000E+00  9.000E+00
#rwgt            1           1   2.8383191441677565E-002           7       74784           0
</event>
<event>
      5   9999  3.19816E-02  1.44806E+01 -1.00000E+00  1.78838E-01
      21    -1     0     0   502   501  0.000000000E+00  0.000000000E+00  3.016066959E+02  3.016066959E+02  0.000000000E+00  0.00000E+00  9.000E+00
      21    -1     0     0   511   502  0.000000000E+00  0.000000000E+00 -1.959277448E+02  1.959277448E+02  0.000000000E+00  0.00000E+00  9.000E+00
      25     1     1     2     0     0 -1.186599176E+02 -8.186790767E+01  1.650997595E+02  2.523201556E+02  1.250000000E+02  0.00000E+00  9.000E+00
      25     1     1     2     0     0  1.327082569E+02  8.537961422E+01 -1.891483073E+01  2.021977517E+02  1.250000000E+02  0.00000E+00  9.000E+00
      21     1     1     2   511   501 -1.404833939E+01 -3.511706549E+00 -4.050597766E+01  4.301653343E+01  6.743495762E-07  0.00000E+00  9.000E+00
#rwgt            1           1   2.6027546343684291E-002           7       74892           0
</event>
<event>
      5   9999  3.19816E-02  7.44692E+01 -1.00000E+00  1.29874E-01
       2    -1     0     0   502     0  0.000000000E+00  0.000000000E+00  2.228711473E+02  2.228711473E+02  0.000000000E+00  0.00000E+00  9.000E+00
      21    -1     0     0   501   502  0.000000000E+00  0.000000000E+00 -4.630948784E+02  4.630948784E+02  0.000000000E+00  0.00000E+00  9.000E+00
      25     1     1     2     0     0 -1.304792598E+02  2.611182308E+01 -1.021843867E+01  1.828553555E+02  1.250000000E+02  0.00000E+00  9.000E+00
      25     1     1     2     0     0  8.044850545E+01 -8.127140637E+01 -3.344057021E+02  3.748722144E+02  1.250000000E+02  0.00000E+00  9.000E+00
       2     1     1     2   501     0  5.003075436E+01  5.515958329E+01  1.044004097E+02  1.282384558E+02  2.336015456E-06  0.00000E+00  9.000E+00
#rwgt            1           1   2.0623460274199902E-002           7       74984           0
</event>
<event>
      5   9999  3.19816E-02  2.56029E+01 -1.00000E+00  1.57980E-01
      21    -1     0     0   511   501  0.000000000E+00  0.000000000E+00  7.172164373E+02  7.172164373E+02  0.000000000E+00  0.00000E+00  9.000E+00
      21    -1     0     0   501   502  0.000000000E+00  0.000000000E+00 -3.127145221E+03  3.127145221E+03  0.000000000E+00  0.00000E+00  9.000E+00
      25     1     1     2     0     0 -8.089038127E+00  1.838029481E+02  2.277259759E+02  3.183285667E+02  1.250000000E+02  0.00000E+00  9.000E+00
      25     1     1     2     0     0 -1.670913415E+01 -1.774345123E+02 -3.077627243E+03  3.085316297E+03  1.250000000E+02  0.00000E+00  9.000E+00
      21     1     1     2   511   502  2.479817227E+01 -6.368435805E+00  4.399724841E+02  4.407167946E+02  5.394796609E-06  0.00000E+00  9.000E+00
#rwgt            1           1   8.2809634200093088E-002           7       75044           0
</event>
<event>
      5   9999  3.19816E-02  8.88677E+01 -1.00000E+00  1.26178E-01
      21    -1     0     0   502   512  0.000000000E+00  0.000000000E+00  2.170842735E+02  2.170842735E+02  0.000000000E+00  0.00000E+00  9.000E+00
      21    -1     0     0   501   502  0.000000000E+00  0.000000000E+00 -3.739929229E+02  3.739929229E+02  0.000000000E+00  0.00000E+00  9.000E+00
      25     1     1     2     0     0 -2.188778893E+02  8.053806964E+01 -1.620976232E+02  3.103136326E+02  1.250000000E+02  0.00000E+00  9.000E+00
      25     1     1     2     0     0  1.330810912E+02 -5.737833838E+01 -3.969579004E+00  1.914252024E+02  1.250000000E+02  0.00000E+00  9.000E+00
      21     1     1     2   501   512  8.579679818E+01 -2.315973126E+01  9.158552837E+00  8.933836142E+01  7.539457465E-07  0.00000E+00  9.000E+00
#rwgt            1           1   2.5726150914836338E-002           7       75306           0
</event>
<event>
      5   9999  3.19816E-02  8.59216E+00 -1.00000E+00  2.03697E-01
      21    -1     0     0   502   501  0.000000000E+00  0.000000000E+00  7.356837386E+02  7.356837386E+02  0.000000000E+00  0.00000E+00  9.000E+00
      21    -1     0     0   511   502  0.000000000E+00  0.000000000E+00 -4.027543355E+02  4.027543355E+02  0.000000000E+00  0.00000E+00  9.000E+00
      25     1     1     2     0     0 -1.103521120E+02 -2.372743416E+02  6.474013371E+02  7.093871954E+02  1.250000000E+02  0.00000E+00  9.000E+00
      25     1     1     2     0     0  1.058114606E+02  2.299799768E+02 -2.982143935E+02  4.106624884E+02  1.250000000E+02  0.00000E+00  9.000E+00
      21     1     1     2   511   501  4.540651431E+00  7.294364733E+00 -1.625754047E+01  1.838839021E+01  2.384185791E-07  0.00000E+00  9.000E+00
#rwgt            1           1   2.9255398081880879E-002           7       75372           0
</event>
<event>
      5   9999  3.19816E-02  4.60189E+01 -1.00000E+00  1.41163E-01
      21    -1     0     0   502   501  0.000000000E+00  0.000000000E+00  4.021403490E+02  4.021403490E+02  0.000000000E+00  0.00000E+00  9.000E+00
      21    -1     0     0   512   502  0.000000000E+00  0.000000000E+00 -5.900863054E+02  5.900863054E+02  0.000000000E+00  0.00000E+00  9.000E+00
      25     1     1     2     0     0 -7.532731115E+01  1.505182731E+02  3.508701873E+02  4.087356636E+02  1.250000000E+02  0.00000E+00  9.000E+00
      25     1     1     2     0     0  5.954903712E+01 -1.072887774E+02 -4.600307662E+02  4.922502163E+02  1.250000000E+02  0.00000E+00  9.000E+00
      21     1     1     2   512   501  1.577827403E+01 -4.322949573E+01 -7.878537753E+01  9.124077457E+01  9.536743164E-07  0.00000E+00  9.000E+00
#rwgt            1           1   2.8870497108176966E-002           7       75612           0
</event>
<event>
      5   9999  3.19816E-02  6.02606E+01 -1.00000E+00  1.34603E-01
      21    -1     0     0   502   511  0.000000000E+00  0.000000000E+00  2.543646172E+02  2.543646172E+02  0.000000000E+00  0.00000E+00  9.000E+00
      21    -1     0     0   501   502  0.000000000E+00  0.000000000E+00 -5.845370511E+02  5.845370511E+02  0.000000000E+00  0.00000E+00  9.000E+00
      25     1     1     2     0     0  1.782220310E+02  4.581922563E+01  1.272892760E+02  2.563007093E+02  1.250000000E+02  0.00000E+00  9.000E+00
      25     1     1     2     0     0 -1.761475019E+02  1.440562363E+01 -4.731613422E+02  5.203288578E+02  1.250000000E+02  0.00000E+00  9.000E+00
      21     1     1     2   501   511 -2.074529070E+00 -6.022484926E+01  1.569963229E+01  6.227210124E+01  1.180111758E-06  0.00000E+00  9.000E+00
#rwgt            1           1   2.9111919775980141E-002           7       75680           0
</event>
<event>
      5   9999  3.19816E-02  2.49732E+02 -1.00000E+00  1.08246E-01
      21    -1     0     0   502   501  0.000000000E+00  0.000000000E+00  4.889867529E+02  4.889867529E+02  0.000000000E+00  0.00000E+00  9.000E+00
       4    -1     0     0   501     0  0.000000000E+00  0.000000000E+00 -3.676411446E+02  3.676411446E+02  0.000000000E+00  0.00000E+00  9.000E+00
      25     1     1     2     0     0  1.425864891E+02 -4.981983525E+00 -1.645283058E+01  1.903980637E+02  1.250000000E+02  0.00000E+00  9.000E+00
      25     1     1     2     0     0 -2.632555209E+01 -2.160367525E+02 -1.442756833E+02  2.894915990E+02  1.250000000E+02  0.00000E+00  9.000E+00
       4     1     1     2   502     0 -1.162609370E+02  2.210187360E+02  2.820741221E+02  3.767382347E+02  3.814697266E-06  0.00000E+00  9.000E+00
#rwgt            1           1   2.5140342265076120E-002           7       75810           0
</event>
<event>
      5   9999  3.19816E-02  4.54519E+01 -1.00000E+00  1.41481E-01
      21    -1     0     0   502   511  0.000000000E+00  0.000000000E+00  1.601328187E+02  1.601328187E+02  0.000000000E+00  0.00000E+00  9.000E+00
      21    -1     0     0   501   502  0.000000000E+00  0.000000000E+00 -8.266115256E+02  8.266115256E+02  0.000000000E+00  0.00000E+00  9.000E+00
      25     1     1     2     0     0  2.671330575E+02  5.449247918E+01 -2.339089233E+02  3.803523170E+02  1.250000000E+02  0.00000E+00  9.000E+00
      25     1     1     2     0     0 -2.243301322E+02 -6.978255943E+01 -4.748371333E+02  5.443242756E+02  1.250000000E+02  0.00000E+00  9.000E+00
      21     1     1     2   501   511 -4.280292525E+01  1.529008025E+01  4.226734968E+01  6.206775180E+01  6.743495762E-07  0.00000E+00  9.000E+00
#rwgt            1           1   2.7262270088654984E-002           7       75847           0
</event>
<event>
      5   9999  3.19816E-02  2.05686E+02 -1.00000E+00  1.11207E-01
      21    -1     0     0   512   501  0.000000000E+00  0.000000000E+00  6.949801013E+02  6.949801013E+02  0.000000000E+00  0.00000E+00  9.000E+00
      21    -1     0     0   501   502  0.000000000E+00  0.000000000E+00 -3.785626770E+02  3.785626770E+02  0.000000000E+00  0.00000E+00  9.000E+00
      25     1     1     2     0     0 -8.179503692E+01  1.814746115E+02  4.273658455E+02  4.877397140E+02  1.250000000E+02  0.00000E+00  9.000E+00
      25     1     1     2     0     0 -5.747102452E+01 -3.010846613E+01 -2.840003298E+02  3.170025642E+02  1.250000000E+02  0.00000E+00  9.000E+00
      21     1     1     2   512   502  1.392660614E+02 -1.513661454E+02  1.730519085E+02  2.688005001E+02  3.303624740E-06  0.00000E+00  9.000E+00
#rwgt            1           1   2.5748442671925394E-002           7       75953           0
</event>
<event>
      5   9999  3.19816E-02  1.13243E+02 -1.00000E+00  1.21446E-01
      21    -1     0     0   511   501  0.000000000E+00  0.000000000E+00  1.181194891E+02  1.181194891E+02  0.000000000E+00  0.00000E+00  9.000E+00
      21    -1     0     0   501   502  0.000000000E+00  0.000000000E+00 -1.752889491E+03  1.752889491E+03  0.000000000E+00  0.00000E+00  9.000E+00
      25     1     1     2     0     0 -1.763677055E+02  3.797696463E+02 -1.008229069E+03  1.098854588E+03  1.250000000E+02  0.00000E+00  9.000E+00
      25     1     1     2     0     0  1.652975523E+02 -2.670690241E+02 -4.714606258E+02  5.801286634E+02  1.250000000E+02  0.00000E+00  9.000E+00
      21     1     1     2   511   502  1.107015318E+01 -1.127006222E+02 -1.550803077E+02  1.920257284E+02  1.907348633E-06  0.00000E+00  9.000E+00
#rwgt            1           1   3.0090985767644806E-002           7       76021           0
</event>
<event>
      5   9999  3.19816E-02  3.23318E+02 -1.00000E+00  1.04546E-01
      21    -1     0     0   502   501  0.000000000E+00  0.000000000E+00  1.361893530E+03  1.361893530E+03  0.000000000E+00  0.00000E+00  9.000E+00
       2    -1     0     0   501     0  0.000000000E+00  0.000000000E+00 -5.612417870E+02  5.612417870E+02  0.000000000E+00  0.00000E+00  9.000E+00
      25     1     1     2     0     0 -4.775945427E+02  1.163105391E+00  3.405746551E+02  5.997616157E+02  1.250000000E+02  0.00000E+00  9.000E+00
      25     1     1     2     0     0  7.394548757E+02 -1.908041325E+02  5.918606253E+02  9.742298137E+02  1.250000000E+02  0.00000E+00  9.000E+00
       2     1     1     2   502     0 -2.618603330E+02  1.896410271E+02 -1.317835377E+02  3.491438872E+02  4.264961200E-06  0.00000E+00  9.000E+00
#rwgt            1           1   2.3679999774141581E-002           7       76088           0
</event>
<event>
      5   9999  3.19816E-02  7.73642E+01 -1.00000E+00  1.29058E-01
      21    -1     0     0   511   501  0.000000000E+00  0.000000000E+00  8.359892141E+02  8.359892141E+02  0.000000000E+00  0.00000E+00  9.000E+00
      21    -1     0     0   501   502  0.000000000E+00  0.000000000E+00 -1.559052119E+02  1.559052119E+02  0.000000000E+00  0.00000E+00  9.000E+00
      25     1     1     2     0     0 -1.152242281E+01  7.306846326E+01  6.826622877E+02  6.979430962E+02  1.250000000E+02  0.00000E+00  9.000E+00
      25     1     1     2     0     0  3.331217450E+01  1.163818205E+00 -1.042833418E+02  1.661657931E+02  1.250000000E+02  0.00000E+00  9.000E+00
      21     1     1     2   511   502 -2.178975169E+01 -7.423228147E+01  1.017050564E+02  1.277855367E+02  2.697398305E-06  0.00000E+00  9.000E+00
#rwgt            1           1   3.0149501614069450E-002           7       76142           0
</event>
<event>
      5   9999  3.19816E-02  5.71842E+01 -1.00000E+00  1.35828E-01
       2    -1     0     0   502     0  0.000000000E+00  0.000000000E+00  1.724479371E+03  1.724479371E+03  0.000000000E+00  0.00000E+00  9.000E+00
      21    -1     0     0   501   502  0.000000000E+00  0.000000000E+00 -8.014112565E+02  8.014112565E+02  0.000000000E+00  0.00000E+00  9.000E+00
      25     1     1     2     0     0  1.050939566E+02 -3.268074738E+02 -1.551298708E+01  3.656685896E+02  1.250000000E+02  0.00000E+00  9.000E+00
      25     1     1     2     0     0 -1.421919558E+02  3.703249304E+02 -5.394035079E+02  6.811315957E+02  1.250000000E+02  0.00000E+00  9.000E+00
       2     1     1     2   501     0  3.709799918E+01 -4.351745663E+01  1.477984610E+03  1.479090443E+03  2.157918644E-05  0.00000E+00  9.000E+00
#rwgt            1           1   3.3975619624563892E-002           7       76273           0
</event>
<event>
      5   9999  3.19816E-02  9.43261E+01 -1.00000E+00  1.24980E-01
       2    -1     0     0   502     0  0.000000000E+00  0.000000000E+00  1.936158170E+03  1.936158170E+03  0.000000000E+00  0.00000E+00  9.000E+00
      21    -1     0     0   501   502  0.000000000E+00  0.000000000E+00 -1.575394959E+02  1.575394959E+02  0.000000000E+00  0.00000E+00  9.000E+00
      25     1     1     2     0     0 -4.692657743E+01  1.775078828E+02 -4.684540272E+01  2.270036208E+02  1.250000000E+02  0.00000E+00  9.000E+00
      25     1     1     2     0     0  1.211276066E+02 -2.357454382E+02  1.278262279E+03  1.311421848E+03  1.250000000E+02  0.00000E+00  9.000E+00
       2     1     1     2   501     0 -7.420102915E+01  5.823755547E+01  5.472017980E+02  5.552721975E+02  0.000000000E+00  0.00000E+00  9.000E+00
#rwgt            2          18   7.3750295658266238E-004           7       76351           0
</event>
<event>
      5   9999  3.19816E-02  7.97503E+01 -1.00000E+00  1.28415E-01
      21    -1     0     0   502   501  0.000000000E+00  0.000000000E+00  8.996746264E+01  8.996746264E+01  0.000000000E+00  0.00000E+00  9.000E+00
      21    -1     0     0   501   511  0.000000000E+00  0.000000000E+00 -8.427574180E+02  8.427574180E+02  0.000000000E+00  0.00000E+00  9.000E+00
      25     1     1     2     0     0 -1.420984272E+02 -1.158955539E+01 -3.956251478E+02  4.387146434E+02  1.250000000E+02  0.00000E+00  9.000E+00
      25     1     1     2     0     0  1.660498922E+02 -6.447905430E+01 -1.305415201E+02  2.537640708E+02  1.250000000E+02  0.00000E+00  9.000E+00
      21     1     1     2   502   511 -2.395146497E+01  7.606860969E+01 -2.266232875E+02  2.402461664E+02  3.814697266E-06  0.00000E+00  9.000E+00
#rwgt            1           1   2.6486335303152926E-002           7       76370           0
</event>
<event>
      5   9999  3.19816E-02  5.51020E+01 -1.00000E+00  1.36710E-01
       2    -1     0     0   502     0  0.000000000E+00  0.000000000E+00  2.223150156E+02  2.223150156E+02  0.000000000E+00  0.00000E+00  9.000E+00
      21    -1     0     0   501   502  0.000000000E+00  0.000000000E+00 -2.067981480E+03  2.067981480E+03  0.000000000E+00  0.00000E+00  9.000E+00
      25     1     1     2     0     0  1.460089657E+02 -1.546535927E+02 -1.632577014E+03  1.651111462E+03  1.250000000E+02  0.00000E+00  9.000E+00
      25     1     1     2     0     0 -1.997630775E+02  1.667667747E+02 -3.720662781E+02  4.709296758E+02  1.250000000E+02  0.00000E+00  9.000E+00
       2     1     1     2   501     0  5.375411182E+01 -1.211318197E+01  1.589768278E+02  1.682553580E+02  1.907348633E-06  0.00000E+00  9.000E+00
#rwgt            2          18   2.3865688810677218E-003           7       76501           0
</event>
<event>
      5   9999  3.19816E-02  1.06210E+02 -1.00000E+00  1.22662E-01
      21    -1     0     0   502   501  0.000000000E+00  0.000000000E+00  1.307378591E+02  1.307378591E+02  0.000000000E+00  0.00000E+00  9.000E+00
      21    -1     0     0   511   502  0.000000000E+00  0.000000000E+00 -7.966753541E+02  7.966753541E+02  0.000000000E+00  0.00000E+00  9.000E+00
      25     1     1     2     0     0  8.211677763E+01  2.441183329E+02 -1.558795225E+02  3.259759978E+02  1.250000000E+02  0.00000E+00  9.000E+00
      25     1     1     2     0     0 -1.876475473E+01 -1.588715715E+02 -3.995106951E+02  4.481362379E+02  1.250000000E+02  0.00000E+00  9.000E+00
      21     1     1     2   511   501 -6.335202290E+01 -8.524676143E+01 -1.105472775E+02  1.533009775E+02  2.697398305E-06  0.00000E+00  9.000E+00
#rwgt            1           1   2.2024361996701151E-002           7       76535           0
</event>
<event>
      5   9999  3.19816E-02  3.29444E+01 -1.00000E+00  1.50268E-01
      21    -1     0     0   502   512  0.000000000E+00  0.000000000E+00  4.345112381E+02  4.345112381E+02  0.000000000E+00  0.00000E+00  9.000E+00
      21    -1     0     0   501   502  0.000000000E+00  0.000000000E+00 -4.475426556E+02  4.475426556E+02  0.000000000E+00  0.00000E+00  9.000E+00
      25     1     1     2     0     0 -2.434052671E+02 -2.784286902E+02 -2.004271945E+02  4.388219683E+02  1.250000000E+02  0.00000E+00  9.000E+00
      25     1     1     2     0     0  2.113707808E+02  2.707394540E+02  1.549852779E+02  3.970175000E+02  1.250000000E+02  0.00000E+00  9.000E+00
      21     1     1     2   501   512  3.203448638E+01  7.689236214E+00  3.241049904E+01  4.621442544E+01  8.259061849E-07  0.00000E+00  9.000E+00
#rwgt            1           1   2.9386213897564663E-002           7       76573           0
</event>
<event>
      5   9999  3.19816E-02  1.82805E+02 -1.00000E+00  1.13088E-01
      21    -1     0     0   502   501  0.000000000E+00  0.000000000E+00  1.140719324E+03  1.140719324E+03  0.000000000E+00  0.00000E+00  9.000E+00
      21    -1     0     0   511   502  0.000000000E+00  0.000000000E+00 -5.004305701E+02  5.004305701E+02  0.000000000E+00  0.00000E+00  9.000E+00
      25     1     1     2     0     0 -4.528510641E+02 -4.033441211E+01  8.829140124E+02  1.000931119E+03  1.250000000E+02  0.00000E+00  9.000E+00
      25     1     1     2     0     0  3.016049160E+02  1.430092548E+02 -2.688198361E+01  3.574420419E+02  1.250000000E+02  0.00000E+00  9.000E+00
      21     1     1     2   511   501  1.512461482E+02 -1.026748427E+02 -2.157432746E+02  2.827767338E+02  3.814697266E-06  0.00000E+00  9.000E+00
#rwgt            1           1   2.9955146958088021E-002           7       76728           0
</event>
<event>
      5   9999  3.19816E-02  1.00263E+02 -1.00000E+00  1.23777E-01
      21    -1     0     0   502   501  0.000000000E+00  0.000000000E+00  1.018827330E+02  1.018827330E+02  0.000000000E+00  0.00000E+00  9.000E+00
       2    -1     0     0   501     0  0.000000000E+00  0.000000000E+00 -2.829457635E+03  2.829457635E+03  0.000000000E+00  0.00000E+00  9.000E+00
      25     1     1     2     0     0 -2.900145492E+01  1.544090736E+02 -9.615206920E+02  9.822577501E+02  1.250000000E+02  0.00000E+00  9.000E+00
      25     1     1     2     0     0 -1.698491899E+01 -2.435039060E+02 -1.189439365E+02  2.989235684E+02  1.250000000E+02  0.00000E+00  9.000E+00
       2     1     1     2   502     0  4.598637392E+01  8.909483237E+01 -1.647110274E+03  1.650159050E+03  0.000000000E+00  0.00000E+00  9.000E+00
#rwgt            2          13   1.0687370281283943E-003           7       76796           0
</event>
<event>
      5   9999  3.19816E-02  1.26122E+02 -1.00000E+00  1.19458E-01
      21    -1     0     0   511   501  0.000000000E+00  0.000000000E+00  4.077501092E+02  4.077501092E+02  0.000000000E+00  0.00000E+00  9.000E+00
      21    -1     0     0   501   502  0.000000000E+00  0.000000000E+00 -1.391652301E+03  1.391652301E+03  0.000000000E+00  0.00000E+00  9.000E+00
      25     1     1     2     0     0  4.255360400E+01  3.149248866E+02 -1.269111187E+03  1.314251383E+03  1.250000000E+02  0.00000E+00  9.000E+00
      25     1     1     2     0     0  4.722812418E+01 -2.263470117E+02  1.615681291E+02  3.085331842E+02  1.250000000E+02  0.00000E+00  9.000E+00
      21     1     1     2   511   502 -8.978172818E+01 -8.857787492E+01  1.236408661E+02  1.766178428E+02  2.336015456E-06  0.00000E+00  9.000E+00
#rwgt            1           1   2.9869479430533967E-002           7       76815           0
</event>
<event>
      5   9999  3.19816E-02  8.16091E+01 -1.00000E+00  1.27932E-01
      21    -1     0     0   502   501  0.000000000E+00  0.000000000E+00  3.102399440E+02  3.102399440E+02  0.000000000E+00  0.00000E+00  9.000E+00
      21    -1     0     0   512   502  0.000000000E+00  0.000000000E+00 -7.229431001E+02  7.229431001E+02  0.000000000E+00  0.00000E+00  9.000E+00
      25     1     1     2     0     0  2.265923081E+01 -2.521084198E+01 -4.721372456E+02  4.895790089E+02  1.250000000E+02  0.00000E+00  9.000E+00
      25     1     1     2     0     0  8.554052411E+00  1.006149382E+02  2.719946660E+02  3.159155519E+02  1.250000000E+02  0.00000E+00  9.000E+00
      21     1     1     2   512   501 -3.121328322E+01 -7.540409618E+01 -2.125605765E+02  2.276884834E+02  2.697398305E-06  0.00000E+00  9.000E+00
#rwgt            1           1   3.0908188826149603E-002           7       76880           0
</event>
<event>
      5   9999  3.19816E-02  7.50378E+01 -1.00000E+00  1.29710E-01
       2    -1     0     0   502     0  0.000000000E+00  0.000000000E+00  1.357832906E+03  1.357832906E+03  0.000000000E+00  0.00000E+00  9.000E+00
      21    -1     0     0   501   502  0.000000000E+00  0.000000000E+00 -2.051080601E+02  2.051080601E+02  0.000000000E+00  0.00000E+00  9.000E+00
      25     1     1     2     0     0 -7.735245543E+01 -4.123902631E+01 -9.341672557E+01  1.789853186E+02  1.250000000E+02  0.00000E+00  9.000E+00
      25     1     1     2     0     0  1.111438946E+02 -2.575951959E+01  3.795604816E+01  1.734421510E+02  1.250000000E+02  0.00000E+00  9.000E+00
       2     1     1     2   501     0 -3.379143915E+01  6.699854591E+01  1.208185524E+03  1.210513497E+03  1.525878906E-05  0.00000E+00  9.000E+00
#rwgt            1           1   3.4119507103341981E-002           7       76966           0
</event>
<event>
      5   9999  3.19816E-02  1.52548E+02 -1.00000E+00  1.16104E-01
      21    -1     0     0   502   501  0.000000000E+00  0.000000000E+00  9.949392178E+02  9.949392178E+02  0.000000000E+00  0.00000E+00  9.000E+00
      21    -1     0     0   501   511  0.000000000E+00  0.000000000E+00 -5.448197174E+02  5.448197174E+02  0.000000000E+00  0.00000E+00  9.000E+00
      25     1     1     2     0     0 -2.000229876E+02  4.681977787E+02 -1.628140832E+02  5.489551724E+02  1.250000000E+02  0.00000E+00  9.000E+00
      25     1     1     2     0     0  6.920235577E+01 -5.466630803E+02  6.190424440E+02  8.381336628E+02  1.250000000E+02  0.00000E+00  9.000E+00
      21     1     1     2   502   511  1.308206318E+02  7.846530151E+01 -6.108860448E+00  1.526701000E+02  3.716577832E-06  0.00000E+00  9.000E+00
#rwgt            1           1   2.2773209423914600E-002           7       77031           0
</event>
<event>
      5   9999  3.19816E-02  7.76497E+01 -1.00000E+00  1.28979E-01
      21    -1     0     0   512   501  0.000000000E+00  0.000000000E+00  3.924553991E+03  3.924553991E+03  0.000000000E+00  0.00000E+00  9.000E+00
      21    -1     0     0   501   502  0.000000000E+00  0.000000000E+00 -4.394934608E+02  4.394934608E+02  0.000000000E+00  0.00000E+00  9.000E+00
      25     1     1     2     0     0 -4.010548378E+02 -5.075680228E+01  3.258257783E+02  5.340493177E+02  1.250000000E+02  0.00000E+00  9.000E+00
      25     1     1     2     0     0  4.769714969E+02  3.444295977E+01 -1.525634179E+02  5.172897861E+02  1.250000000E+02  0.00000E+00  9.000E+00
      21     1     1     2   512   502 -7.591665911E+01  1.631384251E+01  3.311798170E+03  3.312708348E+03  4.315837288E-05  0.00000E+00  9.000E+00
#rwgt            2          11   2.6791691212187086E-004           7       77150           0
</event>
<event>
      5   9999  3.19816E-02  2.08607E+02 -1.00000E+00  1.10986E-01
       1    -1     0     0   502     0  0.000000000E+00  0.000000000E+00  1.752882726E+03  1.752882726E+03  0.000000000E+00  0.00000E+00  9.000E+00
      21    -1     0     0   501   502  0.000000000E+00  0.000000000E+00 -3.617219118E+02  3.617219118E+02  0.000000000E+00  0.00000E+00  9.000E+00
      25     1     1     2     0     0 -1.664032572E+02 -2.634896362E+02 -7.431134425E+00  3.358527269E+02  1.250000000E+02  0.00000E+00  9.000E+00
      25     1     1     2     0     0  4.088415149E+01  4.301090367E+02  9.643233675E+01  4.599885791E+02  1.250000000E+02  0.00000E+00  9.000E+00
       1     1     1     2   501     0  1.255191057E+02 -1.666194006E+02  1.302159612E+03  1.318763332E+03  1.525878906E-05  0.00000E+00  9.000E+00
#rwgt            1           1   2.7921810616194281E-002           7       77215           0
</event>
<event>
      5   9999  3.19816E-02  8.14918E+01 -1.00000E+00  1.27962E-01
       1    -1     0     0   502     0  0.000000000E+00  0.000000000E+00  2.654763480E+03  2.654763480E+03  0.000000000E+00  0.00000E+00  9.000E+00
      21    -1     0     0   501   502  0.000000000E+00  0.000000000E+00 -1.839259762E+02  1.839259762E+02  0.000000000E+00  0.00000E+00  9.000E+00
      25     1     1     2     0     0  4.619739264E+02  1.252896923E+02  8.551905492E+02  9.879743373E+02  1.250000000E+02  0.00000E+00  9.000E+00
      25     1     1     2     0     0 -3.873745663E+02 -9.248954107E+01  2.581938636E+02  4.908181344E+02  1.250000000E+02  0.00000E+00  9.000E+00
       1     1     1     2   501     0 -7.459936013E+01 -3.280015126E+01  1.357453091E+03  1.359896985E+03  0.000000000E+00  0.00000E+00  9.000E+00
#rwgt            1           1   2.7319369150939438E-002           7       77286           0
</event>
<event>
      5   9999  3.19816E-02  5.42181E+01 -1.00000E+00  1.37098E-01
      -1    -1     0     0     0   501  0.000000000E+00  0.000000000E+00  4.538203477E+02  4.538203477E+02  0.000000000E+00  0.00000E+00  9.000E+00
      21    -1     0     0   501   502  0.000000000E+00  0.000000000E+00 -1.854321938E+02  1.854321938E+02  0.000000000E+00  0.00000E+00  9.000E+00
      25     1     1     2     0     0 -2.851408858E+01 -4.248276169E+01  3.923578357E+02  4.149548283E+02  1.250000000E+02  0.00000E+00  9.000E+00
      25     1     1     2     0     0  4.336196888E+01 -9.662639253E+00 -9.027612294E+01  1.604630964E+02  1.250000000E+02  0.00000E+00  9.000E+00
      -1     1     1     2     0   502 -1.484788030E+01  5.214540094E+01 -3.369355889E+01  6.383461678E+01  1.507891493E-06  0.00000E+00  9.000E+00
#rwgt            1           1   2.4435980390060168E-002           7       77375           0
</event>
<event>
      5   9999  3.19816E-02  3.69780E+01 -1.00000E+00  1.46988E-01
      21    -1     0     0   502   501  0.000000000E+00  0.000000000E+00  1.828662854E+03  1.828662854E+03  0.000000000E+00  0.00000E+00  9.000E+00
      21    -1     0     0   511   502  0.000000000E+00  0.000000000E+00 -1.204087505E+02  1.204087505E+02  0.000000000E+00  0.00000E+00  9.000E+00
      25     1     1     2     0     0 -2.670414596E+02 -3.731429212E+01  1.350583497E+03  1.382897060E+03  1.250000000E+02  0.00000E+00  9.000E+00
      25     1     1     2     0     0  2.565079052E+02  1.868275463E+00  4.115675863E+02  5.008120146E+02  1.250000000E+02  0.00000E+00  9.000E+00
      21     1     1     2   511   501  1.053355439E+01  3.544601666E+01 -5.389697959E+01  6.536252959E+01  1.168007728E-06  0.00000E+00  9.000E+00
#rwgt            1           1   3.2237681928996932E-002           7       77487           0
</event>
<event>
      5   9999  3.19816E-02  1.58049E+02 -1.00000E+00  1.15501E-01
      21    -1     0     0   502   501  0.000000000E+00  0.000000000E+00  1.092722467E+03  1.092722467E+03  0.000000000E+00  0.00000E+00  9.000E+00
      21    -1     0     0   512   502  0.000000000E+00  0.000000000E+00 -4.643343267E+02  4.643343267E+02  0.000000000E+00  0.00000E+00  9.000E+00
      25     1     1     2     0     0  2.956401939E+02 -3.313269302E+02  8.404027898E+02  9.586879096E+02  1.250000000E+02  0.00000E+00  9.000E+00
      25     1     1     2     0     0 -2.285400055E+02  1.882294197E+02 -2.800686641E+02  4.262913384E+02  1.250000000E+02  0.00000E+00  9.000E+00
      21     1     1     2   512   501 -6.710018841E+01  1.430975105E+02  6.805401448E+01  1.720775455E+02  2.861022949E-06  0.00000E+00  9.000E+00
#rwgt            1           1   2.1460503147312050E-002           7       77572           0
</event>
<event>
      5   9999  3.19816E-02  9.33913E+01 -1.00000E+00  1.25178E-01
      21    -1     0     0   511   501  0.000000000E+00  0.000000000E+00  1.760790294E+03  1.760790294E+03  0.000000000E+00  0.00000E+00  9.000E+00
      21    -1     0     0   501   502  0.000000000E+00  0.000000000E+00 -1.307566391E+02  1.307566391E+02  0.000000000E+00  0.00000E+00  9.000E+00
      25     1     1     2     0     0  2.318138676E+02  2.461033983E+02  9.111120873E+02  9.798238553E+02  1.250000000E+02  0.00000E+00  9.000E+00
      25     1     1     2     0     0 -3.235483227E+02 -2.285900128E+02  3.899676338E+02  5.697689589E+02  1.250000000E+02  0.00000E+00  9.000E+00
      21     1     1     2   511   502  9.173445511E+01 -1.751338550E+01  3.289539338E+02  3.419541190E+02  3.814697266E-06  0.00000E+00  9.000E+00
#rwgt            2          11   2.8803016048013215E-003           7       77736           0
</event>
<event>
      5   9999  3.19816E-02  8.09870E+01 -1.00000E+00  1.28092E-01
      21    -1     0     0   512   501  0.000000000E+00  0.000000000E+00  1.260710614E+03  1.260710614E+03  0.000000000E+00  0.00000E+00  9.000E+00
      21    -1     0     0   501   502  0.000000000E+00  0.000000000E+00 -1.432530842E+02  1.432530842E+02  0.000000000E+00  0.00000E+00  9.000E+00
      25     1     1     2     0     0 -2.123782810E+02 -2.474798695E+02  3.844238276E+02  5.193818434E+02  1.250000000E+02  0.00000E+00  9.000E+00
      25     1     1     2     0     0  2.892860238E+02  2.221009901E+02  4.621435849E+02  6.018446198E+02  1.250000000E+02  0.00000E+00  9.000E+00
      21     1     1     2   512   502 -7.690774273E+01  2.537887939E+01  2.708901175E+02  2.827372352E+02  0.000000000E+00  0.00000E+00  9.000E+00
#rwgt            1           1   2.7913878064452443E-002           7       77771           0
</event>
<event>
      5   9999  3.19816E-02  7.73214E+01 -1.00000E+00  1.29069E-01
      21    -1     0     0   502   501  0.000000000E+00  0.000000000E+00  1.174357248E+03  1.174357248E+03  0.000000000E+00  0.00000E+00  9.000E+00
      -2    -1     0     0     0   502  0.000000000E+00  0.000000000E+00 -6.721320375E+02  6.721320375E+02  0.000000000E+00  0.00000E+00  9.000E+00
      25     1     1     2     0     0 -3.577809485E+01  4.161270182E+02  2.150065470E+02  4.861014118E+02  1.250000000E+02  0.00000E+00  9.000E+00
      25     1     1     2     0     0  5.362694733E+01 -4.913600989E+02  7.413385323E+02  8.997324134E+02  1.250000000E+02  0.00000E+00  9.000E+00
      -2     1     1     2     0   501 -1.784885248E+01  7.523308072E+01 -4.541198687E+02  4.606554604E+02  7.629394531E-06  0.00000E+00  9.000E+00
#rwgt            1           1   2.6062974013737972E-002           7       77875           0
</event>
<event>
      5   9999  3.19816E-02  2.66357E+01 -1.00000E+00  1.56717E-01
      21    -1     0     0   502   501  0.000000000E+00  0.000000000E+00  5.263419597E+02  5.263419597E+02  0.000000000E+00  0.00000E+00  9.000E+00
      21    -1     0     0   501   511  0.000000000E+00  0.000000000E+00 -4.533456699E+02  4.533456699E+02  0.000000000E+00  0.00000E+00  9.000E+00
      25     1     1     2     0     0  2.226424586E+02  2.735158942E+02  3.464016404E+02  5.099016623E+02  1.250000000E+02  0.00000E+00  9.000E+00
      25     1     1     2     0     0 -2.184072403E+02 -2.472191054E+02 -2.382688439E+02  4.256947858E+02  1.250000000E+02  0.00000E+00  9.000E+00
      21     1     1     2   502   511 -4.235218327E+00 -2.629678876E+01 -3.513650679E+01  4.409118146E+01  4.768371582E-07  0.00000E+00  9.000E+00
#rwgt            1           1   2.7777850270227802E-002           7       77960           0
</event>
<event>
      5   9999  3.19816E-02  6.73264E+01 -1.00000E+00  1.32083E-01
      -2    -1     0     0     0   501  0.000000000E+00  0.000000000E+00  3.325564082E+02  3.325564082E+02  0.000000000E+00  0.00000E+00  9.000E+00
      21    -1     0     0   501   502  0.000000000E+00  0.000000000E+00 -2.219755719E+02  2.219755719E+02  0.000000000E+00  0.00000E+00  9.000E+00
      25     1     1     2     0     0  1.344139931E+02  3.858627220E+01  2.307664394E+02  2.973788350E+02  1.250000000E+02  0.00000E+00  9.000E+00
      25     1     1     2     0     0 -6.833962570E+01 -5.150987502E+01 -4.910308959E+01  1.592472451E+02  1.250000000E+02  0.00000E+00  9.000E+00
      -2     1     1     2     0   502 -6.607436736E+01  1.292360282E+01 -7.108251352E+01  9.790590002E+01  1.651812370E-06  0.00000E+00  9.000E+00
#rwgt            1           1   2.6566641786757904E-002           7       78084           0
</event>
<event>
      5   9999  3.19816E-02  1.39087E+02 -1.00000E+00  1.17709E-01
      21    -1     0     0   502   501  0.000000000E+00  0.000000000E+00  8.330664749E+02  8.330664749E+02  0.000000000E+00  0.00000E+00  9.000E+00
      21    -1     0     0   511   502  0.000000000E+00  0.000000000E+00 -2.330096854E+02  2.330096854E+02  0.000000000E+00  0.00000E+00  9.000E+00
      25     1     1     2     0     0  2.651895589E+02  1.505040401E+02  2.140349904E+02  3.929541263E+02  1.250000000E+02  0.00000E+00  9.000E+00
      25     1     1     2     0     0 -2.413790548E+02 -2.875380472E+02  3.527885684E+02  5.301195626E+02  1.250000000E+02  0.00000E+00  9.000E+00
      21     1     1     2   511   501 -2.381050415E+01  1.370340071E+02  3.323323078E+01  1.430024715E+02  2.523185073E-06  0.00000E+00  9.000E+00
#rwgt            1           1   3.0206404488336051E-002           7       78145           0
</event>
<event>
      5   9999  3.19816E-02  4.92671E+01 -1.00000E+00  1.39442E-01
      21    -1     0     0   502   512  0.000000000E+00  0.000000000E+00  1.234346988E+03  1.234346988E+03  0.000000000E+00  0.00000E+00  9.000E+00
      21    -1     0     0   501   502  0.000000000E+00  0.000000000E+00 -1.392205931E+02  1.392205931E+02  0.000000000E+00  0.00000E+00  9.000E+00
      25     1     1     2     0     0  3.083058695E+02  4.733012976E+01  3.262010830E+02  4.683212540E+02  1.250000000E+02  0.00000E+00  9.000E+00
      25     1     1     2     0     0 -2.591605729E+02 -4.386831316E+01  2.491200211E+02  3.831114934E+02  1.250000000E+02  0.00000E+00  9.000E+00
      21     1     1     2   501   512 -4.914529659E+01 -3.461816592E+00  5.198052908E+02  5.221348339E+02  0.000000000E+00  0.00000E+00  9.000E+00
#rwgt            1           1   2.7443555706127509E-002           7       78199           0
</event>
<event>
      5   9999  3.19816E-02  1.08897E+03 -1.00000E+00  9.01113E-02
      21    -1     0     0   511   501  0.000000000E+00  0.000000000E+00  2.953301948E+03  2.953301948E+03  0.000000000E+00  0.00000E+00  9.000E+00
      21    -1     0     0   501   502  0.000000000E+00  0.000000000E+00 -1.094439734E+03  1.094439734E+03  0.000000000E+00  0.00000E+00  9.000E+00
      25     1     1     2     0     0  4.659978760E+02  1.972727691E+02  1.419151565E+03  1.511848779E+03  1.250000000E+02  0.00000E+00  9.000E+00
      25     1     1     2     0     0  4.249829515E+02  4.288411780E+02 -7.180725222E+02  9.464504277E+02  1.250000000E+02  0.00000E+00  9.000E+00
      21     1     1     2   511   502 -8.909808274E+02 -6.261139471E+02  1.157783172E+03  1.589442475E+03  4.315837288E-05  0.00000E+00  9.000E+00
#rwgt            2          11   3.3545633386624236E-004           7       78338           0
</event>
<event>
      5   9999  3.19816E-02  1.84911E+01 -1.00000E+00  1.69230E-01
      21    -1     0     0   502   512  0.000000000E+00  0.000000000E+00  1.060523038E+03  1.060523038E+03  0.000000000E+00  0.00000E+00  9.000E+00
      21    -1     0     0   501   502  0.000000000E+00  0.000000000E+00 -2.189743087E+02  2.189743087E+02  0.000000000E+00  0.00000E+00  9.000E+00
      25     1     1     2     0     0  1.511677329E+02 -6.250251898E+01  5.344358450E+00  2.059412793E+02  1.250000000E+02  0.00000E+00  9.000E+00
      25     1     1     2     0     0 -1.694756721E+02  5.990603899E+01 -1.751007548E+01  2.196413888E+02  1.250000000E+02  0.00000E+00  9.000E+00
      21     1     1     2   501   512  1.830793918E+01  2.596479989E+00  8.537144460E+02  8.539146782E+02  1.525878906E-05  0.00000E+00  9.000E+00
#rwgt            1           1   2.6703134572923618E-002           7       78373           0
</event>
<event>
      5   9999  3.19816E-02  1.46212E+02 -1.00000E+00  1.16836E-01
      21    -1     0     0   502   501  0.000000000E+00  0.000000000E+00  2.834003985E+03  2.834003985E+03  0.000000000E+00  0.00000E+00  9.000E+00
      -2    -1     0     0     0   502  0.000000000E+00  0.000000000E+00 -5.004194920E+02  5.004194920E+02  0.000000000E+00  0.00000E+00  9.000E+00
      25     1     1     2     0     0  3.702978896E+01 -2.390661445E+02  1.116182137E+03  1.148917486E+03  1.250000000E+02  0.00000E+00  9.000E+00
      25     1     1     2     0     0 -1.518556288E+01  3.836369441E+02  1.665714381E+03  1.713953706E+03  1.250000000E+02  0.00000E+00  9.000E+00
      -2     1     1     2     0   501 -2.184422608E+01 -1.445707996E+02 -4.483120248E+02  4.715522854E+02  1.321449896E-05  0.00000E+00  9.000E+00
#rwgt            1           1   4.5853391089780614E-002           7       78475           0
</event>
<event>
      5   9999  3.19816E-02  7.58544E+01 -1.00000E+00  1.29478E-01
       2    -1     0     0   502     0  0.000000000E+00  0.000000000E+00  1.169912685E+03  1.169912685E+03  0.000000000E+00  0.00000E+00  9.000E+00
      21    -1     0     0   501   502  0.000000000E+00  0.000000000E+00 -2.028284417E+02  2.028284417E+02  0.000000000E+00  0.00000E+00  9.000E+00
      25     1     1     2     0     0  4.880942824E+01  1.350486446E+02 -9.341037286E+01  2.120636566E+02  1.250000000E+02  0.00000E+00  9.000E+00
      25     1     1     2     0     0 -5.027180514E+00 -1.969922167E+02  2.331796714E+02  3.298923539E+02  1.250000000E+02  0.00000E+00  9.000E+00
       2     1     1     2   501     0 -4.378224773E+01  6.194357210E+01  8.273149448E+02  8.307851162E+02  1.078959322E-05  0.00000E+00  9.000E+00
#rwgt            1           1   3.3632713966844113E-002           7       78529           0
</event>
<event>
      5   9999  3.19816E-02  1.26103E+02 -1.00000E+00  1.19461E-01
      21    -1     0     0   502   511  0.000000000E+00  0.000000000E+00  5.850389229E+02  5.850389229E+02  0.000000000E+00  0.00000E+00  9.000E+00
      21    -1     0     0   501   502  0.000000000E+00  0.000000000E+00 -4.120529225E+02  4.120529225E+02  0.000000000E+00  0.00000E+00  9.000E+00
      25     1     1     2     0     0  5.868360202E+01 -2.343030592E+02 -1.041750934E+02  2.912372551E+02  1.250000000E+02  0.00000E+00  9.000E+00
      25     1     1     2     0     0 -2.850767384E+01  3.567422518E+02 -2.351029995E+01  3.798097627E+02  1.250000000E+02  0.00000E+00  9.000E+00
      21     1     1     2   501   511 -3.017592818E+01 -1.224391926E+02  3.006713938E+02  3.260448275E+02  6.607249480E-06  0.00000E+00  9.000E+00
#rwgt            1           1   2.7465132757806522E-002           7       78597           0
</event>
<event>
      5   9999  3.19816E-02  1.90752E+01 -1.00000E+00  1.68084E-01
      21    -1     0     0   502   501  0.000000000E+00  0.000000000E+00  3.448158613E+02  3.448158613E+02  0.000000000E+00  0.00000E+00  9.000E+00
      21    -1     0     0   501   512  0.000000000E+00  0.000000000E+00 -1.939011409E+02  1.939011409E+02  0.000000000E+00  0.00000E+00  9.000E+00
      25     1     1     2     0     0  1.269344757E+02 -5.630368683E+01  2.547879123E+02  3.159499114E+02  1.250000000E+02  0.00000E+00  9.000E+00
      25     1     1     2     0     0 -1.176962002E+02  3.961481124E+01 -1.020138473E+02  2.036014584E+02  1.250000000E+02  0.00000E+00  9.000E+00
      21     1     1     2   502   512 -9.238275498E+00  1.668887559E+01 -1.859344529E+00  1.916563238E+01  2.546311541E-07  0.00000E+00  9.000E+00
#rwgt            1           1   2.6299286239684860E-002           7       78657           0
</event>
<event>
      5   9999  3.19816E-02  5.09255E+01 -1.00000E+00  1.38623E-01
      21    -1     0     0   502   501  0.000000000E+00  0.000000000E+00  4.436026733E+02  4.436026733E+02  0.000000000E+00  0.00000E+00  9.000E+00
       2    -1     0     0   501     0  0.000000000E+00  0.000000000E+00 -8.699233431E+02  8.699233431E+02  0.000000000E+00  0.00000E+00  9.000E+00
      25     1     1     2     0     0  8.829651418E+01 -1.398657494E+02  3.700952934E+02  4.242101231E+02  1.250000000E+02  0.00000E+00  9.000E+00
      25     1     1     2     0     0 -7.134808549E+01  1.878882428E+02 -2.643634218E+02  3.548317345E+02  1.250000000E+02  0.00000E+00  9.000E+00
       2     1     1     2   502     0 -1.694842869E+01 -4.802249334E+01 -5.320525414E+02  5.344841588E+02  7.629394531E-06  0.00000E+00  9.000E+00
#rwgt            1           1   2.7780866921564860E-002           7       78783           0
</event>
<event>
      5   9999  3.19816E-02  3.34372E+01 -1.00000E+00  1.49838E-01
      21    -1     0     0   502   501  0.000000000E+00  0.000000000E+00  3.889129422E+02  3.889129422E+02  0.000000000E+00  0.00000E+00  9.000E+00
      -1    -1     0     0     0   502  0.000000000E+00  0.000000000E+00 -1.894196668E+02  1.894196668E+02  0.000000000E+00  0.00000E+00  9.000E+00
      25     1     1     2     0     0 -7.143916123E+01 -1.136972954E+02  2.523339046E+02  3.119744031E+02  1.250000000E+02  0.00000E+00  9.000E+00
      25     1     1     2     0     0  3.977811075E+01  1.029444142E+02  3.673404694E+01  1.707461294E+02  1.250000000E+02  0.00000E+00  9.000E+00
      -1     1     1     2     0   501  3.166105048E+01  1.075288125E+01 -8.957467615E+01  9.561207653E+01  1.907348633E-06  0.00000E+00  9.000E+00
#rwgt            1           1   2.4811451083583472E-002           7       78903           0
</event>
<event>
      5   9999  3.19816E-02  9.51952E+01 -1.00000E+00  1.24797E-01
      21    -1     0     0   502   501  0.000000000E+00  0.000000000E+00  2.284253178E+02  2.284253178E+02  0.000000000E+00  0.00000E+00  9.000E+00
       3    -1     0     0   501     0  0.000000000E+00  0.000000000E+00 -1.098106595E+03  1.098106595E+03  0.000000000E+00  0.00000E+00  9.000E+00
      25     1     1     2     0     0 -1.077207544E+02 -3.609625435E+02 -5.064551868E+02  6.434435289E+02  1.250000000E+02  0.00000E+00  9.000E+00
      25     1     1     2     0     0  1.990051297E+02  3.879679093E+02 -2.035116163E+02  4.971560301E+02  1.250000000E+02  0.00000E+00  9.000E+00
       3     1     1     2   502     0 -9.128437530E+01 -2.700536585E+01 -1.597144740E+02  1.859323537E+02  1.907348633E-06  0.00000E+00  9.000E+00
#rwgt            2          14   1.8799820201929958E-005           7       79011           0
</event>
<event>
      5   9999  3.19816E-02  3.87002E+01 -1.00000E+00  1.45736E-01
      21    -1     0     0   502   501  0.000000000E+00  0.000000000E+00  2.633406664E+02  2.633406664E+02  0.000000000E+00  0.00000E+00  9.000E+00
       2    -1     0     0   501     0  0.000000000E+00  0.000000000E+00 -5.501723891E+02  5.501723891E+02  0.000000000E+00  0.00000E+00  9.000E+00
      25     1     1     2     0     0 -9.266600889E+01  1.681549048E+02  1.557134864E+02  2.770103808E+02  1.250000000E+02  0.00000E+00  9.000E+00
      25     1     1     2     0     0  6.378241874E+01 -1.939122974E+02 -2.751646207E+02  3.647063813E+02  1.250000000E+02  0.00000E+00  9.000E+00
       2     1     1     2   502     0  2.888359015E+01  2.575739255E+01 -1.673805884E+02  1.717962934E+02  1.907348633E-06  0.00000E+00  9.000E+00
#rwgt            1           1   2.8453091144901771E-002           7       79030           0
</event>
<event>
      5   9999  3.19816E-02  1.73302E+02 -1.00000E+00  1.13961E-01
      21    -1     0     0   502   511  0.000000000E+00  0.000000000E+00  1.237873494E+03  1.237873494E+03  0.000000000E+00  0.00000E+00  9.000E+00
      21    -1     0     0   501   502  0.000000000E+00  0.000000000E+00 -9.758952382E+01  9.758952382E+01  0.000000000E+00  0.00000E+00  9.000E+00
      25     1     1     2     0     0  2.700814279E+01  1.166551644E+02  5.334380253E+01  1.811309704E+02  1.250000000E+02  0.00000E+00  9.000E+00
      25     1     1     2     0     0  1.326018342E+02 -4.914074008E+01  3.538898336E+02  4.010748971E+02  1.250000000E+02  0.00000E+00  9.000E+00
      21     1     1     2   501   511 -1.596099770E+02 -6.751442434E+01  7.330503340E+02  7.532571503E+02  0.000000000E+00  0.00000E+00  9.000E+00
#rwgt            1           1   2.5339104423395924E-002           7       79097           0
</event>
<event>
      5   9999  3.19816E-02  1.07967E+01 -1.00000E+00  1.91986E-01
      21    -1     0     0   502   501  0.000000000E+00  0.000000000E+00  2.120836686E+01  2.120836686E+01  0.000000000E+00  0.00000E+00  9.000E+00
      21    -1     0     0   501   512  0.000000000E+00  0.000000000E+00 -1.588543165E+03  1.588543165E+03  0.000000000E+00  0.00000E+00  9.000E+00
      25     1     1     2     0     0 -1.091001779E+02  9.845365961E+00 -1.085423191E+03  1.098074808E+03  1.250000000E+02  0.00000E+00  9.000E+00
      25     1     1     2     0     0  9.909193182E+01 -5.795286603E+00 -4.303710587E+02  4.590174773E+02  1.250000000E+02  0.00000E+00  9.000E+00
      21     1     1     2   502   512  1.000824605E+01 -4.050079358E+00 -5.154054836E+01  5.265924664E+01  0.000000000E+00  0.00000E+00  9.000E+00
#rwgt            1           1   3.1192510372911108E-002           7       79156           0
</event>
<event>
      5   9999  3.19816E-02  2.38589E+01 -1.00000E+00  1.60286E-01
      21    -1     0     0   502   501  0.000000000E+00  0.000000000E+00  6.260472111E+02  6.260472111E+02  0.000000000E+00  0.00000E+00  9.000E+00
      21    -1     0     0   511   502  0.000000000E+00  0.000000000E+00 -3.616351926E+02  3.616351926E+02  0.000000000E+00  0.00000E+00  9.000E+00
      25     1     1     2     0     0  1.568339625E+02  3.455330613E+02  2.712194067E+02  4.828819264E+02  1.250000000E+02  0.00000E+00  9.000E+00
      25     1     1     2     0     0 -1.522254475E+02 -3.221234259E+02  1.038549225E+02  3.915953694E+02  1.250000000E+02  0.00000E+00  9.000E+00
      21     1     1     2   511   501 -4.608515014E+00 -2.340963538E+01 -1.106623108E+02  1.132051079E+02  1.907348633E-06  0.00000E+00  9.000E+00
#rwgt            1           1   2.6880798116774258E-002           7       79392           0
</event>
<event>
      5   9999  3.19816E-02  1.57208E+01 -1.00000E+00  1.75485E-01
      21    -1     0     0   502   501  0.000000000E+00  0.000000000E+00  5.460245982E+01  5.460245982E+01  0.000000000E+00  0.00000E+00  9.000E+00
      21    -1     0     0   512   502  0.000000000E+00  0.000000000E+00 -1.535154495E+03  1.535154495E+03  0.000000000E+00  0.00000E+00  9.000E+00
      25     1     1     2     0     0  1.330293293E+02 -1.968905529E+02 -9.027906803E+02  9.418697918E+02  1.250000000E+02  0.00000E+00  9.000E+00
      25     1     1     2     0     0 -1.257022156E+02  2.107994055E+02 -5.254173799E+02  5.932333938E+02  1.250000000E+02  0.00000E+00  9.000E+00
      21     1     1     2   512   501 -7.327113662E+00 -1.390885262E+01 -5.234397448E+01  5.465376877E+01  0.000000000E+00  0.00000E+00  9.000E+00
#rwgt            1           1   3.3651006727287054E-002           7       79583           0
</event>
<event>
      5   9999  3.19816E-02  3.38509E+01 -1.00000E+00  1.49484E-01
       2    -1     0     0   502     0  0.000000000E+00  0.000000000E+00  1.153954594E+03  1.153954594E+03  0.000000000E+00  0.00000E+00  9.000E+00
      21    -1     0     0   501   502  0.000000000E+00  0.000000000E+00 -1.806605756E+02  1.806605756E+02  0.000000000E+00  0.00000E+00  9.000E+00
      25     1     1     2     0     0  9.832155812E+00  3.135805173E+02  1.693685742E+02  3.778096426E+02  1.250000000E+02  0.00000E+00  9.000E+00
      25     1     1     2     0     0 -2.849613475E+01 -2.853397407E+02  2.462776040E+02  3.981312039E+02  1.250000000E+02  0.00000E+00  9.000E+00
       2     1     1     2   501     0  1.866397893E+01 -2.824077656E+01  5.576478399E+02  5.586743228E+02  7.629394531E-06  0.00000E+00  9.000E+00
#rwgt            1           1   3.2967549147012117E-002           7       79740           0
</event>
<event>
      5   9999  3.19816E-02  2.91045E+01 -1.00000E+00  1.53960E-01
      21    -1     0     0   502   501  0.000000000E+00  0.000000000E+00  5.868138655E+02  5.868138655E+02  0.000000000E+00  0.00000E+00  9.000E+00
       2    -1     0     0   501     0  0.000000000E+00  0.000000000E+00 -1.961611045E+03  1.961611045E+03  0.000000000E+00  0.00000E+00  9.000E+00
      25     1     1     2     0     0 -1.789471426E+02 -1.829577315E+02  4.141305887E+02  5.026179025E+02  1.250000000E+02  0.00000E+00  9.000E+00
      25     1     1     2     0     0  1.566910442E+02  1.642029918E+02 -2.483032243E+00  2.591252039E+02  1.250000000E+02  0.00000E+00  9.000E+00
       2     1     1     2   502     0  2.225609845E+01  1.875473964E+01 -1.786444736E+03  1.786681804E+03  3.051757812E-05  0.00000E+00  9.000E+00
#rwgt            1           1   2.8892242304322704E-002           7       79882           0
</event>
<event>
      5   9999  3.19816E-02  8.59898E+01 -1.00000E+00  1.26850E-01
      21    -1     0     0   511   501  0.000000000E+00  0.000000000E+00  1.608557588E+03  1.608557588E+03  0.000000000E+00  0.00000E+00  9.000E+00
      21    -1     0     0   501   502  0.000000000E+00  0.000000000E+00 -5.960749347E+02  5.960749347E+02  0.000000000E+00  0.00000E+00  9.000E+00
      25     1     1     2     0     0 -4.945388099E+02  3.433721415E+02  7.052197392E+02  9.356457356E+02  1.250000000E+02  0.00000E+00  9.000E+00
      25     1     1     2     0     0  4.203385597E+02 -3.868297510E+02 -2.989206521E+02  6.567345867E+02  1.250000000E+02  0.00000E+00  9.000E+00
      21     1     1     2   511   502  7.420025018E+01  4.345760949E+01  6.061835660E+02  6.122522002E+02  0.000000000E+00  0.00000E+00  9.000E+00
#rwgt            1           1   3.2784316393572766E-002           7       79973           0
</event>
<event>
      5   9999  3.19816E-02  2.79477E+01 -1.00000E+00  1.55209E-01
      21    -1     0     0   502   501  0.000000000E+00  0.000000000E+00  2.725323167E+02  2.725323167E+02  0.000000000E+00  0.00000E+00  9.000E+00
      21    -1     0     0   512   502  0.000000000E+00  0.000000000E+00 -2.153830038E+02  2.153830038E+02  0.000000000E+00  0.00000E+00  9.000E+00
      25     1     1     2     0     0 -1.139516858E+02  3.956062399E+01 -6.068043152E+01  1.840031099E+02  1.250000000E+02  0.00000E+00  9.000E+00
      25     1     1     2     0     0  1.106326746E+02 -1.181070725E+01  1.738518378E+02  2.413059117E+02  1.250000000E+02  0.00000E+00  9.000E+00
      21     1     1     2   512   501  3.319011194E+00 -2.774991674E+01 -5.602209337E+01  6.260629888E+01  9.536743164E-07  0.00000E+00  9.000E+00
#rwgt            1           1   2.7749422727075673E-002           7       80079           0
</event>
<event>
      5   9999  3.19816E-02  1.05335E+02 -1.00000E+00  1.22821E-01
      21    -1     0     0   502   501  0.000000000E+00  0.000000000E+00  5.798455257E+01  5.798455257E+01  0.000000000E+00  0.00000E+00  9.000E+00
       2    -1     0     0   501     0  0.000000000E+00  0.000000000E+00 -4.577726133E+03  4.577726133E+03  0.000000000E+00  0.00000E+00  9.000E+00
      25     1     1     2     0     0 -2.154238900E+02 -4.615962147E+01 -3.681561384E+02  4.468804150E+02  1.250000000E+02  0.00000E+00  9.000E+00
      25     1     1     2     0     0  1.951282087E+02  1.495211695E+02 -1.054887547E+03  1.090341384E+03  1.250000000E+02  0.00000E+00  9.000E+00
       2     1     1     2   502     0  2.029568134E+01 -1.033615480E+02 -3.096697895E+03  3.098488886E+03  4.315837288E-05  0.00000E+00  9.000E+00
#rwgt            1           1   2.8522679133634751E-002           7       80201           0
</event>
<event>
      5   9999  3.19816E-02  5.77391E+01 -1.00000E+00  1.35601E-01
      21    -1     0     0   511   501  0.000000000E+00  0.000000000E+00  4.585689065E+02  4.585689065E+02  0.000000000E+00  0.00000E+00  9.000E+00
      21    -1     0     0   501   502  0.000000000E+00  0.000000000E+00 -4.867985540E+02  4.867985540E+02  0.000000000E+00  0.00000E+00  9.000E+00
      25     1     1     2     0     0  6.012342214E+00 -6.591336026E+01  3.971972852E+02  4.216294614E+02  1.250000000E+02  0.00000E+00  9.000E+00
      25     1     1     2     0     0  1.862374078E+01  1.181327824E+02 -4.322638014E+02  4.655955241E+02  1.250000000E+02  0.00000E+00  9.000E+00
      21     1     1     2   511   502 -2.463608299E+01 -5.221942213E+01  6.836868777E+00  5.814247507E+01  2.384185791E-07  0.00000E+00  9.000E+00
#rwgt            1           1   2.6228671518005786E-002           7       80277           0
</event>
<event>
      5   9999  3.19816E-02  1.17211E+02 -1.00000E+00  1.20803E-01
      21    -1     0     0   502   501  0.000000000E+00  0.000000000E+00  1.893497916E+03  1.893497916E+03  0.000000000E+00  0.00000E+00  9.000E+00
      21    -1     0     0   512   502  0.000000000E+00  0.000000000E+00 -1.358443026E+03  1.358443026E+03  0.000000000E+00  0.00000E+00  9.000E+00
      25     1     1     2     0     0  1.938660767E+02  6.793603580E+02  1.634553428E+03  1.785078278E+03  1.250000000E+02  0.00000E+00  9.000E+00
      25     1     1     2     0     0 -1.580698964E+02 -7.909720473E+02 -7.900922268E+02  1.135998943E+03  1.250000000E+02  0.00000E+00  9.000E+00
      21     1     1     2   512   501 -3.579618029E+01  1.116116892E+02 -3.094063115E+02  3.308637201E+02  7.629394531E-06  0.00000E+00  9.000E+00
#rwgt            1           1   2.8181079777162159E-002           7       80369           0
</event>
<event>
      5   9999  3.19816E-02  1.39280E+01 -1.00000E+00  1.80472E-01
      21    -1     0     0   511   501  0.000000000E+00  0.000000000E+00  2.094405401E+02  2.094405401E+02  0.000000000E+00  0.00000E+00  9.000E+00
      21    -1     0     0   501   502  0.000000000E+00  0.000000000E+00 -4.707672622E+02  4.707672622E+02  0.000000000E+00  0.00000E+00  9.000E+00
      25     1     1     2     0     0 -1.875599628E+02  1.198798480E+02 -2.954303172E+02  3.904535695E+02  1.250000000E+02  0.00000E+00  9.000E+00
      25     1     1     2     0     0  1.961514416E+02 -1.308423165E+02  1.660184892E+01  2.673868382E+02  1.250000000E+02  0.00000E+00  9.000E+00
      21     1     1     2   511   502 -8.591478823E+00  1.096246854E+01  1.750174624E+01  2.236739471E+01  2.384185791E-07  0.00000E+00  9.000E+00
#rwgt            1           1   2.6537137898004659E-002           7       80506           0
</event>
<event>
      5   9999  3.19816E-02  4.60237E+02 -1.00000E+00  9.98853E-02
       1    -1     0     0   502     0  0.000000000E+00  0.000000000E+00  2.995496631E+03  2.995496631E+03  0.000000000E+00  0.00000E+00  9.000E+00
      21    -1     0     0   501   502  0.000000000E+00  0.000000000E+00 -8.343362279E+02  8.343362279E+02  0.000000000E+00  0.00000E+00  9.000E+00
      25     1     1     2     0     0 -3.207136675E+00 -4.612175611E+02 -5.995965586E+02  7.667287379E+02  1.250000000E+02  0.00000E+00  9.000E+00
      25     1     1     2     0     0 -3.521923915E+02  1.687979595E+02  2.501461010E+03  2.534849979E+03  1.250000000E+02  0.00000E+00  9.000E+00
       1     1     1     2   501     0  3.553995282E+02  2.924196016E+02  2.592959521E+02  5.282541423E+02  1.078959322E-05  0.00000E+00  9.000E+00
#rwgt            2          17   1.3922026760534079E-003           7       80724           0
</event>
<event>
      5   9999  3.19816E-02  6.89640E+01 -1.00000E+00  1.31549E-01
      21    -1     0     0   502   501  0.000000000E+00  0.000000000E+00  1.871686734E+03  1.871686734E+03  0.000000000E+00  0.00000E+00  9.000E+00
      21    -1     0     0   501   511  0.000000000E+00  0.000000000E+00 -1.352158292E+02  1.352158292E+02  0.000000000E+00  0.00000E+00  9.000E+00
      25     1     1     2     0     0 -2.750167780E+02 -2.893966345E+02  1.155953763E+03  1.229324506E+03  1.250000000E+02  0.00000E+00  9.000E+00
      25     1     1     2     0     0  2.471223679E+02  3.524675552E+02  5.085559881E+02  6.779063617E+02  1.250000000E+02  0.00000E+00  9.000E+00
      21     1     1     2   502   511  2.789441013E+01 -6.307092072E+01  7.196115460E+01  9.967169572E+01  0.000000000E+00  0.00000E+00  9.000E+00
#rwgt            1           1   3.1080833121060272E-002           7       80743           0
</event>
<event>
      5   9999  3.19816E-02  1.26427E+01 -1.00000E+00  1.84677E-01
      21    -1     0     0   502   501  0.000000000E+00  0.000000000E+00  1.382753746E+02  1.382753746E+02  0.000000000E+00  0.00000E+00  9.000E+00
      21    -1     0     0   512   502  0.000000000E+00  0.000000000E+00 -1.397737900E+03  1.397737900E+03  0.000000000E+00  0.00000E+00  9.000E+00
      25     1     1     2     0     0  3.425888309E+02  1.388159731E+02 -3.321189432E+02  5.124109424E+02  1.250000000E+02  0.00000E+00  9.000E+00
      25     1     1     2     0     0 -3.338196773E+02 -1.297088383E+02 -7.021984601E+02  7.981025230E+02  1.250000000E+02  0.00000E+00  9.000E+00
      21     1     1     2   512   501 -8.769153595E+00 -9.107134797E+00 -2.251451222E+02  2.254998094E+02  0.000000000E+00  0.00000E+00  9.000E+00
#rwgt            1           1   2.9060135344833631E-002           7       80835           0
</event>
<event>
      5   9999  3.19816E-02  5.76238E+01 -1.00000E+00  1.35648E-01
      21    -1     0     0   502   501  0.000000000E+00  0.000000000E+00  1.753043405E+02  1.753043405E+02  0.000000000E+00  0.00000E+00  9.000E+00
      21    -1     0     0   501   511  0.000000000E+00  0.000000000E+00 -3.509260593E+03  3.509260593E+03  0.000000000E+00  0.00000E+00  9.000E+00
      25     1     1     2     0     0 -5.064647970E+02 -4.938824828E+02 -1.225488760E+03  1.420518989E+03  1.250000000E+02  0.00000E+00  9.000E+00
      25     1     1     2     0     0  4.571193617E+02  4.641246432E+02 -1.357735750E+03  1.511105940E+03  1.250000000E+02  0.00000E+00  9.000E+00
      21     1     1     2   502   511  4.934543533E+01  2.975783960E+01 -7.507317429E+02  7.529400047E+02  1.868812365E-05  0.00000E+00  9.000E+00
#rwgt            1           1   1.9784788000059079E-002           7       81072           0
</event>
<event>
      5   9999  3.19816E-02  3.17780E+01 -1.00000E+00  1.51323E-01
      21    -1     0     0   502   512  0.000000000E+00  0.000000000E+00  1.752979169E+03  1.752979169E+03  0.000000000E+00  0.00000E+00  9.000E+00
      21    -1     0     0   501   502  0.000000000E+00  0.000000000E+00 -1.814174934E+02  1.814174934E+02  0.000000000E+00  0.00000E+00  9.000E+00
      25     1     1     2     0     0 -2.801473048E+02 -4.275655605E+02  4.771940166E+02  7.103759219E+02  1.250000000E+02  0.00000E+00  9.000E+00
      25     1     1     2     0     0  2.526174703E+02  4.116926995E+02  9.180957981E+02  1.044907345E+03  1.250000000E+02  0.00000E+00  9.000E+00
      21     1     1     2   501   512  2.752983450E+01  1.587286107E+01  1.762718613E+02  1.791133959E+02  2.697398305E-06  0.00000E+00  9.000E+00
#rwgt            1           1   2.8485743961482138E-002           7       81243           0
</event>
<event>
      5   9999  3.19816E-02  1.01972E+01 -1.00000E+00  1.94782E-01
      21    -1     0     0   502   501  0.000000000E+00  0.000000000E+00  8.650089450E+01  8.650089450E+01  0.000000000E+00  0.00000E+00  9.000E+00
       2    -1     0     0   501     0  0.000000000E+00  0.000000000E+00 -4.390020814E+03  4.390020814E+03  0.000000000E+00  0.00000E+00  9.000E+00
      25     1     1     2     0     0  1.072487267E+02 -1.157097875E+02 -5.915358054E+02  6.248445034E+02  1.250000000E+02  0.00000E+00  9.000E+00
      25     1     1     2     0     0 -9.860970078E+01  1.102922493E+02 -6.444453617E+01  2.041233735E+02  1.250000000E+02  0.00000E+00  9.000E+00
       2     1     1     2   502     0 -8.639025962E+00  5.417538231E+00 -3.647539578E+03  3.647553832E+03  6.103515625E-05  0.00000E+00  9.000E+00
#rwgt            1           1   3.0871207588544176E-002           7       81493           0
</event>
<event>
      5   9999  3.19816E-02  5.91856E+01 -1.00000E+00  1.35021E-01
      21    -1     0     0   502   501  0.000000000E+00  0.000000000E+00  1.650283706E+02  1.650283706E+02  0.000000000E+00  0.00000E+00  9.000E+00
       2    -1     0     0   501     0  0.000000000E+00  0.000000000E+00 -2.888585903E+03  2.888585903E+03  0.000000000E+00  0.00000E+00  9.000E+00
      25     1     1     2     0     0 -4.225808822E+02 -5.326034561E+01 -2.609041017E+02  5.148856346E+02  1.250000000E+02  0.00000E+00  9.000E+00
      25     1     1     2     0     0  3.750521661E+02  8.853011571E+01 -1.059283405E+03  1.134111123E+03  1.250000000E+02  0.00000E+00  9.000E+00
       2     1     1     2   502     0  4.752871609E+01 -3.526977010E+01 -1.403370026E+03  1.404617516E+03  0.000000000E+00  0.00000E+00  9.000E+00
#rwgt            2          13   9.6142002362351031E-004           7       81859           0
</event>
<event>
      5   9999  3.19816E-02  1.68816E+02 -1.00000E+00  1.14395E-01
      21    -1     0     0   502   501  0.000000000E+00  0.000000000E+00  2.219122953E+03  2.219122953E+03  0.000000000E+00  0.00000E+00  9.000E+00
       1    -1     0     0   501     0  0.000000000E+00  0.000000000E+00 -1.266634577E+03  1.266634577E+03  0.000000000E+00  0.00000E+00  9.000E+00
      25     1     1     2     0     0  8.541102840E+02 -7.149664441E+02  1.405432343E+03  1.797650262E+03  1.250000000E+02  0.00000E+00  9.000E+00
      25     1     1     2     0     0 -6.997520575E+02  6.466124952E+02  2.271185592E+02  9.874049325E+02  1.250000000E+02  0.00000E+00  9.000E+00
       1     1     1     2   502     0 -1.543582265E+02  6.835394896E+01 -6.800625256E+02  7.007023356E+02  1.078959322E-05  0.00000E+00  9.000E+00
#rwgt            1           1   2.5915372124880414E-002           7       81893           0
</event>
<event>
      5   9999  3.19816E-02  1.04726E+02 -1.00000E+00  1.22933E-01
      21    -1     0     0   502   501  0.000000000E+00  0.000000000E+00  1.580170981E+03  1.580170981E+03  0.000000000E+00  0.00000E+00  9.000E+00
      21    -1     0     0   511   502  0.000000000E+00  0.000000000E+00 -2.854387630E+02  2.854387630E+02  0.000000000E+00  0.00000E+00  9.000E+00
      25     1     1     2     0     0 -1.850232847E+02  5.226568634E+02  5.105517082E+02  7.639972903E+02  1.250000000E+02  0.00000E+00  9.000E+00
      25     1     1     2     0     0  2.446328162E+02 -6.087630629E+02  6.971566146E+02  9.654480964E+02  1.250000000E+02  0.00000E+00  9.000E+00
      21     1     1     2   511   501 -5.960953155E+01  8.610619948E+01  8.702389467E+01  1.361643569E+02  9.536743164E-07  0.00000E+00  9.000E+00
#rwgt            1           1   2.0743622855263558E-002           7       81967           0
</event>
<event>
      5   9999  3.19816E-02  1.54111E+01 -1.00000E+00  1.76285E-01
      21    -1     0     0   502   501  0.000000000E+00  0.000000000E+00  5.469429492E+02  5.469429492E+02  0.000000000E+00  0.00000E+00  9.000E+00
      21    -1     0     0   501   512  0.000000000E+00  0.000000000E+00 -1.108614229E+02  1.108614229E+02  0.000000000E+00  0.00000E+00  9.000E+00
      25     1     1     2     0     0 -1.889477414E+02  9.384418335E+00  2.379649711E+02  3.286968873E+02  1.250000000E+02  0.00000E+00  9.000E+00
      25     1     1     2     0     0  1.932548819E+02  5.412536246E+00  2.084366374E+02  3.105601017E+02  1.250000000E+02  0.00000E+00  9.000E+00
      21     1     1     2   502   512 -4.307140546E+00 -1.479695458E+01 -1.032008217E+01  1.854738312E+01  1.685873940E-07  0.00000E+00  9.000E+00
#rwgt            1           1   3.3253360701050914E-002           7       82101           0
</event>
<event>
      5   9999  3.19816E-02  9.32054E+01 -1.00000E+00  1.25218E-01
      21    -1     0     0   502   501  0.000000000E+00  0.000000000E+00  1.771135324E+03  1.771135324E+03  0.000000000E+00  0.00000E+00  9.000E+00
      21    -1     0     0   511   502  0.000000000E+00  0.000000000E+00 -7.278698497E+02  7.278698497E+02  0.000000000E+00  0.00000E+00  9.000E+00
      25     1     1     2     0     0  6.002206644E+02  6.886102261E+02  1.008081938E+03  1.366127038E+03  1.250000000E+02  0.00000E+00  9.000E+00
      25     1     1     2     0     0 -6.881450771E+02 -6.576822733E+02  1.639100015E+02  9.739512865E+02  1.250000000E+02  0.00000E+00  9.000E+00
      21     1     1     2   511   501  8.792441273E+01 -3.092795282E+01 -1.287264653E+02  1.589268495E+02  2.697398305E-06  0.00000E+00  9.000E+00
#rwgt            1           1   3.2168176854307368E-002           7       82311           0
</event>
<event>
      5   9999  3.35606E-02  9.34696E+00 -1.00000E+00  1.99210E-01
      21    -1     0     0   512   501  0.000000000E+00  0.000000000E+00  7.944297124E+02  7.944297124E+02  0.000000000E+00  0.00000E+00  9.000E+00
      21    -1     0     0   501   502  0.000000000E+00  0.000000000E+00 -1.809900368E+03  1.809900368E+03  0.000000000E+00  0.00000E+00  9.000E+00
      25     1     1     2     0     0 -1.102890293E+03 -3.068070454E+02 -6.369547167E+02  1.315991593E+03  1.250000000E+02  0.00000E+00  9.000E+00
      25     1     1     2     0     0  1.106643669E+03  3.153672887E+02 -4.309371379E+02  1.235090504E+03  1.250000000E+02  0.00000E+00  9.000E+00
      21     1     1     2   512   502 -3.753376154E+00 -8.560243282E+00  5.242119919E+01  5.324798326E+01  1.168007728E-06  0.00000E+00  9.000E+00
#rwgt            1           1   7.8929693966187681E-002           7       82458           0
</event>
<event>
      5   9999  3.19816E-02  1.21588E+01 -1.00000E+00  1.86430E-01
      21    -1     0     0   502   501  0.000000000E+00  0.000000000E+00  2.918117135E+02  2.918117135E+02  0.000000000E+00  0.00000E+00  9.000E+00
      21    -1     0     0   511   502  0.000000000E+00  0.000000000E+00 -1.493647565E+02  1.493647565E+02  0.000000000E+00  0.00000E+00  9.000E+00
      25     1     1     2     0     0 -1.893080966E+01 -7.503717323E+01  2.187802252E+02  2.635882013E+02  1.250000000E+02  0.00000E+00  9.000E+00
      25     1     1     2     0     0  3.045186454E+01  7.115119902E+01 -7.581896387E+01  1.654186339E+02  1.250000000E+02  0.00000E+00  9.000E+00
      21     1     1     2   511   501 -1.152105487E+01  3.885974208E+00 -5.143043044E-01  1.216963475E+01  1.938583230E-07  0.00000E+00  9.000E+00
#rwgt            1           1   2.9594647636567519E-002           7       82917           0
</event>
<event>
      5   9999  3.19816E-02  3.12516E+01 -1.00000E+00  1.51817E-01
      21    -1     0     0   502   501  0.000000000E+00  0.000000000E+00  1.581965903E+02  1.581965903E+02  0.000000000E+00  0.00000E+00  9.000E+00
      21    -1     0     0   512   502  0.000000000E+00  0.000000000E+00 -1.327246109E+03  1.327246109E+03  0.000000000E+00  0.00000E+00  9.000E+00
      25     1     1     2     0     0  8.219734592E+01 -2.499664454E+02 -7.629260788E+01  3.011398172E+02  1.250000000E+02  0.00000E+00  9.000E+00
      25     1     1     2     0     0 -7.610976447E+01  2.806194102E+02 -5.067399069E+02  5.974531637E+02  1.250000000E+02  0.00000E+00  9.000E+00
      21     1     1     2   512   501 -6.087581454E+00 -3.065296481E+01 -5.860170042E+02  5.868497185E+02  1.078959322E-05  0.00000E+00  9.000E+00
#rwgt            1           1   3.2047586809503273E-002           7       83139           0
</event>
<event>
      5   9999  3.19816E-02  3.36123E+02 -1.00000E+00  1.04012E-01
      21    -1     0     0   502   511  0.000000000E+00  0.000000000E+00  1.768368538E+03  1.768368538E+03  0.000000000E+00  0.00000E+00  9.000E+00
      21    -1     0     0   501   502  0.000000000E+00  0.000000000E+00 -1.202372163E+02  1.202372163E+02  0.000000000E+00  0.00000E+00  9.000E+00
      25     1     1     2     0     0 -1.218914269E+02 -4.069322232E+01  4.922268088E+02  5.238565544E+02  1.250000000E+02  0.00000E+00  9.000E+00
      25     1     1     2     0     0 -2.070146603E+02 -2.858515875E+01  1.119375493E+02  2.680059623E+02  1.250000000E+02  0.00000E+00  9.000E+00
      21     1     1     2   501   511  3.289060872E+02  6.927838107E+01  1.043966964E+03  1.096743238E+03  2.642899792E-05  0.00000E+00  9.000E+00
#rwgt            2          11   2.1731560097830215E-003           7       83305           0
</event>
<event>
      5   9999  3.19816E-02  1.26163E+02 -1.00000E+00  1.19452E-01
      21    -1     0     0   502   501  0.000000000E+00  0.000000000E+00  1.332478766E+02  1.332478766E+02  0.000000000E+00  0.00000E+00  9.000E+00
       2    -1     0     0   501     0  0.000000000E+00  0.000000000E+00 -1.323334135E+03  1.323334135E+03  0.000000000E+00  0.00000E+00  9.000E+00
      25     1     1     2     0     0 -8.023948648E+01 -1.273936638E+02 -1.249289391E+02  2.321632197E+02  1.250000000E+02  0.00000E+00  9.000E+00
      25     1     1     2     0     0  8.256099388E+01  1.252117172E+00  2.006759567E+00  1.498229375E+02  1.250000000E+02  0.00000E+00  9.000E+00
       2     1     1     2   502     0 -2.321507394E+00  1.261415466E+02 -1.067164079E+03  1.074595855E+03  0.000000000E+00  0.00000E+00  9.000E+00
#rwgt            1           1   2.9964599928808990E-002           7       83325           0
</event>
<event>
      5   9999  3.19816E-02  6.95526E+01 -1.00000E+00  1.31362E-01
      21    -1     0     0   502   501  0.000000000E+00  0.000000000E+00  6.408380863E+02  6.408380863E+02  0.000000000E+00  0.00000E+00  9.000E+00
      21    -1     0     0   501   511  0.000000000E+00  0.000000000E+00 -1.773356342E+02  1.773356342E+02  0.000000000E+00  0.00000E+00  9.000E+00
      25     1     1     2     0     0 -1.561243188E+02 -1.626583596E+02  2.393916309E+02  3.518037775E+02  1.250000000E+02  0.00000E+00  9.000E+00
      25     1     1     2     0     0  1.774237647E+02  2.288693345E+02  2.383895347E+02  3.953668357E+02  1.250000000E+02  0.00000E+00  9.000E+00
      21     1     1     2   502   511 -2.129944583E+01 -6.621097490E+01 -1.427871345E+01  7.100310731E+01  1.668930054E-06  0.00000E+00  9.000E+00
#rwgt            1           1   2.9180208484099392E-002           7       83360           0
</event>
<event>
      5   9999  3.19816E-02  6.58674E+01 -1.00000E+00  1.32573E-01
      21    -1     0     0   502   501  0.000000000E+00  0.000000000E+00  1.434796561E+03  1.434796561E+03  0.000000000E+00  0.00000E+00  9.000E+00
       1    -1     0     0   501     0  0.000000000E+00  0.000000000E+00 -4.795745681E+02  4.795745681E+02  0.000000000E+00  0.00000E+00  9.000E+00
      25     1     1     2     0     0 -7.492865788E+01 -1.044505518E+02  4.810053601E+02  5.133374893E+02  1.250000000E+02  0.00000E+00  9.000E+00
      25     1     1     2     0     0  2.279106939E+01  6.419896885E+01  9.298396926E+02  9.406741170E+02  1.250000000E+02  0.00000E+00  9.000E+00
       1     1     1     2   502     0  5.213758849E+01  4.025158294E+01 -4.556230595E+02  4.603595230E+02  5.394796609E-06  0.00000E+00  9.000E+00
#rwgt            1           1   3.3925684916166494E-002           7       83421           0
</event>
<event>
      5   9999  3.19816E-02  1.44208E+02 -1.00000E+00  1.17075E-01
       1    -1     0     0   502     0  0.000000000E+00  0.000000000E+00  4.914788137E+02  4.914788137E+02  0.000000000E+00  0.00000E+00  9.000E+00
      21    -1     0     0   501   502  0.000000000E+00  0.000000000E+00 -5.284193065E+02  5.284193065E+02  0.000000000E+00  0.00000E+00  9.000E+00
      25     1     1     2     0     0 -3.407122743E+02 -1.332682420E+02  1.197263637E+02  4.047279090E+02  1.250000000E+02  0.00000E+00  9.000E+00
      25     1     1     2     0     0  4.287773139E+02  1.907269267E+01 -1.472262726E+02  4.706530866E+02  1.250000000E+02  0.00000E+00  9.000E+00
       1     1     1     2   501     0 -8.806503970E+01  1.141955493E+02 -9.440583875E+00  1.445171247E+02  1.896139827E-06  0.00000E+00  9.000E+00
#rwgt            1           1   2.5772716564825167E-002           7       83475           0
</event>
<event>
      5   9999  3.25911E-02  1.63726E+01 -1.00000E+00  1.73875E-01
      21    -1     0     0   502   501  0.000000000E+00  0.000000000E+00  1.296514437E+03  1.296514437E+03  0.000000000E+00  0.00000E+00  9.000E+00
      21    -1     0     0   511   502  0.000000000E+00  0.000000000E+00 -9.751386933E+01  9.751386933E+01  0.000000000E+00  0.00000E+00  9.000E+00
      25     1     1     2     0     0  5.561824270E+01  8.673724134E+01  1.199089461E+03  1.209982344E+03  1.250000000E+02  0.00000E+00  9.000E+00
      25     1     1     2     0     0 -5.052452881E+01 -7.117713604E+01  2.459005348E+01  1.544298658E+02  1.250000000E+02  0.00000E+00  9.000E+00
      21     1     1     2   511   501 -5.093713886E+00 -1.556010530E+01 -2.467894632E+01  2.961609680E+01  8.259061849E-07  0.00000E+00  9.000E+00
#rwgt            1           1   2.9294715159569662E-002           7       83514           0
</event>
<event>
      5   9999  3.19816E-02  2.24883E+02 -1.00000E+00  1.09825E-01
      21    -1     0     0   502   501  0.000000000E+00  0.000000000E+00  2.756809263E+02  2.756809263E+02  0.000000000E+00  0.00000E+00  9.000E+00
      21    -1     0     0   501   512  0.000000000E+00  0.000000000E+00 -1.065208182E+03  1.065208182E+03  0.000000000E+00  0.00000E+00  9.000E+00
      25     1     1     2     0     0  2.415007125E+02  1.660339214E+02 -4.985012234E+01  3.224901423E+02  1.250000000E+02  0.00000E+00  9.000E+00
      25     1     1     2     0     0 -2.240801239E+02 -3.902409297E+02 -4.238785073E+02  6.307121959E+02  1.250000000E+02  0.00000E+00  9.000E+00
      21     1     1     2   502   512 -1.742058860E+01  2.242070083E+02 -3.157986261E+02  3.876867701E+02  3.814697266E-06  0.00000E+00  9.000E+00
#rwgt            2          11   3.3902021535903329E-003           7       83837           0
</event>
<event>
      5   9999  3.19816E-02  2.16630E+02 -1.00000E+00  1.10400E-01
      21    -1     0     0   502   501  0.000000000E+00  0.000000000E+00  4.281638567E+02  4.281638567E+02  0.000000000E+00  0.00000E+00  9.000E+00
      21    -1     0     0   511   502  0.000000000E+00  0.000000000E+00 -1.912758060E+03  1.912758060E+03  0.000000000E+00  0.00000E+00  9.000E+00
      25     1     1     2     0     0 -1.543815865E+02 -5.020782364E+02 -2.602687665E+02  5.994005844E+02  1.250000000E+02  0.00000E+00  9.000E+00
      25     1     1     2     0     0  3.525313284E+02  4.145266830E+02 -6.496989365E+01  5.621003429E+02  1.250000000E+02  0.00000E+00  9.000E+00
      21     1     1     2   511   501 -1.981497419E+02  8.755155340E+01 -1.159355544E+03  1.179420990E+03  0.000000000E+00  0.00000E+00  9.000E+00
#rwgt            1           1   2.7763656315710292E-002           7       83857           0
</event>
<event>
      5   9999  3.19816E-02  7.37885E+02 -1.00000E+00  9.42763E-02
      21    -1     0     0   502   512  0.000000000E+00  0.000000000E+00  1.879491755E+03  1.879491755E+03  0.000000000E+00  0.00000E+00  9.000E+00
      21    -1     0     0   501   502  0.000000000E+00  0.000000000E+00 -4.233867838E+02  4.233867838E+02  0.000000000E+00  0.00000E+00  9.000E+00
      25     1     1     2     0     0  2.583199162E+02 -2.936873706E+02  3.054996175E+02  5.117972909E+02  1.250000000E+02  0.00000E+00  9.000E+00
      25     1     1     2     0     0  4.721517874E+02  3.980205093E+02  4.566418285E+02  7.781352040E+02  1.250000000E+02  0.00000E+00  9.000E+00
      21     1     1     2   501   512 -7.304717036E+02 -1.043331388E+02  6.939635258E+02  1.012946044E+03  1.078959322E-05  0.00000E+00  9.000E+00
#rwgt            2          11   1.2326972333880958E-003           7       83972           0
</event>
<event>
      5   9999  3.19816E-02  1.49324E+02 -1.00000E+00  1.16471E-01
      21    -1     0     0   502   511  0.000000000E+00  0.000000000E+00  7.781711372E+02  7.781711372E+02  0.000000000E+00  0.00000E+00  9.000E+00
      21    -1     0     0   501   502  0.000000000E+00  0.000000000E+00 -2.232023350E+02  2.232023350E+02  0.000000000E+00  0.00000E+00  9.000E+00
      25     1     1     2     0     0  2.210680273E+02  2.446755404E+02  4.775384793E+02  5.936372563E+02  1.250000000E+02  0.00000E+00  9.000E+00
      25     1     1     2     0     0 -1.045513232E+02 -1.512858422E+02 -2.917269201E+01  2.242641995E+02  1.250000000E+02  0.00000E+00  9.000E+00
      21     1     1     2   501   511 -1.165167041E+02 -9.338969825E+01  1.066030149E+02  1.834720165E+02  2.697398305E-06  0.00000E+00  9.000E+00
#rwgt            2          11   3.5582377685275048E-003           7       83992           0
</event>
<event>
      5   9999  3.19816E-02  2.92545E+01 -1.00000E+00  1.53803E-01
      21    -1     0     0   512   501  0.000000000E+00  0.000000000E+00  1.337395711E+02  1.337395711E+02  0.000000000E+00  0.00000E+00  9.000E+00
      21    -1     0     0   501   502  0.000000000E+00  0.000000000E+00 -3.679606605E+02  3.679606605E+02  0.000000000E+00  0.00000E+00  9.000E+00
      25     1     1     2     0     0 -2.678629240E+01  8.669040087E+01  3.462829409E+01  1.582935558E+02  1.250000000E+02  0.00000E+00  9.000E+00
      25     1     1     2     0     0  4.953532868E+01 -1.050834851E+02 -2.630936223E+02  3.135913611E+02  1.250000000E+02  0.00000E+00  9.000E+00
      21     1     1     2   512   502 -2.274903628E+01  1.839308426E+01 -5.755761167E+00  2.981531464E+01  6.364034565E-07  0.00000E+00  9.000E+00
#rwgt            1           1   2.8988569890387433E-002           7       84012           0
</event>
<event>
      5   9999  3.19816E-02  4.64544E+01 -1.00000E+00  1.40923E-01
      21    -1     0     0   502   501  0.000000000E+00  0.000000000E+00  7.382462105E+01  7.382462105E+01  0.000000000E+00  0.00000E+00  9.000E+00
      21    -1     0     0   511   502  0.000000000E+00  0.000000000E+00 -6.606672061E+02  6.606672061E+02  0.000000000E+00  0.00000E+00  9.000E+00
      25     1     1     2     0     0  4.284191460E+01  1.355456955E+02 -1.237603608E+02  2.261629769E+02  1.250000000E+02  0.00000E+00  9.000E+00
      25     1     1     2     0     0 -4.871640209E+01 -8.946427448E+01 -3.860430364E+02  4.183675062E+02  1.250000000E+02  0.00000E+00  9.000E+00
      21     1     1     2   511   501  5.874487487E+00 -4.608142104E+01 -7.703918782E+01  8.996134408E+01  0.000000000E+00  0.00000E+00  9.000E+00
#rwgt            1           1   2.7528848479375541E-002           7       84070           0
</event>
<event>
      5   9999  3.19816E-02  4.00468E+01 -1.00000E+00  1.44809E-01
       5    -1     0     0   502     0  0.000000000E+00  0.000000000E+00  7.474069294E+01  7.474069294E+01  0.000000000E+00  0.00000E+00  9.000E+00
      21    -1     0     0   501   502  0.000000000E+00  0.000000000E+00 -6.169549703E+02  6.169549703E+02  0.000000000E+00  0.00000E+00  9.000E+00
      25     1     1     2     0     0 -4.774411009E-01  5.671477395E+01 -1.858919949E+02  2.310792663E+02  1.250000000E+02  0.00000E+00  9.000E+00
      25     1     1     2     0     0 -2.087813286E+01 -2.283726052E+01 -3.049113563E+01  1.323334661E+02  1.250000000E+02  0.00000E+00  9.000E+00
       5     1     1     2   501     0  2.135557396E+01 -3.387751344E+01 -3.258311468E+02  3.282829309E+02  0.000000000E+00  0.00000E+00  9.000E+00
#rwgt            1           1   3.2975718525636813E-002           7       84166           0
</event>
<event>
      5   9999  3.19816E-02  2.73021E+01 -1.00000E+00  1.55938E-01
      21    -1     0     0   511   501  0.000000000E+00  0.000000000E+00  1.217771532E+02  1.217771532E+02  0.000000000E+00  0.00000E+00  9.000E+00
      21    -1     0     0   501   502  0.000000000E+00  0.000000000E+00 -1.408363999E+03  1.408363999E+03  0.000000000E+00  0.00000E+00  9.000E+00
      25     1     1     2     0     0  3.520811085E+02  7.653438701E+00 -8.441627204E+02  9.231767872E+02  1.250000000E+02  0.00000E+00  9.000E+00
      25     1     1     2     0     0 -3.657312016E+02 -3.129827160E+01 -4.057799172E+02  5.612675252E+02  1.250000000E+02  0.00000E+00  9.000E+00
      21     1     1     2   511   502  1.365009312E+01  2.364483290E+01 -3.664420856E+01  4.569684000E+01  0.000000000E+00  0.00000E+00  9.000E+00
#rwgt            1           1   2.7920572087964408E-002           7       84231           0
</event>
<event>
      5   9999  3.19816E-02  4.12163E+02 -1.00000E+00  1.01295E-01
       2    -1     0     0   502     0  0.000000000E+00  0.000000000E+00  6.095833737E+03  6.095833737E+03  0.000000000E+00  0.00000E+00  9.000E+00
      21    -1     0     0   501   502  0.000000000E+00  0.000000000E+00 -1.061124573E+02  1.061124573E+02  0.000000000E+00  0.00000E+00  9.000E+00
      25     1     1     2     0     0 -3.211206295E+02 -2.051355639E+01  1.099716138E+03  1.152623030E+03  1.250000000E+02  0.00000E+00  9.000E+00
      25     1     1     2     0     0 -6.790537044E+01 -1.156378624E+02  4.759382569E+01  1.894028162E+02  1.250000000E+02  0.00000E+00  9.000E+00
       2     1     1     2   501     0  3.890260000E+02  1.361514188E+02  4.842411315E+03  4.859920347E+03  8.631674575E-05  0.00000E+00  9.000E+00
#rwgt            1           1   2.7258918637588725E-002           7       84449           0
</event>
<event>
      5   9999  3.19816E-02  4.97158E+01 -1.00000E+00  1.39217E-01
      21    -1     0     0   502   501  0.000000000E+00  0.000000000E+00  3.308219646E+02  3.308219646E+02  0.000000000E+00  0.00000E+00  9.000E+00
      21    -1     0     0   511   502  0.000000000E+00  0.000000000E+00 -5.185522128E+02  5.185522128E+02  0.000000000E+00  0.00000E+00  9.000E+00
      25     1     1     2     0     0  3.300697852E+02 -9.169942980E+01 -1.470232510E+02  3.931865777E+02  1.250000000E+02  0.00000E+00  9.000E+00
      25     1     1     2     0     0 -3.760635570E+02  7.282532064E+01 -2.363494927E+01  4.036222703E+02  1.250000000E+02  0.00000E+00  9.000E+00
      21     1     1     2   511   501  4.599377176E+01  1.887410916E+01 -1.707204796E+01  5.256532944E+01  8.920806376E-07  0.00000E+00  9.000E+00
#rwgt            1           1   2.5301212911494456E-002           7       84501           0
</event>
<event>
      5   9999  3.19816E-02  4.94049E+01 -1.00000E+00  1.39373E-01
      21    -1     0     0   502   501  0.000000000E+00  0.000000000E+00  8.054336021E+02  8.054336021E+02  0.000000000E+00  0.00000E+00  9.000E+00
       1    -1     0     0   501     0  0.000000000E+00  0.000000000E+00 -9.689499056E+02  9.689499056E+02  0.000000000E+00  0.00000E+00  9.000E+00
      25     1     1     2     0     0  1.925793106E+02 -4.440376648E+02  3.175464729E+02  5.922136448E+02  1.250000000E+02  0.00000E+00  9.000E+00
      25     1     1     2     0     0 -1.635364648E+02  4.840046702E+02  1.517667944E+02  5.474147021E+02  1.250000000E+02  0.00000E+00  9.000E+00
       1     1     1     2   502     0 -2.904284583E+01 -3.996700543E+01 -6.328295709E+02  6.347551608E+02  1.525878906E-05  0.00000E+00  9.000E+00
#rwgt            1           1   2.9219095494251539E-002           7       84623           0
</event>
<event>
      5   9999  3.19816E-02  7.04535E+01 -1.00000E+00  1.31079E-01
      21    -1     0     0   502   511  0.000000000E+00  0.000000000E+00  7.546953581E+02  7.546953581E+02  0.000000000E+00  0.00000E+00  9.000E+00
      21    -1     0     0   501   502  0.000000000E+00  0.000000000E+00 -1.725860533E+03  1.725860533E+03  0.000000000E+00  0.00000E+00  9.000E+00
      25     1     1     2     0     0 -9.334804285E+02  2.349048306E+02 -6.155200804E+01  9.726148464E+02  1.250000000E+02  0.00000E+00  9.000E+00
      25     1     1     2     0     0  9.803085149E+02 -2.875434317E+02 -9.706434268E+02  1.414729540E+03  1.250000000E+02  0.00000E+00  9.000E+00
      21     1     1     2   501   511 -4.682808640E+01  5.263860112E+01  6.103025982E+01  9.321150475E+01  1.507891493E-06  0.00000E+00  9.000E+00
#rwgt            1           1   2.0336164039924522E-002           7       84778           0
</event>
<event>
      5   9999  3.19816E-02  2.17999E+02 -1.00000E+00  1.10302E-01
      21    -1     0     0   502   501  0.000000000E+00  0.000000000E+00  1.317878276E+03  1.317878276E+03  0.000000000E+00  0.00000E+00  9.000E+00
      21    -1     0     0   512   502  0.000000000E+00  0.000000000E+00 -4.691023933E+02  4.691023933E+02  0.000000000E+00  0.00000E+00  9.000E+00
      25     1     1     2     0     0  5.463545346E+02 -3.059055481E+02  1.688218150E+02  6.604599057E+02  1.250000000E+02  0.00000E+00  9.000E+00
      25     1     1     2     0     0 -6.256075043E+02  1.028234908E+02  6.308081553E+02  9.030511329E+02  1.250000000E+02  0.00000E+00  9.000E+00
      21     1     1     2   512   501  7.925296970E+01  2.030820573E+02  4.914591252E+01  2.234696309E+02  1.168007728E-06  0.00000E+00  9.000E+00
#rwgt            1           1   2.9423091805910635E-002           7       84951           0
</event>
<event>
      5   9999  3.19816E-02  1.09246E+01 -1.00000E+00  1.91420E-01
      21    -1     0     0   511   501  0.000000000E+00  0.000000000E+00  8.350263638E+01  8.350263638E+01  0.000000000E+00  0.00000E+00  9.000E+00
      21    -1     0     0   501   502  0.000000000E+00  0.000000000E+00 -9.956518831E+02  9.956518831E+02  0.000000000E+00  0.00000E+00  9.000E+00
      25     1     1     2     0     0  2.573157994E+01  5.854686605E+01 -3.913939447E+01  1.457626219E+02  1.250000000E+02  0.00000E+00  9.000E+00
      25     1     1     2     0     0 -2.491350262E+01 -4.765290973E+01 -8.968782058E+02  9.071422151E+02  1.250000000E+02  0.00000E+00  9.000E+00
      21     1     1     2   511   502 -8.180773171E-01 -1.089395632E+01  2.386835351E+01  2.624968255E+01  5.840038640E-07  0.00000E+00  9.000E+00
#rwgt            1           1   2.8340946486619879E-002           7       84996           0
</event>
<event>
      5   9999  3.19816E-02  3.15499E+01 -1.00000E+00  1.51536E-01
      21    -1     0     0   512   501  0.000000000E+00  0.000000000E+00  1.047142823E+03  1.047142823E+03  0.000000000E+00  0.00000E+00  9.000E+00
      21    -1     0     0   501   502  0.000000000E+00  0.000000000E+00 -3.544337121E+02  3.544337121E+02  0.000000000E+00  0.00000E+00  9.000E+00
      25     1     1     2     0     0  6.119327218E+01 -1.753918920E+01  7.863898059E+02  7.988029585E+02  1.250000000E+02  0.00000E+00  9.000E+00
      25     1     1     2     0     0 -9.273934999E+01  1.802793504E+01 -3.294978033E+02  3.648553081E+02  1.250000000E+02  0.00000E+00  9.000E+00
      21     1     1     2   512   502  3.154607782E+01 -4.887458423E-01  2.358171078E+02  2.379182680E+02  2.697398305E-06  0.00000E+00  9.000E+00
#rwgt            1           1   2.9276854843886913E-002           7       85189           0
</event>
<event>
      5   9999  3.19816E-02  3.01403E+02 -1.00000E+00  1.05526E-01
      21    -1     0     0   502   501  0.000000000E+00  0.000000000E+00  9.888891559E+02  9.888891559E+02  0.000000000E+00  0.00000E+00  9.000E+00
      21    -1     0     0   501   511  0.000000000E+00  0.000000000E+00 -1.710642653E+03  1.710642653E+03  0.000000000E+00  0.00000E+00  9.000E+00
      25     1     1     2     0     0  5.642993634E+02 -1.277876169E+02  7.483198765E+02  9.541336825E+02  1.250000000E+02  0.00000E+00  9.000E+00
      25     1     1     2     0     0 -3.783386724E+02  3.649846323E+02 -5.248762350E+02  7.533086983E+02  1.250000000E+02  0.00000E+00  9.000E+00
      21     1     1     2   502   511 -1.859606910E+02 -2.371970154E+02 -9.451971388E+02  9.920894284E+02  1.078959322E-05  0.00000E+00  9.000E+00
#rwgt            1           1   2.9537663033791229E-002           7       85448           0
</event>
<event>
      5   9999  3.19816E-02  6.39248E+01 -1.00000E+00  1.33249E-01
      21    -1     0     0   502   501  0.000000000E+00  0.000000000E+00  1.168981192E+03  1.168981192E+03  0.000000000E+00  0.00000E+00  9.000E+00
      21    -1     0     0   501   512  0.000000000E+00  0.000000000E+00 -1.619823310E+02  1.619823310E+02  0.000000000E+00  0.00000E+00  9.000E+00
      25     1     1     2     0     0 -2.514830222E+02  4.309814090E+01  8.011160839E+02  8.500077295E+02  1.250000000E+02  0.00000E+00  9.000E+00
      25     1     1     2     0     0  2.801811238E+02  1.402277834E+01  2.559229595E+02  3.997745135E+02  1.250000000E+02  0.00000E+00  9.000E+00
      21     1     1     2   502   512 -2.869810166E+01 -5.712091924E+01 -5.004018207E+01  8.118128033E+01  6.743495762E-07  0.00000E+00  9.000E+00
#rwgt            1           1   2.7763107944195516E-002           7       85510           0
</event>
<event>
      5   9999  3.19816E-02  2.69102E+01 -1.00000E+00  1.56392E-01
      21    -1     0     0   502   501  0.000000000E+00  0.000000000E+00  2.213393899E+02  2.213393899E+02  0.000000000E+00  0.00000E+00  9.000E+00
      21    -1     0     0   501   511  0.000000000E+00  0.000000000E+00 -4.165835053E+02  4.165835053E+02  0.000000000E+00  0.00000E+00  9.000E+00
      25     1     1     2     0     0  1.550913761E+02 -1.100878396E+02 -1.650402310E+02  2.811333229E+02  1.250000000E+02  0.00000E+00  9.000E+00
      25     1     1     2     0     0 -1.775125590E+02  1.249689870E+02  6.421977875E+01  2.586061413E+02  1.250000000E+02  0.00000E+00  9.000E+00
      21     1     1     2   502   511  2.242118293E+01 -1.488114739E+01 -9.442366308E+01  9.818343109E+01  0.000000000E+00  0.00000E+00  9.000E+00
#rwgt            1           1   2.4713089648434820E-002           7       85584           0
</event>
<event>
      5   9999  3.19816E-02  9.62464E+01 -1.00000E+00  1.24580E-01
      21    -1     0     0   502   501  0.000000000E+00  0.000000000E+00  1.550148780E+03  1.550148780E+03  0.000000000E+00  0.00000E+00  9.000E+00
      21    -1     0     0   501   512  0.000000000E+00  0.000000000E+00 -7.689576466E+02  7.689576466E+02  0.000000000E+00  0.00000E+00  9.000E+00
      25     1     1     2     0     0 -6.749557031E+02 -6.009496112E+02  9.731550038E+02  1.333927021E+03  1.250000000E+02  0.00000E+00  9.000E+00
      25     1     1     2     0     0  5.810184994E+02  5.799931876E+02 -7.513839870E+01  8.338137522E+02  1.250000000E+02  0.00000E+00  9.000E+00
      21     1     1     2   502   512  9.393720365E+01  2.095642360E+01 -1.168254721E+02  1.513656528E+02  3.814697266E-06  0.00000E+00  9.000E+00
#rwgt            1           1   3.6499651684179332E-002           7       85682           0
</event>
<event>
      5   9999  3.19816E-02  1.33169E+01 -1.00000E+00  1.82396E-01
      21    -1     0     0   502   511  0.000000000E+00  0.000000000E+00  1.252337073E+03  1.252337073E+03  0.000000000E+00  0.00000E+00  9.000E+00
      21    -1     0     0   501   502  0.000000000E+00  0.000000000E+00 -6.875782424E+01  6.875782424E+01  0.000000000E+00  0.00000E+00  9.000E+00
      25     1     1     2     0     0 -1.045665322E+02  7.085075135E+01  6.747672547E+01  1.900844473E+02  1.250000000E+02  0.00000E+00  9.000E+00
      25     1     1     2     0     0  9.188801543E+01 -6.677703541E+01  1.002302738E+03  1.016434139E+03  1.250000000E+02  0.00000E+00  9.000E+00
      21     1     1     2   501   511  1.267851679E+01 -4.073715943E+00  1.137997855E+02  1.145763114E+02  0.000000000E+00  0.00000E+00  9.000E+00
#rwgt            1           1   2.7814056894484521E-002           7       85774           0
</event>
<event>
      5   9999  3.19816E-02  2.23576E+01 -1.00000E+00  1.62473E-01
      21    -1     0     0   502   512  0.000000000E+00  0.000000000E+00  3.672399327E+02  3.672399327E+02  0.000000000E+00  0.00000E+00  9.000E+00
      21    -1     0     0   501   502  0.000000000E+00  0.000000000E+00 -5.904239994E+02  5.904239994E+02  0.000000000E+00  0.00000E+00  9.000E+00
      25     1     1     2     0     0 -1.483634371E+02  1.905461133E+02  2.573305250E+02  3.743842009E+02  1.250000000E+02  0.00000E+00  9.000E+00
      25     1     1     2     0     0  1.681659288E+02 -1.801670138E+02 -4.870517179E+02  5.599859895E+02  1.250000000E+02  0.00000E+00  9.000E+00
      21     1     1     2   501   512 -1.980249175E+01 -1.037909956E+01  6.537126288E+00  2.329374180E+01  2.665600750E-07  0.00000E+00  9.000E+00
#rwgt            1           1   3.0067309306035944E-002           7       86010           0
</event>
<event>
      5   9999  3.19816E-02  2.08745E+01 -1.00000E+00  1.64850E-01
       2    -1     0     0   502     0  0.000000000E+00  0.000000000E+00  4.046587169E+02  4.046587169E+02  0.000000000E+00  0.00000E+00  9.000E+00
      21    -1     0     0   501   502  0.000000000E+00  0.000000000E+00 -2.845721709E+02  2.845721709E+02  0.000000000E+00  0.00000E+00  9.000E+00
      25     1     1     2     0     0  2.367269623E+01 -5.960594144E+01  1.153721604E+02  1.817938398E+02  1.250000000E+02  0.00000E+00  9.000E+00
      25     1     1     2     0     0 -2.258739375E+01  8.045224780E+01 -2.283677731E+02  2.734220078E+02  1.250000000E+02  0.00000E+00  9.000E+00
       2     1     1     2   501     0 -1.085302481E+00 -2.084630637E+01  2.330821587E+02  2.340150403E+02  2.697398305E-06  0.00000E+00  9.000E+00
#rwgt            2          18   1.6198262504983643E-004           7       86251           0
</event>
<event>
      5   9999  3.19816E-02  1.80921E+01 -1.00000E+00  1.70044E-01
      21    -1     0     0   502   501  0.000000000E+00  0.000000000E+00  5.137962042E+02  5.137962042E+02  0.000000000E+00  0.00000E+00  9.000E+00
      21    -1     0     0   501   511  0.000000000E+00  0.000000000E+00 -6.005349407E+02  6.005349407E+02  0.000000000E+00  0.00000E+00  9.000E+00
      25     1     1     2     0     0 -3.332365270E+02 -2.892755409E+02  2.150722439E+02  5.065648938E+02  1.250000000E+02  0.00000E+00  9.000E+00
      25     1     1     2     0     0  3.501707659E+02  2.956437513E+02 -2.191365371E+02  5.231353695E+02  1.250000000E+02  0.00000E+00  9.000E+00
      21     1     1     2   502   511 -1.693423888E+01 -6.368210352E+00 -8.267444335E+01  8.463088167E+01  1.651812370E-06  0.00000E+00  9.000E+00
#rwgt            1           1   3.1657390001035283E-002           7       86270           0
</event>
<event>
      5   9999  3.19816E-02  6.19887E+01 -1.00000E+00  1.33951E-01
      21    -1     0     0   502   501  0.000000000E+00  0.000000000E+00  5.075466071E+02  5.075466071E+02  0.000000000E+00  0.00000E+00  9.000E+00
      21    -1     0     0   501   512  0.000000000E+00  0.000000000E+00 -7.616582026E+02  7.616582026E+02  0.000000000E+00  0.00000E+00  9.000E+00
      25     1     1     2     0     0  4.054400416E+02  3.042455347E+02 -4.272605544E+02  6.746284563E+02  1.250000000E+02  0.00000E+00  9.000E+00
      25     1     1     2     0     0 -3.458563463E+02 -3.213448766E+02  1.990740890E+02  5.273847124E+02  1.250000000E+02  0.00000E+00  9.000E+00
      21     1     1     2   502   512 -5.958369529E+01  1.709934193E+01 -2.592513009E+01  6.719164091E+01  1.507891493E-06  0.00000E+00  9.000E+00
#rwgt            1           1   2.2237996239828507E-002           7       86566           0
</event>
<event>
      5   9999  3.19816E-02  6.88771E+01 -1.00000E+00  1.31577E-01
      21    -1     0     0   502   501  0.000000000E+00  0.000000000E+00  1.681262782E+03  1.681262782E+03  0.000000000E+00  0.00000E+00  9.000E+00
      21    -1     0     0   511   502  0.000000000E+00  0.000000000E+00 -2.912414948E+02  2.912414948E+02  0.000000000E+00  0.00000E+00  9.000E+00
      25     1     1     2     0     0 -6.063913270E+02  1.099779594E+02  5.693237579E+02  8.482689044E+02  1.250000000E+02  0.00000E+00  9.000E+00
      25     1     1     2     0     0  5.382067148E+02 -1.002357324E+02  8.728195881E+02  1.037859674E+03  1.250000000E+02  0.00000E+00  9.000E+00
      21     1     1     2   511   501  6.818461214E+01 -9.742226997E+00 -5.212205849E+01  8.637569856E+01  2.023048729E-06  0.00000E+00  9.000E+00
#rwgt            1           1   3.5443479305946858E-002           7       86722           0
</event>
<event>
      5   9999  3.19816E-02  4.79479E+01 -1.00000E+00  1.40122E-01
      21    -1     0     0   502   501  0.000000000E+00  0.000000000E+00  7.984858457E+01  7.984858457E+01  0.000000000E+00  0.00000E+00  9.000E+00
      21    -1     0     0   501   512  0.000000000E+00  0.000000000E+00 -1.661323800E+03  1.661323800E+03  0.000000000E+00  0.00000E+00  9.000E+00
      25     1     1     2     0     0 -8.829380668E+01  1.417964092E+01 -1.442172819E+03  1.450339373E+03  1.250000000E+02  0.00000E+00  9.000E+00
      25     1     1     2     0     0  8.471800807E+01 -6.199406338E+01 -2.276084123E+01  1.648134117E+02  1.250000000E+02  0.00000E+00  9.000E+00
      21     1     1     2   502   512  3.575798604E+00  4.781442246E+01 -1.165415554E+02  1.260195995E+02  1.348699152E-06  0.00000E+00  9.000E+00
#rwgt            1           1   3.1488880363872977E-002           7       86881           0
</event>
<event>
      5   9999  3.19816E-02  9.99244E+01 -1.00000E+00  1.23843E-01
      21    -1     0     0   502   501  0.000000000E+00  0.000000000E+00  1.185695027E+02  1.185695027E+02  0.000000000E+00  0.00000E+00  9.000E+00
       2    -1     0     0   501     0  0.000000000E+00  0.000000000E+00 -1.544286364E+03  1.544286364E+03  0.000000000E+00  0.00000E+00  9.000E+00
      25     1     1     2     0     0  1.209235230E+02  9.985304428E+01 -2.687939984E+01  2.023379129E+02  1.250000000E+02  0.00000E+00  9.000E+00
      25     1     1     2     0     0 -1.750030175E+02 -1.582750015E+01 -3.810442676E+02  4.378313600E+02  1.250000000E+02  0.00000E+00  9.000E+00
       2     1     1     2   502     0  5.407949452E+01 -8.402554412E+01 -1.017793194E+03  1.022686594E+03  1.525878906E-05  0.00000E+00  9.000E+00
#rwgt            1           1   3.2547342818506311E-002           7       86989           0
</event>
<event>
      5   9999  3.19816E-02  1.77304E+01 -1.00000E+00  1.70804E-01
      21    -1     0     0   502   501  0.000000000E+00  0.000000000E+00  8.308151353E+01  8.308151353E+01  0.000000000E+00  0.00000E+00  9.000E+00
      21    -1     0     0   501   511  0.000000000E+00  0.000000000E+00 -1.421327643E+03  1.421327643E+03  0.000000000E+00  0.00000E+00  9.000E+00
      25     1     1     2     0     0 -3.266486487E+01  2.154509074E+02 -8.719282317E+02  9.073973375E+02  1.250000000E+02  0.00000E+00  9.000E+00
      25     1     1     2     0     0  4.846332377E+01 -2.234993144E+02 -1.959687245E+02  3.260818583E+02  1.250000000E+02  0.00000E+00  9.000E+00
      21     1     1     2   502   511 -1.579845889E+01  8.048407071E+00 -2.703491728E+02  2.709299603E+02  0.000000000E+00  0.00000E+00  9.000E+00
#rwgt            1           1   2.7238302324526436E-002           7       87072           0
</event>
<event>
      5   9999  3.19816E-02  3.08152E+02 -1.00000E+00  1.05215E-01
       2    -1     0     0   502     0  0.000000000E+00  0.000000000E+00  2.673162935E+03  2.673162935E+03  0.000000000E+00  0.00000E+00  9.000E+00
      21    -1     0     0   501   502  0.000000000E+00  0.000000000E+00 -1.012154833E+03  1.012154833E+03  0.000000000E+00  0.00000E+00  9.000E+00
      25     1     1     2     0     0  8.411851306E+02  4.973836525E+02 -3.250642429E+02  1.037436593E+03  1.250000000E+02  0.00000E+00  9.000E+00
      25     1     1     2     0     0 -1.029618366E+03 -7.412079067E+02  1.016324657E+03  1.630350867E+03  1.250000000E+02  0.00000E+00  9.000E+00
       2     1     1     2   501     0  1.884332352E+02  2.438242541E+02  9.697476880E+02  1.017530309E+03  1.525878906E-05  0.00000E+00  9.000E+00
#rwgt            1           1   5.3976791301923649E-002           7       87218           0
</event>
<event>
      5   9999  3.19816E-02  4.10581E+01 -1.00000E+00  1.44140E-01
      21    -1     0     0   502   501  0.000000000E+00  0.000000000E+00  2.113873032E+03  2.113873032E+03  0.000000000E+00  0.00000E+00  9.000E+00
       1    -1     0     0   501     0  0.000000000E+00  0.000000000E+00 -3.579980015E+03  3.579980015E+03  0.000000000E+00  0.00000E+00  9.000E+00
      25     1     1     2     0     0 -4.762661821E+01 -9.063788264E+01  4.309592380E+02  4.602546962E+02  1.250000000E+02  0.00000E+00  9.000E+00
      25     1     1     2     0     0  1.412365691E+01  6.690358465E+01  1.665105377E+03  1.671190140E+03  1.250000000E+02  0.00000E+00  9.000E+00
       1     1     1     2   502     0  3.350296130E+01  2.373429799E+01 -3.562171599E+03  3.562408211E+03  6.103515625E-05  0.00000E+00  9.000E+00
#rwgt            1           1   6.5575047994649721E-002           7       87291           0
</event>
<event>
      5   9999  3.19816E-02  1.58614E+02 -1.00000E+00  1.15441E-01
       5    -1     0     0   502     0  0.000000000E+00  0.000000000E+00  4.948746973E+02  4.948746973E+02  0.000000000E+00  0.00000E+00  9.000E+00
      21    -1     0     0   501   502  0.000000000E+00  0.000000000E+00 -2.596615437E+03  2.596615437E+03  0.000000000E+00  0.00000E+00  9.000E+00
      25     1     1     2     0     0  5.985291254E+02 -3.097528858E+02 -4.178651866E+02  8.027579202E+02  1.250000000E+02  0.00000E+00  9.000E+00
      25     1     1     2     0     0 -5.057662898E+02  4.384128091E+02 -1.901330489E+03  2.019576183E+03  1.250000000E+02  0.00000E+00  9.000E+00
       5     1     1     2   501     0 -9.276283556E+01 -1.286599233E+02  2.174549363E+02  2.691560306E+02  6.607249480E-06  0.00000E+00  9.000E+00
#rwgt            1           1   2.9176701653064494E-002           7       87366           0
</event>
<event>
      5   9999  3.19816E-02  8.86859E+01 -1.00000E+00  1.26220E-01
      21    -1     0     0   502   501  0.000000000E+00  0.000000000E+00  1.048221879E+02  1.048221879E+02  0.000000000E+00  0.00000E+00  9.000E+00
       1    -1     0     0   501     0  0.000000000E+00  0.000000000E+00 -1.813062751E+03  1.813062751E+03  0.000000000E+00  0.00000E+00  9.000E+00
      25     1     1     2     0     0  9.034515193E+01 -1.767781988E+02 -7.560432482E+01  2.464828431E+02  1.250000000E+02  0.00000E+00  9.000E+00
      25     1     1     2     0     0 -4.126557781E+01  1.029108882E+02 -3.737874354E+02  4.094332005E+02  1.250000000E+02  0.00000E+00  9.000E+00
       1     1     1     2   502     0 -4.907957412E+01  7.386731054E+01 -1.258848803E+03  1.261968896E+03  2.157918644E-05  0.00000E+00  9.000E+00
#rwgt            1           1   2.5605997219658144E-002           7       87469           0
</event>
<event>
      5   9999  3.19816E-02  1.02301E+02 -1.00000E+00  1.23385E-01
      21    -1     0     0   502   501  0.000000000E+00  0.000000000E+00  1.550273706E+03  1.550273706E+03  0.000000000E+00  0.00000E+00  9.000E+00
       2    -1     0     0   501     0  0.000000000E+00  0.000000000E+00 -2.070687874E+02  2.070687874E+02  0.000000000E+00  0.00000E+00  9.000E+00
      25     1     1     2     0     0  3.376292961E+02  1.942818774E+02  4.121568646E+02  5.807213363E+02  1.250000000E+02  0.00000E+00  9.000E+00
      25     1     1     2     0     0 -4.174525105E+02 -1.302991087E+02  9.666452552E+02  1.068303564E+03  1.250000000E+02  0.00000E+00  9.000E+00
       2     1     1     2   502     0  7.982321447E+01 -6.398276864E+01 -3.559720081E+01  1.083175930E+02  1.846782373E-06  0.00000E+00  9.000E+00
#rwgt            1           1   2.8185432288588341E-002           7       87557           0
</event>
<event>
      5   9999  3.19816E-02  1.06391E+02 -1.00000E+00  1.22630E-01
      21    -1     0     0   502   501  0.000000000E+00  0.000000000E+00  5.787312197E+02  5.787312197E+02  0.000000000E+00  0.00000E+00  9.000E+00
      -1    -1     0     0     0   502  0.000000000E+00  0.000000000E+00 -3.335258463E+02  3.335258463E+02  0.000000000E+00  0.00000E+00  9.000E+00
      25     1     1     2     0     0 -1.764282323E+02 -2.174234511E+00 -2.202838039E+02  3.086771820E+02  1.250000000E+02  0.00000E+00  9.000E+00
      25     1     1     2     0     0  2.271486389E+02  9.569635588E+01  3.589358867E+02  4.530058140E+02  1.250000000E+02  0.00000E+00  9.000E+00
      -1     1     1     2     0   501 -5.072040666E+01 -9.352212137E+01  1.065532906E+02  1.505740701E+02  2.336015456E-06  0.00000E+00  9.000E+00
#rwgt            2          10   9.1018798250612524E-006           7       87749           0
</event>
<event>
      5   9999  3.19816E-02  2.86240E+01 -1.00000E+00  1.54470E-01
      21    -1     0     0   511   501  0.000000000E+00  0.000000000E+00  3.462896289E+02  3.462896289E+02  0.000000000E+00  0.00000E+00  9.000E+00
      21    -1     0     0   501   502  0.000000000E+00  0.000000000E+00 -4.822566583E+02  4.822566583E+02  0.000000000E+00  0.00000E+00  9.000E+00
      25     1     1     2     0     0  1.168543652E+01 -1.001796483E+02  9.733722203E+01  1.878085359E+02  1.250000000E+02  0.00000E+00  9.000E+00
      25     1     1     2     0     0  6.729106868E+00  7.826536083E+01 -4.234507985E+02  4.484488001E+02  1.250000000E+02  0.00000E+00  9.000E+00
      21     1     1     2   511   502 -1.841454338E+01  2.191428749E+01  1.901465470E+02  1.922889512E+02  3.814697266E-06  0.00000E+00  9.000E+00
#rwgt            1           1   2.7585782571359116E-002           7       87768           0
</event>
<event>
      5   9999  3.19816E-02  3.72785E+01 -1.00000E+00  1.46764E-01
      21    -1     0     0   512   501  0.000000000E+00  0.000000000E+00  2.599146357E+02  2.599146357E+02  0.000000000E+00  0.00000E+00  9.000E+00
      21    -1     0     0   501   502  0.000000000E+00  0.000000000E+00 -9.492178957E+02  9.492178957E+02  0.000000000E+00  0.00000E+00  9.000E+00
      25     1     1     2     0     0  8.066055165E+01  3.109163300E+02 -1.612614454E+02  3.805329718E+02  1.250000000E+02  0.00000E+00  9.000E+00
      25     1     1     2     0     0 -4.340550483E+01 -3.122386972E+02 -6.325072231E+02  7.176819833E+02  1.250000000E+02  0.00000E+00  9.000E+00
      21     1     1     2   512   502 -3.725504682E+01  1.322367146E+00  1.044654085E+02  1.109175764E+02  1.348699152E-06  0.00000E+00  9.000E+00
#rwgt            1           1   2.9901764897060357E-002           7       87903           0
</event>
<event>
      5   9999  3.19816E-02  3.66041E+01 -1.00000E+00  1.47271E-01
      21    -1     0     0   502   501  0.000000000E+00  0.000000000E+00  1.472988176E+02  1.472988176E+02  0.000000000E+00  0.00000E+00  9.000E+00
      21    -1     0     0   511   502  0.000000000E+00  0.000000000E+00 -4.750917155E+02  4.750917155E+02  0.000000000E+00  0.00000E+00  9.000E+00
      25     1     1     2     0     0  2.381993843E+01 -1.860534307E+02 -1.266221267E+02  2.585370989E+02  1.250000000E+02  0.00000E+00  9.000E+00
      25     1     1     2     0     0 -2.634710394E+01  2.225702378E+02 -1.393770129E+02  2.920319030E+02  1.250000000E+02  0.00000E+00  9.000E+00
      21     1     1     2   511   501  2.527165510E+00 -3.651680708E+01 -6.179375835E+01  7.182153114E+01  6.743495762E-07  0.00000E+00  9.000E+00
#rwgt            1           1   2.6962090566957336E-002           7       88013           0
</event>
<event>
      5   9999  3.19816E-02  3.65026E+01 -1.00000E+00  1.47348E-01
      21    -1     0     0   502   512  0.000000000E+00  0.000000000E+00  1.450114075E+03  1.450114075E+03  0.000000000E+00  0.00000E+00  9.000E+00
      21    -1     0     0   501   502  0.000000000E+00  0.000000000E+00 -2.559861998E+02  2.559861998E+02  0.000000000E+00  0.00000E+00  9.000E+00
      25     1     1     2     0     0  2.662020167E+02  3.832620027E+02  1.045535252E+03  1.151747472E+03  1.250000000E+02  0.00000E+00  9.000E+00
      25     1     1     2     0     0 -2.785929360E+02 -3.489268533E+02  7.162572555E+01  4.691686451E+02  1.250000000E+02  0.00000E+00  9.000E+00
      21     1     1     2   501   512  1.239091929E+01 -3.433514935E+01  7.696689828E+01  8.518415811E+01  1.651812370E-06  0.00000E+00  9.000E+00
#rwgt            1           1   2.6629535234320177E-002           7       88112           0
</event>
<event>
      5   9999  3.19816E-02  3.22387E+01 -1.00000E+00  1.50900E-01
      21    -1     0     0   502   511  0.000000000E+00  0.000000000E+00  7.400177989E+02  7.400177989E+02  0.000000000E+00  0.00000E+00  9.000E+00
      21    -1     0     0   501   502  0.000000000E+00  0.000000000E+00 -4.935346817E+01  4.935346817E+01  0.000000000E+00  0.00000E+00  9.000E+00
      25     1     1     2     0     0  3.469034677E+01  6.695122893E+01  5.019939189E+02  5.227894239E+02  1.250000000E+02  0.00000E+00  9.000E+00
      25     1     1     2     0     0 -1.637075149E+01 -4.042336890E+01  8.336137729E+01  1.564486161E+02  1.250000000E+02  0.00000E+00  9.000E+00
      21     1     1     2   501   511 -1.831959527E+01 -2.652786003E+01  1.053090346E+02  1.101332270E+02  0.000000000E+00  0.00000E+00  9.000E+00
#rwgt            1           1   2.6919995694377773E-002           7       88338           0
</event>
<event>
      5   9999  3.19816E-02  4.43205E+01 -1.00000E+00  1.42131E-01
      21    -1     0     0   502   501  0.000000000E+00  0.000000000E+00  6.141498507E+01  6.141498507E+01  0.000000000E+00  0.00000E+00  9.000E+00
       2    -1     0     0   501     0  0.000000000E+00  0.000000000E+00 -2.776495486E+03  2.776495486E+03  0.000000000E+00  0.00000E+00  9.000E+00
      25     1     1     2     0     0 -6.766159349E+00  1.450621703E+02 -2.012454914E+02  2.778732840E+02  1.250000000E+02  0.00000E+00  9.000E+00
      25     1     1     2     0     0  8.997330762E+00 -1.893265049E+02 -2.504466711E+03  2.514737359E+03  1.250000000E+02  0.00000E+00  9.000E+00
       2     1     1     2   502     0 -2.231171413E+00  4.426433457E+01 -9.368298885E+00  4.529982853E+01  1.032382731E-06  0.00000E+00  9.000E+00
#rwgt            1           1   4.9932231802987649E-002           7       88470           0
</event>
<event>
      5   9999  3.19816E-02  3.25968E+01 -1.00000E+00  1.50577E-01
      21    -1     0     0   511   501  0.000000000E+00  0.000000000E+00  1.093442567E+03  1.093442567E+03  0.000000000E+00  0.00000E+00  9.000E+00
      21    -1     0     0   501   502  0.000000000E+00  0.000000000E+00 -6.751501871E+02  6.751501871E+02  0.000000000E+00  0.00000E+00  9.000E+00
      25     1     1     2     0     0 -3.682607269E+02  9.412672595E+01 -5.476949575E+02  6.782850212E+02  1.250000000E+02  0.00000E+00  9.000E+00
      25     1     1     2     0     0  3.421090706E+02 -1.135854088E+02  5.296744514E+02  6.527788950E+02  1.250000000E+02  0.00000E+00  9.000E+00
      21     1     1     2   511   502  2.615165627E+01  1.945868285E+01  4.363128864E+02  4.375288382E+02  5.394796609E-06  0.00000E+00  9.000E+00
#rwgt            1           1   3.0698187779633422E-002           7       88548           0
</event>
<event>
      5   9999  3.19816E-02  6.07996E+02 -1.00000E+00  9.64977E-02
      21    -1     0     0   502   512  0.000000000E+00  0.000000000E+00  2.800030259E+03  2.800030259E+03  0.000000000E+00  0.00000E+00  9.000E+00
      21    -1     0     0   501   502  0.000000000E+00  0.000000000E+00 -6.649956901E+02  6.649956901E+02  0.000000000E+00  0.00000E+00  9.000E+00
      25     1     1     2     0     0  3.420527419E+02  5.709509833E+01  1.925679739E+03  1.960644635E+03  1.250000000E+02  0.00000E+00  9.000E+00
      25     1     1     2     0     0  8.377043125E+01 -4.910691323E+02 -3.943788595E+02  6.475539072E+02  1.250000000E+02  0.00000E+00  9.000E+00
      21     1     1     2   501   512 -4.258231732E+02  4.339740339E+02  6.037336890E+02  8.568274063E+02  1.525878906E-05  0.00000E+00  9.000E+00
#rwgt            2          11   1.5269017502027398E-003           7       88716           0
</event>
<event>
      5   9999  3.19816E-02  3.92731E+02 -1.00000E+00  1.01926E-01
      21    -1     0     0   502   501  0.000000000E+00  0.000000000E+00  2.518937472E+03  2.518937472E+03  0.000000000E+00  0.00000E+00  9.000E+00
       2    -1     0     0   501     0  0.000000000E+00  0.000000000E+00 -2.650036675E+03  2.650036675E+03  0.000000000E+00  0.00000E+00  9.000E+00
      25     1     1     2     0     0  1.415899162E+03  4.334292664E+02  1.956767461E+03  2.457070463E+03  1.250000000E+02  0.00000E+00  9.000E+00
      25     1     1     2     0     0 -1.023900193E+03 -4.573979436E+02 -8.484800332E+02  1.411781800E+03  1.250000000E+02  0.00000E+00  9.000E+00
       2     1     1     2   502     0 -3.919989688E+02  2.396867718E+01 -1.239386631E+03  1.300121883E+03  0.000000000E+00  0.00000E+00  9.000E+00
#rwgt            2          13   2.9820266289446356E-003           7       88751           0
</event>
<event>
      5   9999  3.19816E-02  5.18888E+01 -1.00000E+00  1.38163E-01
      21    -1     0     0   502   501  0.000000000E+00  0.000000000E+00  5.596035093E+02  5.596035093E+02  0.000000000E+00  0.00000E+00  9.000E+00
      21    -1     0     0   501   511  0.000000000E+00  0.000000000E+00 -5.774139501E+02  5.774139501E+02  0.000000000E+00  0.00000E+00  9.000E+00
      25     1     1     2     0     0  2.547523489E+02  2.805867179E+01 -2.409650713E+02  3.733298996E+02  1.250000000E+02  0.00000E+00  9.000E+00
      25     1     1     2     0     0 -2.653429988E+02  2.273788487E+01  4.463271055E+02  5.345622542E+02  1.250000000E+02  0.00000E+00  9.000E+00
      21     1     1     2   502   511  1.059064993E+01 -5.079655666E+01 -2.231724751E+02  2.291253056E+02  3.814697266E-06  0.00000E+00  9.000E+00
#rwgt            1           1   3.2757259904179686E-002           7       88770           0
</event>
<event>
      5   9999  3.19816E-02  1.47778E+01 -1.00000E+00  1.77996E-01
      21    -1     0     0   502   512  0.000000000E+00  0.000000000E+00  3.456892870E+02  3.456892870E+02  0.000000000E+00  0.00000E+00  9.000E+00
      21    -1     0     0   501   502  0.000000000E+00  0.000000000E+00 -3.441590643E+02  3.441590643E+02  0.000000000E+00  0.00000E+00  9.000E+00
      25     1     1     2     0     0 -1.248731059E+02  6.122418670E+01 -2.782297849E+02  3.352290363E+02  1.250000000E+02  0.00000E+00  9.000E+00
      25     1     1     2     0     0  1.374807412E+02 -6.893337520E+01  2.752358616E+02  3.391644791E+02  1.250000000E+02  0.00000E+00  9.000E+00
      21     1     1     2   501   512 -1.260763529E+01  7.709188502E+00  4.524145984E+00  1.545483588E+01  2.308477966E-07  0.00000E+00  9.000E+00
#rwgt            1           1   2.7841314804282206E-002           7       88919           0
</event>
<event>
      5   9999  3.19816E-02  1.01465E+01 -1.00000E+00  1.95030E-01
      21    -1     0     0   502   501  0.000000000E+00  0.000000000E+00  6.399440800E+02  6.399440800E+02  0.000000000E+00  0.00000E+00  9.000E+00
      21    -1     0     0   511   502  0.000000000E+00  0.000000000E+00 -2.545580233E+02  2.545580233E+02  0.000000000E+00  0.00000E+00  9.000E+00
      25     1     1     2     0     0  2.852937500E+02 -7.960748559E+01  3.770671095E+02  4.955143597E+02  1.250000000E+02  0.00000E+00  9.000E+00
      25     1     1     2     0     0 -2.925250214E+02  7.248991508E+01  7.232043889E+01  3.341869564E+02  1.250000000E+02  0.00000E+00  9.000E+00
      21     1     1     2   511   501  7.231271368E+00  7.117570507E+00 -6.400149166E+01  6.480078727E+01  0.000000000E+00  0.00000E+00  9.000E+00
#rwgt            1           1   2.8319505174720472E-002           7       89135           0
</event>
<event>
      5   9999  3.19816E-02  3.98968E+02 -1.00000E+00  1.01719E-01
      21    -1     0     0   502   501  0.000000000E+00  0.000000000E+00  4.279887714E+02  4.279887714E+02  0.000000000E+00  0.00000E+00  9.000E+00
      21    -1     0     0   501   512  0.000000000E+00  0.000000000E+00 -2.314159923E+03  2.314159923E+03  0.000000000E+00  0.00000E+00  9.000E+00
      25     1     1     2     0     0 -6.006657030E+02 -6.278775165E+02 -1.200406769E+03  1.487155296E+03  1.250000000E+02  0.00000E+00  9.000E+00
      25     1     1     2     0     0  2.574576618E+02  4.244480414E+02 -6.354749312E+01  5.158525675E+02  1.250000000E+02  0.00000E+00  9.000E+00
      21     1     1     2   502   512  3.432080412E+02  2.034294751E+02 -6.222168897E+02  7.391408314E+02  7.629394531E-06  0.00000E+00  9.000E+00
#rwgt            2          11   2.2900070914517847E-003           7       89465           0
</event>
<event>
      5   9999  3.19816E-02  1.36033E+02 -1.00000E+00  1.18101E-01
      21    -1     0     0   502   501  0.000000000E+00  0.000000000E+00  3.964359069E+02  3.964359069E+02  0.000000000E+00  0.00000E+00  9.000E+00
      21    -1     0     0   511   502  0.000000000E+00  0.000000000E+00 -4.828830480E+02  4.828830480E+02  0.000000000E+00  0.00000E+00  9.000E+00
      25     1     1     2     0     0 -2.128539567E+02  3.951402219E+01 -2.351565090E+02  3.432080252E+02  1.250000000E+02  0.00000E+00  9.000E+00
      25     1     1     2     0     0  2.493565458E+02 -1.705585191E+02  2.082302862E+02  3.876257828E+02  1.250000000E+02  0.00000E+00  9.000E+00
      21     1     1     2   511   501 -3.650258915E+01  1.310444969E+02 -5.952091826E+01  1.484851470E+02  2.132480600E-06  0.00000E+00  9.000E+00
#rwgt            1           1   3.0756895955643165E-002           7       89500           0
</event>
<event>
      5   9999  3.19816E-02  5.12921E+01 -1.00000E+00  1.38446E-01
      21    -1     0     0   502   501  0.000000000E+00  0.000000000E+00  1.600937498E+02  1.600937498E+02  0.000000000E+00  0.00000E+00  9.000E+00
       2    -1     0     0   501     0  0.000000000E+00  0.000000000E+00 -7.438862793E+02  7.438862793E+02  0.000000000E+00  0.00000E+00  9.000E+00
      25     1     1     2     0     0 -1.564997538E+02  2.299989975E+02 -2.462969829E+02  3.920190245E+02  1.250000000E+02  0.00000E+00  9.000E+00
      25     1     1     2     0     0  1.324051886E+02 -2.752796085E+02 -2.656247148E+02  4.236643552E+02  1.250000000E+02  0.00000E+00  9.000E+00
       2     1     1     2   502     0  2.409456524E+01  4.528061099E+01 -7.187083191E+01  8.829664934E+01  9.536743164E-07  0.00000E+00  9.000E+00
#rwgt            1           1   2.5218990219710236E-002           7       89556           0
</event>
<event>
      5   9999  3.19816E-02  1.28595E+01 -1.00000E+00  1.83924E-01
      21    -1     0     0   511   501  0.000000000E+00  0.000000000E+00  6.763028157E+02  6.763028157E+02  0.000000000E+00  0.00000E+00  9.000E+00
      21    -1     0     0   501   502  0.000000000E+00  0.000000000E+00 -1.025337051E+02  1.025337051E+02  0.000000000E+00  0.00000E+00  9.000E+00
      25     1     1     2     0     0 -1.896153658E+02  1.183273069E+02  2.983015254E+02  3.931464594E+02  1.250000000E+02  0.00000E+00  9.000E+00
      25     1     1     2     0     0  1.871158909E+02 -1.057130773E+02  2.308999529E+02  3.393042876E+02  1.250000000E+02  0.00000E+00  9.000E+00
      21     1     1     2   511   502  2.499474991E+00 -1.261422965E+01  4.456763224E+01  4.638577377E+01  0.000000000E+00  0.00000E+00  9.000E+00
#rwgt            1           1   2.3322073458276183E-002           7       89617           0
</event>
<event>
      5   9999  3.19816E-02  9.82604E+01 -1.00000E+00  1.24172E-01
      21    -1     0     0   512   501  0.000000000E+00  0.000000000E+00  4.329413502E+02  4.329413502E+02  0.000000000E+00  0.00000E+00  9.000E+00
      21    -1     0     0   501   502  0.000000000E+00  0.000000000E+00 -1.330938459E+02  1.330938459E+02  0.000000000E+00  0.00000E+00  9.000E+00
      25     1     1     2     0     0 -3.708198402E+01  1.591332070E+02  4.744707549E+01  2.111271562E+02  1.250000000E+02  0.00000E+00  9.000E+00
      25     1     1     2     0     0  4.825166754E+01 -6.150973424E+01  1.203931375E+02  1.903448932E+02  1.250000000E+02  0.00000E+00  9.000E+00
      21     1     1     2   512   502 -1.116968352E+01 -9.762347280E+01  1.320072914E+02  1.645631467E+02  0.000000000E+00  0.00000E+00  9.000E+00
#rwgt            1           1   2.9796901742781611E-002           7       89773           0
</event>
<event>
      5   9999  3.19816E-02  8.68037E+00 -1.00000E+00  2.03141E-01
      21    -1     0     0   511   501  0.000000000E+00  0.000000000E+00  4.853776838E+02  4.853776838E+02  0.000000000E+00  0.00000E+00  9.000E+00
      21    -1     0     0   501   502  0.000000000E+00  0.000000000E+00 -1.251479890E+03  1.251479890E+03  0.000000000E+00  0.00000E+00  9.000E+00
      25     1     1     2     0     0  5.054223308E+02  5.157533614E+02 -5.497270242E+02  9.161212056E+02  1.250000000E+02  0.00000E+00  9.000E+00
      25     1     1     2     0     0 -5.130640396E+02 -5.116359382E+02 -2.572276863E+02  7.789718381E+02  1.250000000E+02  0.00000E+00  9.000E+00
      21     1     1     2   511   502  7.641708868E+00 -4.117423233E+00  4.085250420E+01  4.176453026E+01  6.743495762E-07  0.00000E+00  9.000E+00
#rwgt            1           1   2.9217637765424003E-002           7       89845           0
</event>
<event>
      5   9999  3.19816E-02  8.76919E+01 -1.00000E+00  1.26449E-01
      21    -1     0     0   502   501  0.000000000E+00  0.000000000E+00  1.919772501E+03  1.919772501E+03  0.000000000E+00  0.00000E+00  9.000E+00
      21    -1     0     0   512   502  0.000000000E+00  0.000000000E+00 -4.861756917E+01  4.861756917E+01  0.000000000E+00  0.00000E+00  9.000E+00
      25     1     1     2     0     0  2.220799819E+02 -3.010543868E+01  6.624573999E+02  7.104228758E+02  1.250000000E+02  0.00000E+00  9.000E+00
      25     1     1     2     0     0 -1.427426804E+02  6.746124272E+01  1.100127643E+03  1.118406153E+03  1.250000000E+02  0.00000E+00  9.000E+00
      21     1     1     2   512   501 -7.933730150E+01 -3.735580403E+01  1.085698891E+02  1.395610415E+02  1.348699152E-06  0.00000E+00  9.000E+00
#rwgt            2          11   1.1263213939753731E-002           7       90148           0
</event>
<event>
      5   9999  3.19816E-02  4.34586E+01 -1.00000E+00  1.42641E-01
      21    -1     0     0   502   501  0.000000000E+00  0.000000000E+00  5.890300597E+01  5.890300597E+01  0.000000000E+00  0.00000E+00  9.000E+00
      21    -1     0     0   501   511  0.000000000E+00  0.000000000E+00 -2.739038469E+03  2.739038469E+03  0.000000000E+00  0.00000E+00  9.000E+00
      25     1     1     2     0     0  1.074304637E+01  2.601809239E+02 -4.316011386E+02  5.193400322E+02  1.250000000E+02  0.00000E+00  9.000E+00
      25     1     1     2     0     0 -4.137858998E+01 -2.910048797E+02 -1.814636922E+03  1.842533090E+03  1.250000000E+02  0.00000E+00  9.000E+00
      21     1     1     2   502   511  3.063554361E+01  3.082395584E+01 -4.338974024E+02  4.360683531E+02  5.394796609E-06  0.00000E+00  9.000E+00
#rwgt            1           1   8.4654253565141405E-002           7       90168           0
</event>
<event>
      5   9999  3.19816E-02  1.64708E+02 -1.00000E+00  1.14806E-01
      21    -1     0     0   502   501  0.000000000E+00  0.000000000E+00  3.047586349E+02  3.047586349E+02  0.000000000E+00  0.00000E+00  9.000E+00
      21    -1     0     0   501   512  0.000000000E+00  0.000000000E+00 -1.356375695E+03  1.356375695E+03  0.000000000E+00  0.00000E+00  9.000E+00
      25     1     1     2     0     0  7.979130052E+01 -1.586595568E+02 -6.480688575E+01  2.266372411E+02  1.250000000E+02  0.00000E+00  9.000E+00
      25     1     1     2     0     0 -8.752856623E+00  3.072610967E+02  9.107420358E+01  3.441010093E+02  1.250000000E+02  0.00000E+00  9.000E+00
      21     1     1     2   502   512 -7.103844390E+01 -1.486015399E+02 -1.077884377E+03  1.090396079E+03  1.525878906E-05  0.00000E+00  9.000E+00
#rwgt            1           1   2.5841079224914805E-002           7       90281           0
</event>
<event>
      5   9999  3.19816E-02  3.41850E+01 -1.00000E+00  1.49202E-01
      21    -1     0     0   502   501  0.000000000E+00  0.000000000E+00  5.724268485E+02  5.724268485E+02  0.000000000E+00  0.00000E+00  9.000E+00
      21    -1     0     0   501   511  0.000000000E+00  0.000000000E+00 -1.148009264E+03  1.148009264E+03  0.000000000E+00  0.00000E+00  9.000E+00
      25     1     1     2     0     0 -1.114330281E+02  1.556208277E+01  5.218742296E+02  5.483039392E+02  1.250000000E+02  0.00000E+00  9.000E+00
      25     1     1     2     0     0  1.437645840E+02 -2.666529726E+01 -2.129702230E+02  2.869853822E+02  1.250000000E+02  0.00000E+00  9.000E+00
      21     1     1     2   502   511 -3.233155582E+01  1.110321449E+01 -8.844864220E+02  8.851467910E+02  0.000000000E+00  0.00000E+00  9.000E+00
#rwgt            1           1   2.9628894038090253E-002           7       90341           0
</event>
<event>
      5   9999  3.19816E-02  3.37660E+01 -1.00000E+00  1.49556E-01
      21    -1     0     0   502   501  0.000000000E+00  0.000000000E+00  7.285136937E+02  7.285136937E+02  0.000000000E+00  0.00000E+00  9.000E+00
      21    -1     0     0   512   502  0.000000000E+00  0.000000000E+00 -4.809947613E+02  4.809947613E+02  0.000000000E+00  0.00000E+00  9.000E+00
      25     1     1     2     0     0 -4.923091448E+02 -2.054538632E+02  1.725411934E+02  5.744345458E+02  1.250000000E+02  0.00000E+00  9.000E+00
      25     1     1     2     0     0  5.252519119E+02  2.128646270E+02  1.051212736E+02  5.898104802E+02  1.250000000E+02  0.00000E+00  9.000E+00
      21     1     1     2   512   501 -3.294276710E+01 -7.410763763E+00 -3.014353459E+01  4.526342896E+01  0.000000000E+00  0.00000E+00  9.000E+00
#rwgt            2          11   1.4608950720399272E-002           7       90508           0
</event>
<event>
      5   9999  3.19816E-02  7.20781E+01 -1.00000E+00  1.30580E-01
      21    -1     0     0   502   501  0.000000000E+00  0.000000000E+00  5.919628613E+02  5.919628613E+02  0.000000000E+00  0.00000E+00  9.000E+00
      21    -1     0     0   511   502  0.000000000E+00  0.000000000E+00 -9.948543259E+02  9.948543259E+02  0.000000000E+00  0.00000E+00  9.000E+00
      25     1     1     2     0     0  4.600097842E+02  5.441541220E+02 -3.762981518E+02  8.154373115E+02  1.250000000E+02  0.00000E+00  9.000E+00
      25     1     1     2     0     0 -4.242782123E+02 -4.815561773E+02  6.243183857E+01  6.568341402E+02  1.250000000E+02  0.00000E+00  9.000E+00
      21     1     1     2   511   501 -3.573157193E+01 -6.259794470E+01 -8.902515141E+01  1.145457354E+02  9.536743164E-07  0.00000E+00  9.000E+00
#rwgt            1           1   2.8781823056843736E-002           7       90603           0
</event>
<event>
      5   9999  3.19816E-02  4.91697E+01 -1.00000E+00  1.39492E-01
      21    -1     0     0   502   501  0.000000000E+00  0.000000000E+00  1.119319115E+03  1.119319115E+03  0.000000000E+00  0.00000E+00  9.000E+00
      21    -1     0     0   512   502  0.000000000E+00  0.000000000E+00 -8.440065762E+01  8.440065762E+01  0.000000000E+00  0.00000E+00  9.000E+00
      25     1     1     2     0     0  8.324335889E+01 -2.033472444E+02  6.378461294E+02  6.861138706E+02  1.250000000E+02  0.00000E+00  9.000E+00
      25     1     1     2     0     0 -1.319546099E+02  2.100458165E+02  3.658912076E+02  4.593828903E+02  1.250000000E+02  0.00000E+00  9.000E+00
      21     1     1     2   512   501  4.871125105E+01 -6.698572010E+00  3.118112072E+01  5.822301207E+01  3.371747881E-07  0.00000E+00  9.000E+00
#rwgt            1           1   1.4937090555847049E-002           7       90698           0
</event>
<event>
      5   9999  3.19816E-02  1.93679E+02 -1.00000E+00  1.12158E-01
      21    -1     0     0   502   501  0.000000000E+00  0.000000000E+00  4.640987561E+02  4.640987561E+02  0.000000000E+00  0.00000E+00  9.000E+00
      -1    -1     0     0     0   502  0.000000000E+00  0.000000000E+00 -5.391352489E+02  5.391352489E+02  0.000000000E+00  0.00000E+00  9.000E+00
      25     1     1     2     0     0  2.551945699E+02  2.992921476E+02  1.230760004E+02  4.306654851E+02  1.250000000E+02  0.00000E+00  9.000E+00
      25     1     1     2     0     0 -2.380138240E+02 -1.063767452E+02  8.664610411E+00  2.892519107E+02  1.250000000E+02  0.00000E+00  9.000E+00
      -1     1     1     2     0   501 -1.718074589E+01 -1.929154024E+02 -2.067771036E+02  2.833166092E+02  2.697398305E-06  0.00000E+00  9.000E+00
#rwgt            1           1   2.5685891731886078E-002           7       90778           0
</event>
<event>
      5   9999  3.19816E-02  1.77703E+02 -1.00000E+00  1.13549E-01
      21    -1     0     0   502   501  0.000000000E+00  0.000000000E+00  5.936697949E+02  5.936697949E+02  0.000000000E+00  0.00000E+00  9.000E+00
      21    -1     0     0   501   511  0.000000000E+00  0.000000000E+00 -2.484602153E+02  2.484602153E+02  0.000000000E+00  0.00000E+00  9.000E+00
      25     1     1     2     0     0  1.026945015E+02 -4.476990466E+01  2.443096350E+02  2.964164347E+02  1.250000000E+02  0.00000E+00  9.000E+00
      25     1     1     2     0     0  6.966887764E+01  8.800531841E+01  2.584316784E+02  3.082379292E+02  1.250000000E+02  0.00000E+00  9.000E+00
      21     1     1     2   502   511 -1.723633791E+02 -4.323541375E+01 -1.575317338E+02  2.374756464E+02  0.000000000E+00  0.00000E+00  9.000E+00
#rwgt            2          11   5.0782141875702199E-003           7       90892           0
</event>
<event>
      5   9999  3.19816E-02  7.15384E+02 -1.00000E+00  9.46246E-02
       2    -1     0     0   502     0  0.000000000E+00  0.000000000E+00  1.735899647E+03  1.735899647E+03  0.000000000E+00  0.00000E+00  9.000E+00
      21    -1     0     0   501   502  0.000000000E+00  0.000000000E+00 -6.458527179E+02  6.458527179E+02  0.000000000E+00  0.00000E+00  9.000E+00
      25     1     1     2     0     0 -1.841192099E+02  2.818688075E+02 -1.532463910E+02  3.904604518E+02  1.250000000E+02  0.00000E+00  9.000E+00
      25     1     1     2     0     0  6.512058876E+02  2.599835771E+02  2.252090491E+02  7.469971112E+02  1.250000000E+02  0.00000E+00  9.000E+00
       2     1     1     2   501     0 -4.670866777E+02 -5.418523845E+02  1.018084271E+03  1.244294802E+03  1.078959322E-05  0.00000E+00  9.000E+00
#rwgt            2          18   1.2277356880104333E-003           7       90912           0
</event>
<event>
      5   9999  3.19816E-02  3.54762E+02 -1.00000E+00  1.03279E-01
      21    -1     0     0   502   501  0.000000000E+00  0.000000000E+00  1.123765929E+03  1.123765929E+03  0.000000000E+00  0.00000E+00  9.000E+00
       1    -1     0     0   501     0  0.000000000E+00  0.000000000E+00 -1.442434388E+03  1.442434388E+03  0.000000000E+00  0.00000E+00  9.000E+00
      25     1     1     2     0     0  4.298823685E+02 -9.669696012E+01  7.146497845E+02  8.488218112E+02  1.250000000E+02  0.00000E+00  9.000E+00
      25     1     1     2     0     0 -9.248751403E+01  2.063351068E+02 -1.266669526E+03  1.292750867E+03  1.250000000E+02  0.00000E+00  9.000E+00
       1     1     1     2   502     0 -3.373948544E+02 -1.096381467E+02  2.333512819E+02  4.246276389E+02  6.607249480E-06  0.00000E+00  9.000E+00
#rwgt            2          12   1.2980578445368526E-004           7       91396           0
</event>
<event>
      5   9999  3.19816E-02  2.60146E+02 -1.00000E+00  1.07643E-01
      21    -1     0     0   502   511  0.000000000E+00  0.000000000E+00  9.705002852E+02  9.705002852E+02  0.000000000E+00  0.00000E+00  9.000E+00
      21    -1     0     0   501   502  0.000000000E+00  0.000000000E+00 -6.270541021E+02  6.270541021E+02  0.000000000E+00  0.00000E+00  9.000E+00
      25     1     1     2     0     0 -1.034400830E+02 -1.784220445E+02 -1.817917191E+02  3.020058044E+02  1.250000000E+02  0.00000E+00  9.000E+00
      25     1     1     2     0     0  3.227941202E+02  3.856575600E+01 -2.815473465E+02  4.478585378E+02  1.250000000E+02  0.00000E+00  9.000E+00
      21     1     1     2   501   511 -2.193540372E+02  1.398562885E+02  8.067852487E+02  8.476900451E+02  1.078959322E-05  0.00000E+00  9.000E+00
#rwgt            1           1   2.6701988993643268E-002           7       91415           0
</event>
<event>
      5   9999  3.24925E-02  1.60115E+02 -1.00000E+00  1.15281E-01
      21    -1     0     0   502   501  0.000000000E+00  0.000000000E+00  1.399789391E+03  1.399789391E+03  0.000000000E+00  0.00000E+00  9.000E+00
      21    -1     0     0   512   502  0.000000000E+00  0.000000000E+00 -8.278813203E+02  8.278813203E+02  0.000000000E+00  0.00000E+00  9.000E+00
      25     1     1     2     0     0 -2.559032680E+02  1.366166052E+02  9.986342879E+02  1.047399647E+03  1.250000000E+02  0.00000E+00  9.000E+00
      25     1     1     2     0     0  2.223429440E+02 -2.931754092E+02  2.649322547E+02  4.703214910E+02  1.250000000E+02  0.00000E+00  9.000E+00
      21     1     1     2   512   501  3.356032402E+01  1.565588039E+02 -6.916584721E+02  7.099495732E+02  7.629394531E-06  0.00000E+00  9.000E+00
#rwgt            1           1   3.1223138220379271E-002           7       91457           0
</event>
<event>
      5   9999  3.19816E-02  4.08688E+02 -1.00000E+00  1.01405E-01
      21    -1     0     0   502   501  0.000000000E+00  0.000000000E+00  2.595823581E+02  2.595823581E+02  0.000000000E+00  0.00000E+00  9.000E+00
      21    -1     0     0   511   502  0.000000000E+00  0.000000000E+00 -1.282716919E+03  1.282716919E+03  0.000000000E+00  0.00000E+00  9.000E+00
      25     1     1     2     0     0  1.121753941E+01  2.101530314E+02  8.000244638E+01  2.575180017E+02  1.250000000E+02  0.00000E+00  9.000E+00
      25     1     1     2     0     0  5.713454515E+01  1.927788298E+02 -2.871311306E+02  3.721522802E+02  1.250000000E+02  0.00000E+00  9.000E+00
      21     1     1     2   511   501 -6.835208456E+01 -4.029318612E+02 -8.160058762E+02  9.126289948E+02  1.078959322E-05  0.00000E+00  9.000E+00
#rwgt            2          11   2.9883863930188137E-003           7       91685           0
</event>
<event>
      5   9999  3.19816E-02  1.33314E+02 -1.00000E+00  1.18460E-01
      21    -1     0     0   502   501  0.000000000E+00  0.000000000E+00  7.655031361E+02  7.655031361E+02  0.000000000E+00  0.00000E+00  9.000E+00
      21    -1     0     0   512   502  0.000000000E+00  0.000000000E+00 -3.866772689E+02  3.866772689E+02  0.000000000E+00  0.00000E+00  9.000E+00
      25     1     1     2     0     0  3.316631672E+00 -6.062473693E+01  6.750248921E+02  6.891806466E+02  1.250000000E+02  0.00000E+00  9.000E+00
      25     1     1     2     0     0  7.643533518E+01  1.674531395E+02 -1.885751398E+02  2.916650438E+02  1.250000000E+02  0.00000E+00  9.000E+00
      21     1     1     2   512   501 -7.975196685E+01 -1.068284026E+02 -1.076238850E+02  1.713347147E+02  1.907348633E-06  0.00000E+00  9.000E+00
#rwgt            1           1   2.9110128866774502E-002           7       91705           0
</event>
<event>
      5   9999  3.19816E-02  1.92720E+01 -1.00000E+00  1.67709E-01
      21    -1     0     0   502   511  0.000000000E+00  0.000000000E+00  3.720169570E+02  3.720169570E+02  0.000000000E+00  0.00000E+00  9.000E+00
      21    -1     0     0   501   502  0.000000000E+00  0.000000000E+00 -5.575330638E+02  5.575330638E+02  0.000000000E+00  0.00000E+00  9.000E+00
      25     1     1     2     0     0 -1.978503170E+02 -1.900871311E+01 -7.251896784E+01  2.457439314E+02  1.250000000E+02  0.00000E+00  9.000E+00
      25     1     1     2     0     0  1.871782921E+02  3.505612492E+01 -3.654431492E+02  4.306255220E+02  1.250000000E+02  0.00000E+00  9.000E+00
      21     1     1     2   501   511  1.067202491E+01 -1.604741181E+01  2.524460103E+02  2.531805673E+02  4.672030912E-06  0.00000E+00  9.000E+00
#rwgt            1           1   2.7873999893015124E-002           7       91737           0
</event>
<event>
      5   9999  3.19816E-02  1.15817E+02 -1.00000E+00  1.21026E-01
      21    -1     0     0   502   512  0.000000000E+00  0.000000000E+00  4.117907510E+02  4.117907510E+02  0.000000000E+00  0.00000E+00  9.000E+00
      21    -1     0     0   501   502  0.000000000E+00  0.000000000E+00 -1.743967532E+03  1.743967532E+03  0.000000000E+00  0.00000E+00  9.000E+00
      25     1     1     2     0     0 -5.328666760E+02  4.678186004E+01 -1.028951977E+03  1.166405851E+03  1.250000000E+02  0.00000E+00  9.000E+00
      25     1     1     2     0     0  5.258617658E+02  6.882336831E+01 -5.138688510E+02  7.489682562E+02  1.250000000E+02  0.00000E+00  9.000E+00
      21     1     1     2   501   512  7.004910252E+00 -1.156052283E+02  2.106440472E+02  2.403841763E+02  2.697398305E-06  0.00000E+00  9.000E+00
#rwgt            1           1   2.8319084368134215E-002           7       91886           0
</event>
<event>
      5   9999  3.19816E-02  3.20680E+01 -1.00000E+00  1.51056E-01
      21    -1     0     0   502   511  0.000000000E+00  0.000000000E+00  1.740018001E+03  1.740018001E+03  0.000000000E+00  0.00000E+00  9.000E+00
      21    -1     0     0   501   502  0.000000000E+00  0.000000000E+00 -3.340743923E+01  3.340743923E+01  0.000000000E+00  0.00000E+00  9.000E+00
      25     1     1     2     0     0 -1.303994484E+02  4.151405700E+01  3.141633058E+02  3.647615876E+02  1.250000000E+02  0.00000E+00  9.000E+00
      25     1     1     2     0     0  1.232309617E+02 -1.025755633E+01  1.039803450E+03  1.054564983E+03  1.250000000E+02  0.00000E+00  9.000E+00
      21     1     1     2   501   511  7.168486765E+00 -3.125650068E+01  3.526438056E+02  3.540988699E+02  5.394796609E-06  0.00000E+00  9.000E+00
#rwgt            1           1   3.7444154790088675E-002           7       92002           0
</event>
<event>
      5   9999  3.19816E-02  1.61879E+01 -1.00000E+00  1.74321E-01
      21    -1     0     0   502   501  0.000000000E+00  0.000000000E+00  1.356254294E+02  1.356254294E+02  0.000000000E+00  0.00000E+00  9.000E+00
      21    -1     0     0   512   502  0.000000000E+00  0.000000000E+00 -3.012748912E+02  3.012748912E+02  0.000000000E+00  0.00000E+00  9.000E+00
      25     1     1     2     0     0  7.605622930E+01  1.359317775E+02 -7.030694026E+01  2.117311125E+02  1.250000000E+02  0.00000E+00  9.000E+00
      25     1     1     2     0     0 -6.982697955E+01 -1.209904214E+02 -8.407550349E+01  2.054462933E+02  1.250000000E+02  0.00000E+00  9.000E+00
      21     1     1     2   512   501 -6.229249753E+00 -1.494135607E+01 -1.126701803E+01  1.972291482E+01  1.685873940E-07  0.00000E+00  9.000E+00
#rwgt            1           1   3.0590180493261288E-002           7       92107           0
</event>
<event>
      5   9999  3.19816E-02  1.20839E+02 -1.00000E+00  1.20240E-01
      21    -1     0     0   502   501  0.000000000E+00  0.000000000E+00  1.622250206E+03  1.622250206E+03  0.000000000E+00  0.00000E+00  9.000E+00
       1    -1     0     0   501     0  0.000000000E+00  0.000000000E+00 -1.146493785E+03  1.146493785E+03  0.000000000E+00  0.00000E+00  9.000E+00
      25     1     1     2     0     0 -2.035816923E+02  2.845011738E+02  1.406659303E+02  3.972383759E+02  1.250000000E+02  0.00000E+00  9.000E+00
      25     1     1     2     0     0  2.994497940E+02 -2.109392887E+02  1.321865423E+03  1.377359343E+03  1.250000000E+02  0.00000E+00  9.000E+00
       1     1     1     2   502     0 -9.586810167E+01 -7.356188506E+01 -9.867749326E+02  9.941462727E+02  1.868812365E-05  0.00000E+00  9.000E+00
#rwgt            1           1   2.8103906726361337E-002           7       92233           0
</event>
<event>
      5   9999  3.19816E-02  8.91245E+01 -1.00000E+00  1.26119E-01
      21    -1     0     0   502   501  0.000000000E+00  0.000000000E+00  1.060477591E+03  1.060477591E+03  0.000000000E+00  0.00000E+00  9.000E+00
      21    -1     0     0   501   511  0.000000000E+00  0.000000000E+00 -9.879478894E+02  9.879478894E+02  0.000000000E+00  0.00000E+00  9.000E+00
      25     1     1     2     0     0  4.585008202E+02  8.000844911E+02 -1.134691220E+02  9.374744992E+02  1.250000000E+02  0.00000E+00  9.000E+00
      25     1     1     2     0     0 -3.712141042E+02 -8.180902835E+02  3.097401299E+02  9.584547831E+02  1.250000000E+02  0.00000E+00  9.000E+00
      21     1     1     2   502   511 -8.728671595E+01  1.800579240E+01 -1.237413067E+02  1.524961978E+02  1.348699152E-06  0.00000E+00  9.000E+00
#rwgt            1           1   2.5297615596414681E-002           7       92316           0
</event>
<event>
      5   9999  3.19816E-02  4.85998E+01 -1.00000E+00  1.39783E-01
      21    -1     0     0   502   501  0.000000000E+00  0.000000000E+00  9.940187683E+02  9.940187683E+02  0.000000000E+00  0.00000E+00  9.000E+00
      21    -1     0     0   501   512  0.000000000E+00  0.000000000E+00 -5.053972695E+02  5.053972695E+02  0.000000000E+00  0.00000E+00  9.000E+00
      25     1     1     2     0     0 -1.935466811E+02 -1.194925025E+02  7.985015853E+02  8.396240573E+02  1.250000000E+02  0.00000E+00  9.000E+00
      25     1     1     2     0     0  1.584139570E+02  1.530728049E+02  8.098796040E+01  2.659141123E+02  1.250000000E+02  0.00000E+00  9.000E+00
      21     1     1     2   502   512  3.513272410E+01 -3.358030240E+01 -3.908680469E+02  3.938778682E+02  0.000000000E+00  0.00000E+00  9.000E+00
#rwgt            1           1   2.8724489312210930E-002           7       92429           0
</event>
<event>
      5   9999  3.19816E-02  1.84912E+02 -1.00000E+00  1.12902E-01
       1    -1     0     0   502     0  0.000000000E+00  0.000000000E+00  2.270338407E+03  2.270338407E+03  0.000000000E+00  0.00000E+00  9.000E+00
      21    -1     0     0   501   502  0.000000000E+00  0.000000000E+00 -7.745141230E+01  7.745141230E+01  0.000000000E+00  0.00000E+00  9.000E+00
      25     1     1     2     0     0 -3.570754494E+01 -3.471248589E+01  3.080364967E+01  1.380356848E+02  1.250000000E+02  0.00000E+00  9.000E+00
      25     1     1     2     0     0  8.934476351E+01  2.116742461E+02  1.485797923E+03  1.508644737E+03  1.250000000E+02  0.00000E+00  9.000E+00
       1     1     1     2   501     0 -5.363721857E+01 -1.769617602E+02  6.762854213E+02  7.011093972E+02  0.000000000E+00  0.00000E+00  9.000E+00
#rwgt            2          17   5.8668394696946471E-004           7       92535           0
</event>
<event>
      5   9999  3.19816E-02  2.49583E+02 -1.00000E+00  1.08255E-01
      21    -1     0     0   502   511  0.000000000E+00  0.000000000E+00  7.107529378E+02  7.107529378E+02  0.000000000E+00  0.00000E+00  9.000E+00
      21    -1     0     0   501   502  0.000000000E+00  0.000000000E+00 -2.007612983E+03  2.007612983E+03  0.000000000E+00  0.00000E+00  9.000E+00
      25     1     1     2     0     0 -3.915969559E+01  2.467077998E+02  2.063425577E+01  2.800874734E+02  1.250000000E+02  0.00000E+00  9.000E+00
      25     1     1     2     0     0 -7.746159300E+01 -4.673688225E+02 -1.815919177E+03  1.880856553E+03  1.250000000E+02  0.00000E+00  9.000E+00
      21     1     1     2   501   511  1.166212886E+02  2.206610226E+02  4.984248759E+02  5.574218948E+02  7.629394531E-06  0.00000E+00  9.000E+00
#rwgt            1           1   3.6492727755845729E-002           7       92554           0
</event>
<event>
      5   9999  3.19816E-02  1.28933E+01 -1.00000E+00  1.83808E-01
      21    -1     0     0   502   512  0.000000000E+00  0.000000000E+00  2.192313544E+02  2.192313544E+02  0.000000000E+00  0.00000E+00  9.000E+00
      21    -1     0     0   501   502  0.000000000E+00  0.000000000E+00 -5.302665150E+02  5.302665150E+02  0.000000000E+00  0.00000E+00  9.000E+00
      25     1     1     2     0     0  1.040780025E+02 -9.210632123E+00 -4.379634739E+02  4.672837155E+02  1.250000000E+02  0.00000E+00  9.000E+00
      25     1     1     2     0     0 -1.159966597E+02  1.412815206E+01  1.747437317E+01  1.720034403E+02  1.250000000E+02  0.00000E+00  9.000E+00
      21     1     1     2   501   512  1.191865718E+01 -4.917519941E+00  1.094539401E+02  1.102107136E+02  1.907348633E-06  0.00000E+00  9.000E+00
#rwgt            1           1   2.9515743541752754E-002           7       92614           0
</event>
<event>
      5   9999  3.19816E-02  2.78845E+01 -1.00000E+00  1.55279E-01
      21    -1     0     0   502   501  0.000000000E+00  0.000000000E+00  3.564597065E+02  3.564597065E+02  0.000000000E+00  0.00000E+00  9.000E+00
      21    -1     0     0   501   511  0.000000000E+00  0.000000000E+00 -1.124039730E+03  1.124039730E+03  0.000000000E+00  0.00000E+00  9.000E+00
      25     1     1     2     0     0  4.301549297E+02  4.463568024E+02 -3.747880367E+02  7.350909679E+02  1.250000000E+02  0.00000E+00  9.000E+00
      25     1     1     2     0     0 -4.145079488E+02 -4.232761241E+02 -3.719987235E+02  7.106247724E+02  1.250000000E+02  0.00000E+00  9.000E+00
      21     1     1     2   502   511 -1.564698090E+01 -2.308067833E+01 -2.079326324E+01  3.478369618E+01  0.000000000E+00  0.00000E+00  9.000E+00
#rwgt            1           1   3.0022819818146706E-002           7       92743           0
</event>
<event>
      5   9999  3.19816E-02  1.71364E+01 -1.00000E+00  1.72104E-01
      21    -1     0     0   502   501  0.000000000E+00  0.000000000E+00  5.356972807E+02  5.356972807E+02  0.000000000E+00  0.00000E+00  9.000E+00
       2    -1     0     0   501     0  0.000000000E+00  0.000000000E+00 -5.754169235E+02  5.754169235E+02  0.000000000E+00  0.00000E+00  9.000E+00
      25     1     1     2     0     0 -1.764123676E+02  7.816150919E+01 -1.671758034E+02  2.842592025E+02  1.250000000E+02  0.00000E+00  9.000E+00
      25     1     1     2     0     0  1.843798599E+02 -6.298997214E+01  4.488367243E+02  5.050178951E+02  1.250000000E+02  0.00000E+00  9.000E+00
       2     1     1     2   502     0 -7.967492298E+00 -1.517153705E+01 -3.213805637E+02  3.218371066E+02  5.394796609E-06  0.00000E+00  9.000E+00
#rwgt            1           1   2.3870968955679143E-002           7       92960           0
</event>
<event>
      5   9999  3.19816E-02  6.07172E+01 -1.00000E+00  1.34428E-01
      21    -1     0     0   502   501  0.000000000E+00  0.000000000E+00  6.789918609E+02  6.789918609E+02  0.000000000E+00  0.00000E+00  9.000E+00
      21    -1     0     0   511   502  0.000000000E+00  0.000000000E+00 -1.345065688E+02  1.345065688E+02  0.000000000E+00  0.00000E+00  9.000E+00
      25     1     1     2     0     0 -1.179304713E+02  1.987732173E+02  9.429336058E+01  2.791677378E+02  1.250000000E+02  0.00000E+00  9.000E+00
      25     1     1     2     0     0  1.024376582E+02 -1.400659002E+02  4.071661196E+02  4.599143172E+02  1.250000000E+02  0.00000E+00  9.000E+00
      21     1     1     2   511   501  1.549281310E+01 -5.870731708E+01  4.302581193E+01  7.441637474E+01  4.768371582E-07  0.00000E+00  9.000E+00
#rwgt            1           1   3.5000454113949371E-002           7       93212           0
</event>
<event>
      5   9999  3.19816E-02  7.77689E+01 -1.00000E+00  1.28947E-01
       1    -1     0     0   502     0  0.000000000E+00  0.000000000E+00  5.488101144E+02  5.488101144E+02  0.000000000E+00  0.00000E+00  9.000E+00
      21    -1     0     0   501   502  0.000000000E+00  0.000000000E+00 -3.823107276E+02  3.823107276E+02  0.000000000E+00  0.00000E+00  9.000E+00
      25     1     1     2     0     0 -2.565927937E+02  2.921207174E+02 -1.070945066E+02  4.222186740E+02  1.250000000E+02  0.00000E+00  9.000E+00
      25     1     1     2     0     0  2.065831429E+02 -2.325637133E+02  2.710197331E+02  4.310906766E+02  1.250000000E+02  0.00000E+00  9.000E+00
       1     1     1     2   501     0  5.000965080E+01 -5.955700408E+01  2.574160347E+00  7.781149150E+01  1.145355633E-06  0.00000E+00  9.000E+00
#rwgt            1           1   3.3574885767526728E-002           7       93350           0
</event>
<event>
      5   9999  3.19816E-02  1.01831E+02 -1.00000E+00  1.23475E-01
      21    -1     0     0   502   501  0.000000000E+00  0.000000000E+00  1.690881461E+02  1.690881461E+02  0.000000000E+00  0.00000E+00  9.000E+00
      21    -1     0     0   511   502  0.000000000E+00  0.000000000E+00 -1.394082802E+03  1.394082802E+03  0.000000000E+00  0.00000E+00  9.000E+00
      25     1     1     2     0     0 -3.023828795E+01 -2.612468485E+02 -6.609046919E+02  7.222079214E+02  1.250000000E+02  0.00000E+00  9.000E+00
      25     1     1     2     0     0 -6.461675889E+01  2.242058954E+02  3.081447223E+00  2.647226934E+02  1.250000000E+02  0.00000E+00  9.000E+00
      21     1     1     2   511   501  9.485504684E+01  3.704095305E+01 -5.671714111E+02  5.762403332E+02  7.629394531E-06  0.00000E+00  9.000E+00
#rwgt            1           1   2.8303058132026396E-002           7       93479           0
</event>
<event>
      5   9999  3.19816E-02  2.32583E+02 -1.00000E+00  1.09313E-01
      21    -1     0     0   502   501  0.000000000E+00  0.000000000E+00  1.098528099E+03  1.098528099E+03  0.000000000E+00  0.00000E+00  9.000E+00
      21    -1     0     0   512   502  0.000000000E+00  0.000000000E+00 -2.494424455E+02  2.494424455E+02  0.000000000E+00  0.00000E+00  9.000E+00
      25     1     1     2     0     0 -2.654449622E+02  2.142063880E+02  3.500453990E+02  5.044820969E+02  1.250000000E+02  0.00000E+00  9.000E+00
      25     1     1     2     0     0  1.156055548E+02 -3.920911371E+02  4.161437747E+02  5.965741742E+02  1.250000000E+02  0.00000E+00  9.000E+00
      21     1     1     2   512   501  1.498394074E+02  1.778847490E+02  8.289647941E+01  2.469142731E+02  5.955694197E-06  0.00000E+00  9.000E+00
#rwgt            1           1   2.8195961353401446E-002           7       93531           0
</event>
<event>
      5   9999  3.19816E-02  1.90483E+02 -1.00000E+00  1.12424E-01
      21    -1     0     0   502   501  0.000000000E+00  0.000000000E+00  7.145051285E+01  7.145051285E+01  0.000000000E+00  0.00000E+00  9.000E+00
       1    -1     0     0   501     0  0.000000000E+00  0.000000000E+00 -2.807296469E+03  2.807296469E+03  0.000000000E+00  0.00000E+00  9.000E+00
      25     1     1     2     0     0  1.499790344E+02 -2.032248058E+01 -2.262962027E+03  2.271459630E+03  1.250000000E+02  0.00000E+00  9.000E+00
      25     1     1     2     0     0 -2.765467211E+00  1.412028420E+02 -2.046990205E+02  2.783389649E+02  1.250000000E+02  0.00000E+00  9.000E+00
       1     1     1     2   502     0 -1.472135672E+02 -1.208803614E+02 -2.681849082E+02  3.289483867E+02  0.000000000E+00  0.00000E+00  9.000E+00
#rwgt            1           1   9.2041514625638463E-002           7       93604           0
</event>
<event>
      5   9999  3.19816E-02  1.15469E+01 -1.00000E+00  1.88803E-01
      21    -1     0     0   502   511  0.000000000E+00  0.000000000E+00  2.175304706E+02  2.175304706E+02  0.000000000E+00  0.00000E+00  9.000E+00
      21    -1     0     0   501   502  0.000000000E+00  0.000000000E+00 -1.390481955E+02  1.390481955E+02  0.000000000E+00  0.00000E+00  9.000E+00
      25     1     1     2     0     0  8.750616943E+01 -9.621325187E+00 -2.934237341E+01  1.556787541E+02  1.250000000E+02  0.00000E+00  9.000E+00
      25     1     1     2     0     0 -9.466755394E+01  5.633842797E-01  9.373894402E+01  1.826862140E+02  1.250000000E+02  0.00000E+00  9.000E+00
      21     1     1     2   501   511  7.161384504E+00  9.057940907E+00  1.408570454E+01  1.821369798E+01  1.685873940E-07  0.00000E+00  9.000E+00
#rwgt            1           1   3.1803327593595436E-002           7       93667           0
</event>
<event>
      5   9999  3.19816E-02  6.09266E+01 -1.00000E+00  1.34349E-01
      21    -1     0     0   512   501  0.000000000E+00  0.000000000E+00  2.734670490E+02  2.734670490E+02  0.000000000E+00  0.00000E+00  9.000E+00
      21    -1     0     0   501   502  0.000000000E+00  0.000000000E+00 -4.856780130E+02  4.856780130E+02  0.000000000E+00  0.00000E+00  9.000E+00
      25     1     1     2     0     0  2.176044047E+01  1.282603507E+02  4.426056674E+01  1.857639149E+02  1.250000000E+02  0.00000E+00  9.000E+00
      25     1     1     2     0     0 -4.038904228E+01 -7.025146244E+01 -3.949402655E+02  4.221011206E+02  1.250000000E+02  0.00000E+00  9.000E+00
      21     1     1     2   512   502  1.862860180E+01 -5.800888824E+01  1.384687348E+02  1.512800265E+02  0.000000000E+00  0.00000E+00  9.000E+00
#rwgt            1           1   2.5467104546146587E-002           7       93855           0
</event>
<event>
      5   9999  3.19816E-02  4.78693E+01 -1.00000E+00  1.40163E-01
      21    -1     0     0   502   501  0.000000000E+00  0.000000000E+00  6.368797865E+02  6.368797865E+02  0.000000000E+00  0.00000E+00  9.000E+00
      21    -1     0     0   511   502  0.000000000E+00  0.000000000E+00 -1.128185827E+03  1.128185827E+03  0.000000000E+00  0.00000E+00  9.000E+00
      25     1     1     2     0     0  2.340228253E+02 -6.377178124E+02  1.952960473E+02  7.177856484E+02  1.250000000E+02  0.00000E+00  9.000E+00
      25     1     1     2     0     0 -2.151388180E+02  6.817048876E+02 -5.751226181E+02  9.259574993E+02  1.250000000E+02  0.00000E+00  9.000E+00
      21     1     1     2   511   501 -1.888400732E+01 -4.398707514E+01 -1.114794695E+02  1.213224654E+02  1.907348633E-06  0.00000E+00  9.000E+00
#rwgt            1           1   3.3252402742673021E-002           7       93957           0
</event>
<event>
      5   9999  3.19816E-02  2.19863E+01 -1.00000E+00  1.63046E-01
      21    -1     0     0   502   501  0.000000000E+00  0.000000000E+00  3.621307943E+02  3.621307943E+02  0.000000000E+00  0.00000E+00  9.000E+00
      21    -1     0     0   512   502  0.000000000E+00  0.000000000E+00 -4.035412471E+02  4.035412471E+02  0.000000000E+00  0.00000E+00  9.000E+00
      25     1     1     2     0     0  1.698457266E+01  1.519548614E+02  2.944341994E+02  3.545352639E+02  1.250000000E+02  0.00000E+00  9.000E+00
      25     1     1     2     0     0 -2.361713044E+01 -1.729169041E+02 -2.963099684E+02  3.658997431E+02  1.250000000E+02  0.00000E+00  9.000E+00
      21     1     1     2   512   501  6.632557778E+00  2.096204277E+01 -3.953468382E+01  4.523703444E+01  4.768371582E-07  0.00000E+00  9.000E+00
#rwgt            1           1   2.8293101371054202E-002           7       94115           0
</event>
<event>
      5   9999  3.19816E-02  2.51681E+01 -1.00000E+00  1.58533E-01
      21    -1     0     0   511   501  0.000000000E+00  0.000000000E+00  1.014749670E+03  1.014749670E+03  0.000000000E+00  0.00000E+00  9.000E+00
      21    -1     0     0   501   502  0.000000000E+00  0.000000000E+00 -1.321701070E+02  1.321701070E+02  0.000000000E+00  0.00000E+00  9.000E+00
      25     1     1     2     0     0  2.883176688E+02 -1.442094760E+02  2.845551339E+02  4.477946799E+02  1.250000000E+02  0.00000E+00  9.000E+00
      25     1     1     2     0     0 -2.839914473E+02  1.194159999E+02  5.205377733E+02  6.176535409E+02  1.250000000E+02  0.00000E+00  9.000E+00
      21     1     1     2   511   502 -4.326221564E+00  2.479347609E+01  7.748665589E+01  8.147155633E+01  9.536743164E-07  0.00000E+00  9.000E+00
#rwgt            1           1   2.7325710586838203E-002           7       94252           0
</event>
<event>
      5   9999  3.19816E-02  4.73129E+02 -1.00000E+00  9.95384E-02
       2    -1     0     0   502     0  0.000000000E+00  0.000000000E+00  3.001399606E+03  3.001399606E+03  0.000000000E+00  0.00000E+00  9.000E+00
      21    -1     0     0   501   502  0.000000000E+00  0.000000000E+00 -9.635002438E+02  9.635002438E+02  0.000000000E+00  0.00000E+00  9.000E+00
      25     1     1     2     0     0  7.564616801E+02  7.698863954E+02 -3.192777748E+02  1.132485158E+03  1.250000000E+02  0.00000E+00  9.000E+00
      25     1     1     2     0     0 -1.019175004E+03 -3.763982190E+02  1.732260742E+03  2.048596004E+03  1.250000000E+02  0.00000E+00  9.000E+00
       2     1     1     2   501     0  2.627133236E+02 -3.934881764E+02  6.249163947E+02  7.838186881E+02  0.000000000E+00  0.00000E+00  9.000E+00
#rwgt            2          18   4.6336148608840241E-003           7       94414           0
</event>
<event>
      5   9999  3.19816E-02  3.58214E+02 -1.00000E+00  1.03148E-01
      21    -1     0     0   502   501  0.000000000E+00  0.000000000E+00  4.559188457E+02  4.559188457E+02  0.000000000E+00  0.00000E+00  9.000E+00
      21    -1     0     0   511   502  0.000000000E+00  0.000000000E+00 -2.075646303E+03  2.075646303E+03  0.000000000E+00  0.00000E+00  9.000E+00
      25     1     1     2     0     0  6.605483423E+01 -6.511210952E+02 -1.152429681E+02  6.761862639E+02  1.250000000E+02  0.00000E+00  9.000E+00
      25     1     1     2     0     0  1.139544669E+02  3.414209464E+02 -8.366770692E+01  3.901014847E+02  1.250000000E+02  0.00000E+00  9.000E+00
      21     1     1     2   511   501 -1.800093011E+02  3.097001489E+02 -1.420816782E+03  1.465277400E+03  1.525878906E-05  0.00000E+00  9.000E+00
#rwgt            2          11   1.1919865088667876E-003           7       94433           0
</event>
<event>
      5   9999  3.19816E-02  1.28771E+02 -1.00000E+00  1.19082E-01
      21    -1     0     0   502   501  0.000000000E+00  0.000000000E+00  1.968803912E+02  1.968803912E+02  0.000000000E+00  0.00000E+00  9.000E+00
       2    -1     0     0   501     0  0.000000000E+00  0.000000000E+00 -6.429538002E+02  6.429538002E+02  0.000000000E+00  0.00000E+00  9.000E+00
      25     1     1     2     0     0 -2.292141212E+02 -1.338445905E+02 -1.789639102E+02  3.436663628E+02  1.250000000E+02  0.00000E+00  9.000E+00
      25     1     1     2     0     0  2.232070004E+02  5.214240198E+00 -2.635746020E+02  3.673487773E+02  1.250000000E+02  0.00000E+00  9.000E+00
       2     1     1     2   502     0  6.007120813E+00  1.286303503E+02 -3.534896764E+00  1.288190514E+02  2.608001215E-06  0.00000E+00  9.000E+00
#rwgt            1           1   2.6530887228255837E-002           7       94483           0
</event>
<event>
      5   9999  3.19816E-02  1.85777E+02 -1.00000E+00  1.12827E-01
      21    -1     0     0   502   501  0.000000000E+00  0.000000000E+00  1.100734302E+03  1.100734302E+03  0.000000000E+00  0.00000E+00  9.000E+00
      21    -1     0     0   501   511  0.000000000E+00  0.000000000E+00 -9.376260901E+01  9.376260901E+01  0.000000000E+00  0.00000E+00  9.000E+00
      25     1     1     2     0     0  1.705642405E+02  9.212962926E+01  2.540877208E+02  3.431699267E+02  1.250000000E+02  0.00000E+00  9.000E+00
      25     1     1     2     0     0  7.971196257E+00 -1.434939348E+02  5.176499771E+02  5.515800468E+02  1.250000000E+02  0.00000E+00  9.000E+00
      21     1     1     2   502   511 -1.785354368E+02  5.136430557E+01  2.352339950E+02  2.997469374E+02  3.814697266E-06  0.00000E+00  9.000E+00
#rwgt            1           1   2.8709318348889987E-002           7       94524           0
</event>
<event>
      5   9999  3.19816E-02  4.28164E+01 -1.00000E+00  1.43031E-01
      21    -1     0     0   502   501  0.000000000E+00  0.000000000E+00  9.840296948E+02  9.840296948E+02  0.000000000E+00  0.00000E+00  9.000E+00
      21    -1     0     0   512   502  0.000000000E+00  0.000000000E+00 -1.175768485E+02  1.175768485E+02  0.000000000E+00  0.00000E+00  9.000E+00
      25     1     1     2     0     0  1.381661062E+02  7.567423224E+01  8.566336780E+02  8.799219969E+02  1.250000000E+02  0.00000E+00  9.000E+00
      25     1     1     2     0     0 -1.017385979E+02 -5.317357588E+01  3.315296691E+01  1.729227882E+02  1.250000000E+02  0.00000E+00  9.000E+00
      21     1     1     2   512   501 -3.642750831E+01 -2.250065636E+01 -2.333379866E+01  4.876175815E+01  7.539457465E-07  0.00000E+00  9.000E+00
#rwgt            1           1   2.4196559573347674E-002           7       94577           0
</event>
<event>
      5   9999  3.19816E-02  2.67379E+01 -1.00000E+00  1.56595E-01
      21    -1     0     0   511   501  0.000000000E+00  0.000000000E+00  1.986164607E+03  1.986164607E+03  0.000000000E+00  0.00000E+00  9.000E+00
      21    -1     0     0   501   502  0.000000000E+00  0.000000000E+00 -5.484636678E+01  5.484636678E+01  0.000000000E+00  0.00000E+00  9.000E+00
      25     1     1     2     0     0  1.370956099E+01  1.432680078E+02  1.717020967E+03  1.727570455E+03  1.250000000E+02  0.00000E+00  9.000E+00
      25     1     1     2     0     0 -3.691866154E+01 -1.299918857E+02  1.309422454E+02  2.259020796E+02  1.250000000E+02  0.00000E+00  9.000E+00
      21     1     1     2   511   502  2.320910055E+01 -1.327612211E+01  8.335502766E+01  8.753843958E+01  0.000000000E+00  0.00000E+00  9.000E+00
#rwgt            1           1   2.5930378401483659E-002           7       94742           0
</event>
<event>
      5   9999  3.19816E-02  5.99395E+02 -1.00000E+00  9.66653E-02
      21    -1     0     0   502   512  0.000000000E+00  0.000000000E+00  8.230007126E+02  8.230007126E+02  0.000000000E+00  0.00000E+00  9.000E+00
      21    -1     0     0   501   502  0.000000000E+00  0.000000000E+00 -2.054743793E+03  2.054743793E+03  0.000000000E+00  0.00000E+00  9.000E+00
      25     1     1     2     0     0 -4.248279808E+02 -4.829035305E+02 -6.397622387E+02  9.157485218E+02  1.250000000E+02  0.00000E+00  9.000E+00
      25     1     1     2     0     0  9.848496448E+02  6.965615154E+02 -6.198150191E+02  1.361955368E+03  1.250000000E+02  0.00000E+00  9.000E+00
      21     1     1     2   501   512 -5.600216640E+02 -2.136579848E+02  2.783417734E+01  6.000406154E+02  5.146749769E-06  0.00000E+00  9.000E+00
#rwgt            2          11   2.3342634736168112E-003           7       94921           0
</event>
<event>
      5   9999  3.19816E-02  3.69137E+02 -1.00000E+00  1.02746E-01
      21    -1     0     0   511   501  0.000000000E+00  0.000000000E+00  2.713480688E+03  2.713480688E+03  0.000000000E+00  0.00000E+00  9.000E+00
      21    -1     0     0   501   502  0.000000000E+00  0.000000000E+00 -2.093508659E+02  2.093508659E+02  0.000000000E+00  0.00000E+00  9.000E+00
      25     1     1     2     0     0  2.805764789E+02  1.715831118E+02  7.585982894E+02  8.362178481E+02  1.250000000E+02  0.00000E+00  9.000E+00
      25     1     1     2     0     0 -3.083492712E+02  1.965072896E+02  9.857147674E+01  3.987928334E+02  1.250000000E+02  0.00000E+00  9.000E+00
      21     1     1     2   511   502  2.777279232E+01 -3.680904014E+02  1.646960056E+03  1.687820873E+03  3.051757812E-05  0.00000E+00  9.000E+00
#rwgt            2          11   6.4557775430177516E-004           7       95046           0
</event>
<event>
      5   9999  3.19816E-02  2.42501E+01 -1.00000E+00  1.59748E-01
       3    -1     0     0   502     0  0.000000000E+00  0.000000000E+00  5.753756444E+02  5.753756444E+02  0.000000000E+00  0.00000E+00  9.000E+00
      21    -1     0     0   501   502  0.000000000E+00  0.000000000E+00 -7.469453684E+01  7.469453684E+01  0.000000000E+00  0.00000E+00  9.000E+00
      25     1     1     2     0     0  5.344069710E+01 -1.059606732E+02  1.075384562E+02  2.031578006E+02  1.250000000E+02  0.00000E+00  9.000E+00
      25     1     1     2     0     0 -6.944350513E+01  8.774047631E+01  2.458534766E+02  2.976402586E+02  1.250000000E+02  0.00000E+00  9.000E+00
       3     1     1     2   501     0  1.600280804E+01  1.822019684E+01  1.472891747E+02  1.492721221E+02  3.303624740E-06  0.00000E+00  9.000E+00
#rwgt            1           1   2.6509953084255980E-002           7       95126           0
</event>
<event>
      5   9999  3.19816E-02  2.21011E+01 -1.00000E+00  1.62867E-01
      21    -1     0     0   502   501  0.000000000E+00  0.000000000E+00  1.464381198E+03  1.464381198E+03  0.000000000E+00  0.00000E+00  9.000E+00
      21    -1     0     0   511   502  0.000000000E+00  0.000000000E+00 -1.339875591E+02  1.339875591E+02  0.000000000E+00  0.00000E+00  9.000E+00
      25     1     1     2     0     0  2.921854434E+02  1.087071579E+02  2.073833961E+02  3.947435274E+02  1.250000000E+02  0.00000E+00  9.000E+00
      25     1     1     2     0     0 -3.085311613E+02 -1.235824819E+02  1.126599358E+03  1.181234617E+03  1.250000000E+02  0.00000E+00  9.000E+00
      21     1     1     2   511   501  1.634571792E+01  1.487532401E+01 -3.589115536E+00  2.239061208E+01  5.092623082E-07  0.00000E+00  9.000E+00
#rwgt            1           1   2.9445940939533809E-002           7       95206           0
</event>
<event>
      5   9999  3.19816E-02  3.36679E+01 -1.00000E+00  1.49640E-01
      21    -1     0     0   502   512  0.000000000E+00  0.000000000E+00  4.035685961E+02  4.035685961E+02  0.000000000E+00  0.00000E+00  9.000E+00
      21    -1     0     0   501   502  0.000000000E+00  0.000000000E+00 -1.910387449E+02  1.910387449E+02  0.000000000E+00  0.00000E+00  9.000E+00
      25     1     1     2     0     0  1.789659577E+02 -1.194049840E+02  5.048703043E+00  2.488711587E+02  1.250000000E+02  0.00000E+00  9.000E+00
      25     1     1     2     0     0 -1.871579897E+02  8.674889560E+01  1.685039413E+02  2.942313073E+02  1.250000000E+02  0.00000E+00  9.000E+00
      21     1     1     2   501   512  8.192032032E+00  3.265608842E+01  3.897720685E+01  5.150487505E+01  4.768371582E-07  0.00000E+00  9.000E+00
#rwgt            1           1   2.7171964817320669E-002           7       95417           0
</event>
<event>
      5   9999  3.19816E-02  1.40782E+02 -1.00000E+00  1.17496E-01
      21    -1     0     0   502   501  0.000000000E+00  0.000000000E+00  1.119839722E+03  1.119839722E+03  0.000000000E+00  0.00000E+00  9.000E+00
       2    -1     0     0   501     0  0.000000000E+00  0.000000000E+00 -9.836448173E+02  9.836448173E+02  0.000000000E+00  0.00000E+00  9.000E+00
      25     1     1     2     0     0 -8.890607723E+02 -4.965960987E+00  3.276068840E+02  9.557222337E+02  1.250000000E+02  0.00000E+00  9.000E+00
      25     1     1     2     0     0  7.710904496E+02 -7.186172388E+01  1.315882104E+02  7.954150149E+02  1.250000000E+02  0.00000E+00  9.000E+00
       2     1     1     2   502     0  1.179703227E+02  7.682768487E+01 -3.230001900E+02  3.523472903E+02  3.814697266E-06  0.00000E+00  9.000E+00
#rwgt            1           1   2.0617206332466612E-002           7       95494           0
</event>
<event>
      5   9999  3.19816E-02  1.51358E+02 -1.00000E+00  1.16239E-01
      21    -1     0     0   502   511  0.000000000E+00  0.000000000E+00  2.173775631E+02  2.173775631E+02  0.000000000E+00  0.00000E+00  9.000E+00
      21    -1     0     0   501   502  0.000000000E+00  0.000000000E+00 -5.433703767E+02  5.433703767E+02  0.000000000E+00  0.00000E+00  9.000E+00
      25     1     1     2     0     0  1.670772114E+02 -2.178894524E+02 -2.620215708E+02  3.995884278E+02  1.250000000E+02  0.00000E+00  9.000E+00
      25     1     1     2     0     0 -1.404350864E+02  6.889452916E+01 -1.005742968E+01  2.004859634E+02  1.250000000E+02  0.00000E+00  9.000E+00
      21     1     1     2   501   511 -2.664212504E+01  1.489949232E+02 -5.391381312E+01  1.606735486E+02  1.784161275E-06  0.00000E+00  9.000E+00
#rwgt            1           1   2.7931076970760391E-002           7       95575           0
</event>
<event>
      5   9999  3.19816E-02  2.02001E+01 -1.00000E+00  1.66013E-01
      21    -1     0     0   502   501  0.000000000E+00  0.000000000E+00  5.515150564E+02  5.515150564E+02  0.000000000E+00  0.00000E+00  9.000E+00
      21    -1     0     0   501   512  0.000000000E+00  0.000000000E+00 -1.453984021E+02  1.453984021E+02  0.000000000E+00  0.00000E+00  9.000E+00
      25     1     1     2     0     0  2.085755251E+02  3.566397125E+01  6.400692184E+01  2.539636875E+02  1.250000000E+02  0.00000E+00  9.000E+00
      25     1     1     2     0     0 -2.160299701E+02 -5.443833544E+01  3.355233708E+02  4.217029911E+02  1.250000000E+02  0.00000E+00  9.000E+00
      21     1     1     2   502   512  7.454444945E+00  1.877436419E+01  6.586361664E+00  2.124678000E+01  4.539354507E-07  0.00000E+00  9.000E+00
#rwgt            1           1   2.9596063160009255E-002           7       95632           0
</event>
<event>
      5   9999  3.19816E-02  2.84761E+01 -1.00000E+00  1.54629E-01
      21    -1     0     0   502   501  0.000000000E+00  0.000000000E+00  8.070838762E+02  8.070838762E+02  0.000000000E+00  0.00000E+00  9.000E+00
      21    -1     0     0   511   502  0.000000000E+00  0.000000000E+00 -1.999929959E+02  1.999929959E+02  0.000000000E+00  0.00000E+00  9.000E+00
      25     1     1     2     0     0 -1.058409385E+02  1.572793722E+02 -2.498926864E+00  2.270910607E+02  1.250000000E+02  0.00000E+00  9.000E+00
      25     1     1     2     0     0  8.179150169E+01 -1.725277820E+02  6.729111123E+02  7.105561557E+02  1.250000000E+02  0.00000E+00  9.000E+00
      21     1     1     2   511   501  2.404943680E+01  1.524840978E+01 -6.332130515E+01  6.942965575E+01  1.507891493E-06  0.00000E+00  9.000E+00
#rwgt            1           1   2.8438515642872805E-002           7       95805           0
</event>
<event>
      5   9999  3.19816E-02  2.67350E+01 -1.00000E+00  1.56599E-01
      21    -1     0     0   502   501  0.000000000E+00  0.000000000E+00  1.215969582E+02  1.215969582E+02  0.000000000E+00  0.00000E+00  9.000E+00
       2    -1     0     0   501     0  0.000000000E+00  0.000000000E+00 -1.540103694E+03  1.540103694E+03  0.000000000E+00  0.00000E+00  9.000E+00
      25     1     1     2     0     0 -3.563067820E+02 -2.388995897E+01 -3.204318631E+02  4.958092697E+02  1.250000000E+02  0.00000E+00  9.000E+00
      25     1     1     2     0     0  3.334331890E+02  1.004944743E+01 -9.335663849E+02  9.992246383E+02  1.250000000E+02  0.00000E+00  9.000E+00
       2     1     1     2   502     0  2.287359303E+01  1.384051154E+01 -1.645084882E+02  1.666667445E+02  2.697398305E-06  0.00000E+00  9.000E+00
#rwgt            1           1   2.3667333790981748E-002           7       95963           0
</event>
<event>
      5   9999  3.19816E-02  4.37959E+01 -1.00000E+00  1.42440E-01
      21    -1     0     0   502   501  0.000000000E+00  0.000000000E+00  2.984772120E+02  2.984772120E+02  0.000000000E+00  0.00000E+00  9.000E+00
      21    -1     0     0   511   502  0.000000000E+00  0.000000000E+00 -6.732680913E+02  6.732680913E+02  0.000000000E+00  0.00000E+00  9.000E+00
      25     1     1     2     0     0  1.668511239E+02  6.665938646E+01 -6.874996516E+01  2.294217275E+02  1.250000000E+02  0.00000E+00  9.000E+00
      25     1     1     2     0     0 -1.965190674E+02 -9.887581623E+01  1.433457792E+02  2.908078116E+02  1.250000000E+02  0.00000E+00  9.000E+00
      21     1     1     2   511   501  2.966794358E+01  3.221642977E+01 -4.493866933E+02  4.515157642E+02  5.394796609E-06  0.00000E+00  9.000E+00
#rwgt            1           1   2.5608721505540055E-002           7       96070           0
</event>
<event>
      5   9999  4.83273E-02  1.40819E+01 -1.00000E+00  1.80007E-01
      21    -1     0     0   512   501  0.000000000E+00  0.000000000E+00  2.874487848E+02  2.874487848E+02  0.000000000E+00  0.00000E+00  9.000E+00
      21    -1     0     0   501   502  0.000000000E+00  0.000000000E+00 -7.926873242E+02  7.926873242E+02  0.000000000E+00  0.00000E+00  9.000E+00
      25     1     1     2     0     0  1.568565104E+02  1.934548741E+02  1.704815445E+02  3.266767671E+02  1.250000000E+02  0.00000E+00  9.000E+00
      25     1     1     2     0     0 -1.596317302E+02 -2.072606164E+02 -6.795902318E+02  7.388552873E+02  1.250000000E+02  0.00000E+00  9.000E+00
      21     1     1     2   512   502  2.775219773E+00  1.380574234E+01  3.870147935E+00  1.460405462E+01  2.384185791E-07  0.00000E+00  9.000E+00
#rwgt            1           1   4.8615512957721631E-002           7       96128           0
</event>
<event>
      5   9999  3.19816E-02  3.07454E+02 -1.00000E+00  1.05247E-01
      21    -1     0     0   502   501  0.000000000E+00  0.000000000E+00  3.093042136E+02  3.093042136E+02  0.000000000E+00  0.00000E+00  9.000E+00
       2    -1     0     0   501     0  0.000000000E+00  0.000000000E+00 -3.656425594E+03  3.656425594E+03  0.000000000E+00  0.00000E+00  9.000E+00
      25     1     1     2     0     0 -8.972279089E+01 -1.133189452E+02 -9.343921475E+02  9.537321678E+02  1.250000000E+02  0.00000E+00  9.000E+00
      25     1     1     2     0     0  5.791189377E+01 -1.924853987E+02  2.425896245E+02  3.389382570E+02  1.250000000E+02  0.00000E+00  9.000E+00
       2     1     1     2   502     0  3.181089712E+01  3.058043439E+02 -2.655318857E+03  2.673059382E+03  3.051757812E-05  0.00000E+00  9.000E+00
#rwgt            1           1   2.8037936916337141E-002           7       96364           0
</event>
<event>
      5   9999  3.19816E-02  2.43924E+02 -1.00000E+00  1.08597E-01
       3    -1     0     0   502     0  0.000000000E+00  0.000000000E+00  1.915652240E+03  1.915652240E+03  0.000000000E+00  0.00000E+00  9.000E+00
      21    -1     0     0   501   502  0.000000000E+00  0.000000000E+00 -9.195330984E+01  9.195330984E+01  0.000000000E+00  0.00000E+00  9.000E+00
      25     1     1     2     0     0 -1.124287653E+02 -9.480922242E+01  3.390730058E+02  3.901596073E+02  1.250000000E+02  0.00000E+00  9.000E+00
      25     1     1     2     0     0  1.484327303E+02  3.360617138E+02  7.685880777E+02  8.610008038E+02  1.250000000E+02  0.00000E+00  9.000E+00
       3     1     1     2   501     0 -3.600396499E+01 -2.412524914E+02  7.160378470E+02  7.564451391E+02  7.629394531E-06  0.00000E+00  9.000E+00
#rwgt            1           1   2.9169409818035650E-002           7       96423           0
</event>
<event>
      5   9999  3.19816E-02  2.15002E+01 -1.00000E+00  1.63818E-01
      21    -1     0     0   511   501  0.000000000E+00  0.000000000E+00  1.707053208E+02  1.707053208E+02  0.000000000E+00  0.00000E+00  9.000E+00
      21    -1     0     0   501   502  0.000000000E+00  0.000000000E+00 -5.388236868E+02  5.388236868E+02  0.000000000E+00  0.00000E+00  9.000E+00
      25     1     1     2     0     0  3.381736741E+01 -1.931820658E+02  5.545981881E-01  2.325687694E+02  1.250000000E+02  0.00000E+00  9.000E+00
      25     1     1     2     0     0 -4.544475026E+01  1.750971763E+02 -3.893380070E+02  4.471390501E+02  1.250000000E+02  0.00000E+00  9.000E+00
      21     1     1     2   511   502  1.162738285E+01  1.808488957E+01  2.066504283E+01  2.982118807E+01  0.000000000E+00  0.00000E+00  9.000E+00
#rwgt            1           1   2.3775291217439657E-002           7       96472           0
</event>
<event>
      5   9999  3.19816E-02  4.15212E+02 -1.00000E+00  1.01200E-01
      21    -1     0     0   512   501  0.000000000E+00  0.000000000E+00  1.354656551E+03  1.354656551E+03  0.000000000E+00  0.00000E+00  9.000E+00
      21    -1     0     0   501   502  0.000000000E+00  0.000000000E+00 -1.749770309E+03  1.749770309E+03  0.000000000E+00  0.00000E+00  9.000E+00
      25     1     1     2     0     0  6.660712184E+02  8.471189975E+02 -7.198322758E+01  1.087229529E+03  1.250000000E+02  0.00000E+00  9.000E+00
      25     1     1     2     0     0 -8.765535146E+02 -1.205026579E+03 -4.842798823E+02  1.571810143E+03  1.250000000E+02  0.00000E+00  9.000E+00
      21     1     1     2   512   502  2.104822962E+02  3.579075818E+02  1.611493518E+02  4.453871886E+02  3.303624740E-06  0.00000E+00  9.000E+00
#rwgt            2          11   4.5881861345546948E-003           7       96714           0
</event>
<event>
      5   9999  3.19816E-02  1.08571E+02 -1.00000E+00  1.22243E-01
       2    -1     0     0   502     0  0.000000000E+00  0.000000000E+00  6.663074495E+02  6.663074495E+02  0.000000000E+00  0.00000E+00  9.000E+00
      21    -1     0     0   501   502  0.000000000E+00  0.000000000E+00 -2.218098631E+02  2.218098631E+02  0.000000000E+00  0.00000E+00  9.000E+00
      25     1     1     2     0     0  3.017027166E+01  1.383984258E+02 -1.028712872E+02  2.151089754E+02  1.250000000E+02  0.00000E+00  9.000E+00
      25     1     1     2     0     0 -2.981258020E+01 -2.469687582E+02  3.446614241E+02  4.430562658E+02  1.250000000E+02  0.00000E+00  9.000E+00
       2     1     1     2   501     0 -3.576914607E-01  1.085703324E+02  2.027074496E+02  2.299520714E+02  0.000000000E+00  0.00000E+00  9.000E+00
#rwgt            1           1   2.5756312923971843E-002           7       96734           0
</event>
<event>
      5   9999  3.19816E-02  1.97349E+02 -1.00000E+00  1.11859E-01
      21    -1     0     0   502   501  0.000000000E+00  0.000000000E+00  2.053993830E+02  2.053993830E+02  0.000000000E+00  0.00000E+00  9.000E+00
      21    -1     0     0   501   511  0.000000000E+00  0.000000000E+00 -1.661198617E+03  1.661198617E+03  0.000000000E+00  0.00000E+00  9.000E+00
      25     1     1     2     0     0 -1.259681186E+02  8.573373309E+01  6.553868622E+01  2.076982409E+02  1.250000000E+02  0.00000E+00  9.000E+00
      25     1     1     2     0     0  1.286587361E+02 -2.830647927E+02 -4.069566904E+02  5.271788075E+02  1.250000000E+02  0.00000E+00  9.000E+00
      21     1     1     2   502   511 -2.690617524E+00  1.973310596E+02 -1.114381230E+03  1.131720951E+03  2.642899792E-05  0.00000E+00  9.000E+00
#rwgt            2          11   1.6496479738786255E-003           7       96813           0
</event>
<event>
      5   9999  3.19816E-02  1.30976E+02 -1.00000E+00  1.18777E-01
       2    -1     0     0   502     0  0.000000000E+00  0.000000000E+00  2.734640888E+03  2.734640888E+03  0.000000000E+00  0.00000E+00  9.000E+00
      21    -1     0     0   501   502  0.000000000E+00  0.000000000E+00 -4.459842361E+02  4.459842361E+02  0.000000000E+00  0.00000E+00  9.000E+00
      25     1     1     2     0     0 -7.260996000E+02 -2.250632315E+02  3.914628630E+02  8.641425001E+02  1.250000000E+02  0.00000E+00  9.000E+00
      25     1     1     2     0     0  7.736800055E+02  1.030347812E+02  5.500910633E+02  9.630275671E+02  1.250000000E+02  0.00000E+00  9.000E+00
       2     1     1     2   501     0 -4.758040550E+01  1.220284503E+02  1.347102726E+03  1.353455057E+03  1.525878906E-05  0.00000E+00  9.000E+00
#rwgt            1           1   3.3487832838911241E-002           7       96878           0
</event>
<event>
      5   9999  3.19816E-02  1.45694E+01 -1.00000E+00  1.78584E-01
      21    -1     0     0   502   501  0.000000000E+00  0.000000000E+00  1.747732764E+03  1.747732764E+03  0.000000000E+00  0.00000E+00  9.000E+00
      21    -1     0     0   501   511  0.000000000E+00  0.000000000E+00 -2.993064406E+01  2.993064406E+01  0.000000000E+00  0.00000E+00  9.000E+00
      25     1     1     2     0     0 -7.862800743E+01  1.558678311E+02  8.584849309E+02  8.849285400E+02  1.250000000E+02  0.00000E+00  9.000E+00
      25     1     1     2     0     0  7.641082517E+01 -1.702675760E+02  8.318448825E+02  8.616383059E+02  1.250000000E+02  0.00000E+00  9.000E+00
      21     1     1     2   502   511  2.217182256E+00  1.439974495E+01  2.747230636E+01  3.109656201E+01  3.371747881E-07  0.00000E+00  9.000E+00
#rwgt            1           1   2.9783160898265108E-002           7       96969           0
</event>
<event>
      5   9999  3.19816E-02  9.99574E+01 -1.00000E+00  1.23836E-01
      21    -1     0     0   502   501  0.000000000E+00  0.000000000E+00  9.868863519E+02  9.868863519E+02  0.000000000E+00  0.00000E+00  9.000E+00
      21    -1     0     0   512   502  0.000000000E+00  0.000000000E+00 -7.244985368E+01  7.244985368E+01  0.000000000E+00  0.00000E+00  9.000E+00
      25     1     1     2     0     0 -6.985475892E+01  2.543412766E+00  1.874067385E+02  2.358653046E+02  1.250000000E+02  0.00000E+00  9.000E+00
      25     1     1     2     0     0  1.642256790E+02 -3.549198591E+01  6.827507753E+02  7.141452065E+02  1.250000000E+02  0.00000E+00  9.000E+00
      21     1     1     2   512   501 -9.437092003E+01  3.294857314E+01  4.427898440E+01  1.093256945E+02  8.259061849E-07  0.00000E+00  9.000E+00
#rwgt            1           1   2.9828238312435744E-002           7       97120           0
</event>
<event>
      5   9999  3.19816E-02  3.53515E+01 -1.00000E+00  1.48248E-01
       3    -1     0     0   502     0  0.000000000E+00  0.000000000E+00  6.146944807E+02  6.146944807E+02  0.000000000E+00  0.00000E+00  9.000E+00
      21    -1     0     0   501   502  0.000000000E+00  0.000000000E+00 -1.099647857E+02  1.099647857E+02  0.000000000E+00  0.00000E+00  9.000E+00
      25     1     1     2     0     0 -1.502946470E+02  2.080493665E+01  6.786956855E+01  2.079726055E+02  1.250000000E+02  0.00000E+00  9.000E+00
      25     1     1     2     0     0  1.793077968E+02 -4.100312552E+01  2.890167902E+02  3.646755370E+02  1.250000000E+02  0.00000E+00  9.000E+00
       3     1     1     2   501     0 -2.901314979E+01  2.019818888E+01  1.478433363E+02  1.520111239E+02  1.907348633E-06  0.00000E+00  9.000E+00
#rwgt            1           1   2.6676400534901584E-002           7       97205           0
</event>
<event>
      5   9999  3.19816E-02  1.07681E+01 -1.00000E+00  1.92114E-01
      21    -1     0     0   502   501  0.000000000E+00  0.000000000E+00  2.996127039E+02  2.996127039E+02  0.000000000E+00  0.00000E+00  9.000E+00
      21    -1     0     0   501   511  0.000000000E+00  0.000000000E+00 -6.848194966E+02  6.848194966E+02  0.000000000E+00  0.00000E+00  9.000E+00
      25     1     1     2     0     0 -9.018624232E+01 -7.321181128E+01 -3.816199171E+02  4.180338369E+02  1.250000000E+02  0.00000E+00  9.000E+00
      25     1     1     2     0     0  8.358468009E+01  8.171889895E+01  2.552628580E+02  3.073247531E+02  1.250000000E+02  0.00000E+00  9.000E+00
      21     1     1     2   502   511  6.601562239E+00 -8.507087669E+00 -2.588497335E+02  2.590736106E+02  3.814697266E-06  0.00000E+00  9.000E+00
#rwgt            1           1   2.8352022666763392E-002           7       97340           0
</event>
<event>
      5   9999  3.19816E-02  6.61037E+01 -1.00000E+00  1.32493E-01
      21    -1     0     0   502   501  0.000000000E+00  0.000000000E+00  3.647503081E+02  3.647503081E+02  0.000000000E+00  0.00000E+00  9.000E+00
       2    -1     0     0   501     0  0.000000000E+00  0.000000000E+00 -1.782850782E+03  1.782850782E+03  0.000000000E+00  0.00000E+00  9.000E+00
      25     1     1     2     0     0 -1.920048270E+02 -3.232015214E+02 -6.010237371E+02  7.198469348E+02  1.250000000E+02  0.00000E+00  9.000E+00
      25     1     1     2     0     0  1.527089072E+02  3.763571862E+02  1.558118358E+02  4.526224367E+02  1.250000000E+02  0.00000E+00  9.000E+00
       2     1     1     2   502     0  3.929591979E+01 -5.315566484E+01 -9.728885723E+02  9.751317184E+02  1.525878906E-05  0.00000E+00  9.000E+00
#rwgt            2          13   2.0213254303110191E-003           7       97598           0
</event>
<event>
      5   9999  3.19816E-02  1.35714E+02 -1.00000E+00  1.18143E-01
      21    -1     0     0   502   511  0.000000000E+00  0.000000000E+00  2.503815826E+03  2.503815826E+03  0.000000000E+00  0.00000E+00  9.000E+00
      21    -1     0     0   501   502  0.000000000E+00  0.000000000E+00 -7.427619331E+02  7.427619331E+02  0.000000000E+00  0.00000E+00  9.000E+00
      25     1     1     2     0     0  1.463917711E+02  1.186051288E+01 -6.932746384E+02  7.196012414E+02  1.250000000E+02  0.00000E+00  9.000E+00
      25     1     1     2     0     0 -1.319737074E+01 -3.788865501E+01  9.095774923E+01  1.597123443E+02  1.250000000E+02  0.00000E+00  9.000E+00
      21     1     1     2   501   511 -1.331944003E+02  2.602814213E+01  2.363370782E+03  2.367264173E+03  0.000000000E+00  0.00000E+00  9.000E+00
#rwgt            1           1   2.6485996259014405E-002           7       97632           0
</event>
<event>
      5   9999  3.19816E-02  9.10896E+00 -1.00000E+00  2.00562E-01
      21    -1     0     0   502   501  0.000000000E+00  0.000000000E+00  8.332868521E+02  8.332868521E+02  0.000000000E+00  0.00000E+00  9.000E+00
      21    -1     0     0   512   502  0.000000000E+00  0.000000000E+00 -7.089501485E+01  7.089501485E+01  0.000000000E+00  0.00000E+00  9.000E+00
      25     1     1     2     0     0  4.902733256E+01 -1.538490637E+02  6.032062415E+02  6.368327752E+02  1.250000000E+02  0.00000E+00  9.000E+00
      25     1     1     2     0     0 -5.579228812E+01  1.477491789E+02  1.612489615E+02  2.580093542E+02  1.250000000E+02  0.00000E+00  9.000E+00
      21     1     1     2   512   501  6.764955564E+00  6.099884875E+00 -2.063365789E+00  9.339737558E+00  2.421152116E-07  0.00000E+00  9.000E+00
#rwgt            1           1   3.0312426643057680E-002           7       97662           0
</event>
<event>
      5   9999  3.19816E-02  2.68112E+01 -1.00000E+00  1.56509E-01
      21    -1     0     0   502   501  0.000000000E+00  0.000000000E+00  4.959168774E+02  4.959168774E+02  0.000000000E+00  0.00000E+00  9.000E+00
      21    -1     0     0   501   511  0.000000000E+00  0.000000000E+00 -5.172748281E+02  5.172748281E+02  0.000000000E+00  0.00000E+00  9.000E+00
      25     1     1     2     0     0  2.459755997E+02 -3.391684445E+02 -2.434900640E+02  5.004514369E+02  1.250000000E+02  0.00000E+00  9.000E+00
      25     1     1     2     0     0 -2.320837163E+02  3.162369430E+02  2.436236000E+02  4.783786303E+02  1.250000000E+02  0.00000E+00  9.000E+00
      21     1     1     2   502   511 -1.389188343E+01  2.293150155E+01 -2.149148667E+01  3.436163831E+01  8.920806376E-07  0.00000E+00  9.000E+00
#rwgt            1           1   2.4378109052914435E-002           7       97889           0
</event>
<event>
      5   9999  3.19816E-02  4.95398E+01 -1.00000E+00  1.39305E-01
      21    -1     0     0   502   501  0.000000000E+00  0.000000000E+00  5.037995811E+02  5.037995811E+02  0.000000000E+00  0.00000E+00  9.000E+00
      21    -1     0     0   512   502  0.000000000E+00  0.000000000E+00 -6.844249861E+02  6.844249861E+02  0.000000000E+00  0.00000E+00  9.000E+00
      25     1     1     2     0     0 -3.506688906E+02 -8.883025206E+01 -4.258033958E+02  5.725321095E+02  1.250000000E+02  0.00000E+00  9.000E+00
      25     1     1     2     0     0  3.032021815E+02  7.464919533E+01  3.587641528E+02  4.917731006E+02  1.250000000E+02  0.00000E+00  9.000E+00
      21     1     1     2   512   501  4.746670915E+01  1.418105673E+01 -1.135861620E+02  1.239193570E+02  1.907348633E-06  0.00000E+00  9.000E+00
#rwgt            1           1   2.9229419121806949E-002           7       98043           0
</event>
<event>
      5   9999  3.19816E-02  1.41626E+02 -1.00000E+00  1.17391E-01
      21    -1     0     0   502   501  0.000000000E+00  0.000000000E+00  1.133469546E+02  1.133469546E+02  0.000000000E+00  0.00000E+00  9.000E+00
       5    -1     0     0   501     0  0.000000000E+00  0.000000000E+00 -2.560924562E+03  2.560924562E+03  0.000000000E+00  0.00000E+00  9.000E+00
      25     1     1     2     0     0  2.905324674E+02 -2.369939617E+02 -6.679616407E+02  7.761269264E+02  1.250000000E+02  0.00000E+00  9.000E+00
      25     1     1     2     0     0 -3.409842655E+02  3.693290469E+02 -1.362193853E+03  1.457350784E+03  1.250000000E+02  0.00000E+00  9.000E+00
       5     1     1     2   502     0  5.045179808E+01 -1.323350852E+02 -4.174221142E+02  4.407938068E+02  5.394796609E-06  0.00000E+00  9.000E+00
#rwgt            1           1   2.2693778030686167E-002           7       98189           0
</event>
<event>
      5   9999  3.19816E-02  2.35597E+01 -1.00000E+00  1.60706E-01
      21    -1     0     0   502   501  0.000000000E+00  0.000000000E+00  4.347070327E+02  4.347070327E+02  0.000000000E+00  0.00000E+00  9.000E+00
      21    -1     0     0   511   502  0.000000000E+00  0.000000000E+00 -4.064643718E+02  4.064643718E+02  0.000000000E+00  0.00000E+00  9.000E+00
      25     1     1     2     0     0 -1.451191891E+02  1.072670835E+00  3.822347317E+02  4.275384425E+02  1.250000000E+02  0.00000E+00  9.000E+00
      25     1     1     2     0     0  1.346993881E+02  2.005762480E+01 -3.377159201E+02  3.849977612E+02  1.250000000E+02  0.00000E+00  9.000E+00
      21     1     1     2   511   501  1.041980100E+01 -2.113029564E+01 -1.627615075E+01  2.863520088E+01  5.840038640E-07  0.00000E+00  9.000E+00
#rwgt            1           1   2.6977106596146626E-002           7       98269           0
</event>
<event>
      5   9999  3.19816E-02  1.24388E+01 -1.00000E+00  1.85403E-01
      21    -1     0     0   502   512  0.000000000E+00  0.000000000E+00  1.460718002E+03  1.460718002E+03  0.000000000E+00  0.00000E+00  9.000E+00
      21    -1     0     0   501   502  0.000000000E+00  0.000000000E+00 -1.196463122E+02  1.196463122E+02  0.000000000E+00  0.00000E+00  9.000E+00
      25     1     1     2     0     0 -1.922274634E+01  1.254341757E+02  1.089398762E+02  2.087968942E+02  1.250000000E+02  0.00000E+00  9.000E+00
      25     1     1     2     0     0  1.938838544E+01 -1.378718478E+02  5.591455410E+01  1.952843907E+02  1.250000000E+02  0.00000E+00  9.000E+00
      21     1     1     2   501   512 -1.656390979E-01  1.243767211E+01  1.176217259E+03  1.176283029E+03  0.000000000E+00  0.00000E+00  9.000E+00
#rwgt            1           1   2.8008264265236876E-002           7       98470           0
</event>
<event>
      5   9999  3.19816E-02  3.82828E+01 -1.00000E+00  1.46032E-01
      21    -1     0     0   502   501  0.000000000E+00  0.000000000E+00  5.252902923E+02  5.252902923E+02  0.000000000E+00  0.00000E+00  9.000E+00
      21    -1     0     0   501   511  0.000000000E+00  0.000000000E+00 -2.650049042E+02  2.650049042E+02  0.000000000E+00  0.00000E+00  9.000E+00
      25     1     1     2     0     0  1.623748007E+00  2.391292354E+02 -1.310621591E+02  2.999795282E+02  1.250000000E+02  0.00000E+00  9.000E+00
      25     1     1     2     0     0 -4.922827537E+00 -2.009888048E+02  3.843334953E+02  4.513955799E+02  1.250000000E+02  0.00000E+00  9.000E+00
      21     1     1     2   502   511  3.299079530E+00 -3.814043055E+01  7.014051818E+00  3.892008853E+01  7.052516679E-07  0.00000E+00  9.000E+00
#rwgt            1           1   3.1209608476939769E-002           7       98639           0
</event>
<event>
      5   9999  3.19816E-02  2.00011E+02 -1.00000E+00  1.11647E-01
      21    -1     0     0   502   512  0.000000000E+00  0.000000000E+00  7.467786602E+02  7.467786602E+02  0.000000000E+00  0.00000E+00  9.000E+00
      21    -1     0     0   501   502  0.000000000E+00  0.000000000E+00 -1.995635744E+02  1.995635744E+02  0.000000000E+00  0.00000E+00  9.000E+00
      25     1     1     2     0     0 -3.274551954E+01  1.865061984E+01 -6.664670016E+01  1.465840964E+02  1.250000000E+02  0.00000E+00  9.000E+00
      25     1     1     2     0     0  1.194403048E+02  1.615942882E+02  1.166773926E+02  2.638509321E+02  1.250000000E+02  0.00000E+00  9.000E+00
      21     1     1     2   501   512 -8.669478528E+01 -1.802449081E+02  4.971843933E+02  5.359072061E+02  5.394796609E-06  0.00000E+00  9.000E+00
#rwgt            1           1   2.6626248822183146E-002           7       98854           0
</event>
<event>
      5   9999  3.19816E-02  1.44211E+02 -1.00000E+00  1.17075E-01
      21    -1     0     0   502   511  0.000000000E+00  0.000000000E+00  2.787836041E+03  2.787836041E+03  0.000000000E+00  0.00000E+00  9.000E+00
      21    -1     0     0   501   502  0.000000000E+00  0.000000000E+00 -1.071087622E+03  1.071087622E+03  0.000000000E+00  0.00000E+00  9.000E+00
      25     1     1     2     0     0 -1.405568886E+03  3.900907107E+02  1.611044536E+02  1.472879595E+03  1.250000000E+02  0.00000E+00  9.000E+00
      25     1     1     2     0     0  1.549390038E+03 -4.006808481E+02  1.205879519E+03  2.007716376E+03  1.250000000E+02  0.00000E+00  9.000E+00
      21     1     1     2   501   511 -1.438211519E+02  1.059013737E+01  3.497644459E+02  3.783276918E+02  5.394796609E-06  0.00000E+00  9.000E+00
#rwgt            1           1   1.8179307818131828E-002           7       98892           0
</event>
<event>
      5   9999  3.19816E-02  4.16318E+01 -1.00000E+00  1.43771E-01
      21    -1     0     0   502   501  0.000000000E+00  0.000000000E+00  1.101490800E+02  1.101490800E+02  0.000000000E+00  0.00000E+00  9.000E+00
      21    -1     0     0   501   512  0.000000000E+00  0.000000000E+00 -1.138001476E+03  1.138001476E+03  0.000000000E+00  0.00000E+00  9.000E+00
      25     1     1     2     0     0  1.246490029E+02 -7.498279045E+01  6.951696673E-01  1.917948801E+02  1.250000000E+02  0.00000E+00  9.000E+00
      25     1     1     2     0     0 -8.957932288E+01  9.741765873E+01 -6.340020128E+02  6.596197447E+02  1.250000000E+02  0.00000E+00  9.000E+00
      21     1     1     2   502   512 -3.506968001E+01 -2.243486829E+01 -3.945455531E+02  3.967359314E+02  5.394796609E-06  0.00000E+00  9.000E+00
#rwgt            1           1   2.8558450460012440E-002           7       99022           0
</event>
<event>
      5   9999  3.19816E-02  6.03981E+01 -1.00000E+00  1.34550E-01
      21    -1     0     0   502   501  0.000000000E+00  0.000000000E+00  4.767187418E+01  4.767187418E+01  0.000000000E+00  0.00000E+00  9.000E+00
      21    -1     0     0   511   502  0.000000000E+00  0.000000000E+00 -1.004308873E+03  1.004308873E+03  0.000000000E+00  0.00000E+00  9.000E+00
      25     1     1     2     0     0 -8.339703164E+01  1.387341216E+02 -3.462681217E+02  4.021552356E+02  1.250000000E+02  0.00000E+00  9.000E+00
      25     1     1     2     0     0  4.250706013E+01 -9.428255312E+01 -4.605536052E+02  4.882936342E+02  1.250000000E+02  0.00000E+00  9.000E+00
      21     1     1     2   511   501  4.088997151E+01 -4.445156848E+01 -1.498152719E+02  1.615318773E+02  2.697398305E-06  0.00000E+00  9.000E+00
#rwgt            1           1   2.5491710898490502E-002           7       99129           0
</event>
<event>
      5   9999  3.19816E-02  3.30697E+02 -1.00000E+00  1.04235E-01
      21    -1     0     0   502   501  0.000000000E+00  0.000000000E+00  1.582805714E+03  1.582805714E+03  0.000000000E+00  0.00000E+00  9.000E+00
      21    -1     0     0   501   512  0.000000000E+00  0.000000000E+00 -8.635415890E+02  8.635415890E+02  0.000000000E+00  0.00000E+00  9.000E+00
      25     1     1     2     0     0 -1.220515185E+02  1.043663566E+03  3.054165571E+02  1.101378448E+03  1.250000000E+02  0.00000E+00  9.000E+00
      25     1     1     2     0     0 -1.582695487E+02 -8.682189236E+02  4.729382959E+02  1.009033687E+03  1.250000000E+02  0.00000E+00  9.000E+00
      21     1     1     2   502   512  2.803210672E+02 -1.754446425E+02 -5.909072767E+01  3.359351684E+02  6.641573084E-06  0.00000E+00  9.000E+00
#rwgt            1           1   3.5665607492525161E-002           7       99176           0
</event>
<event>
      5   9999  3.19816E-02  3.98761E+01 -1.00000E+00  1.44924E-01
      21    -1     0     0   502   501  0.000000000E+00  0.000000000E+00  2.245621192E+02  2.245621192E+02  0.000000000E+00  0.00000E+00  9.000E+00
      21    -1     0     0   501   511  0.000000000E+00  0.000000000E+00 -8.380783476E+02  8.380783476E+02  0.000000000E+00  0.00000E+00  9.000E+00
      25     1     1     2     0     0  1.250198995E+02 -3.463175382E+02 -1.836977091E+02  4.300414641E+02  1.250000000E+02  0.00000E+00  9.000E+00
      25     1     1     2     0     0 -1.222146243E+02  3.860947941E+02 -4.003193266E+02  5.829975709E+02  1.250000000E+02  0.00000E+00  9.000E+00
      21     1     1     2   502   511 -2.805275218E+00 -3.977725597E+01 -2.949919283E+01  4.960143183E+01  5.840038640E-07  0.00000E+00  9.000E+00
#rwgt            1           1   2.6909317665592711E-002           7       99237           0
</event>
<event>
      5   9999  3.19816E-02  1.15761E+02 -1.00000E+00  1.21035E-01
      21    -1     0     0   502   501  0.000000000E+00  0.000000000E+00  1.378338169E+02  1.378338169E+02  0.000000000E+00  0.00000E+00  9.000E+00
       3    -1     0     0   501     0  0.000000000E+00  0.000000000E+00 -1.763967983E+03  1.763967983E+03  0.000000000E+00  0.00000E+00  9.000E+00
      25     1     1     2     0     0  7.398088765E+01 -2.167657644E+02 -2.687222320E+02  3.745626868E+02  1.250000000E+02  0.00000E+00  9.000E+00
      25     1     1     2     0     0 -7.370778617E+01  3.325267231E+02 -3.211454751E+02  4.845268574E+02  1.250000000E+02  0.00000E+00  9.000E+00
       3     1     1     2   502     0 -2.731014835E-01 -1.157609587E+02 -1.036266459E+03  1.042712255E+03  1.525878906E-05  0.00000E+00  9.000E+00
#rwgt            1           1   3.3172706309180650E-002           7       99390           0
</event>
<event>
      5   9999  3.19816E-02  1.99004E+01 -1.00000E+00  1.66548E-01
      21    -1     0     0   502   501  0.000000000E+00  0.000000000E+00  3.082645986E+02  3.082645986E+02  0.000000000E+00  0.00000E+00  9.000E+00
      21    -1     0     0   511   502  0.000000000E+00  0.000000000E+00 -6.541227579E+02  6.541227579E+02  0.000000000E+00  0.00000E+00  9.000E+00
      25     1     1     2     0     0 -2.785890890E+02  1.568298092E+02 -4.283337379E+02  5.489100661E+02  1.250000000E+02  0.00000E+00  9.000E+00
      25     1     1     2     0     0  2.817477427E+02 -1.764779794E+02  1.167248049E+02  3.738662165E+02  1.250000000E+02  0.00000E+00  9.000E+00
      21     1     1     2   511   501 -3.158653743E+00  1.964817017E+01 -3.424922620E+01  3.961107395E+01  6.743495762E-07  0.00000E+00  9.000E+00
#rwgt            1           1   2.8085847551867247E-002           7       99451           0
</event>
<event>
      5   9999  3.19816E-02  6.16094E+00 -1.00000E+00  2.23701E-01
      21    -1     0     0   502   501  0.000000000E+00  0.000000000E+00  3.461918015E+01  3.461918015E+01  0.000000000E+00  0.00000E+00  9.000E+00
      21    -1     0     0   512   502  0.000000000E+00  0.000000000E+00 -2.283158728E+03  2.283158728E+03  0.000000000E+00  0.00000E+00  9.000E+00
      25     1     1     2     0     0  5.233589735E+01 -2.041006343E+02 -6.977670286E+02  7.395268361E+02  1.250000000E+02  0.00000E+00  9.000E+00
      25     1     1     2     0     0 -4.647271425E+01  2.022084674E+02 -1.055384403E+03  1.082824647E+03  1.250000000E+02  0.00000E+00  9.000E+00
      21     1     1     2   512   501 -5.863183105E+00  1.892166879E+00 -4.953881159E+02  4.954264250E+02  7.629394531E-06  0.00000E+00  9.000E+00
#rwgt            1           1   2.7932713457156033E-002           7       99646           0
</event>
<event>
      5   9999  3.19816E-02  1.74400E+01 -1.00000E+00  1.71431E-01
      21    -1     0     0   502   511  0.000000000E+00  0.000000000E+00  8.117550397E+02  8.117550397E+02  0.000000000E+00  0.00000E+00  9.000E+00
      21    -1     0     0   501   502  0.000000000E+00  0.000000000E+00 -4.809062052E+02  4.809062052E+02  0.000000000E+00  0.00000E+00  9.000E+00
      25     1     1     2     0     0 -1.411446373E+02  1.077967250E+02  7.536162934E+02  7.842859556E+02  1.250000000E+02  0.00000E+00  9.000E+00
      25     1     1     2     0     0  1.576883546E+02 -1.133157755E+02 -4.310911199E+02  4.890507497E+02  1.250000000E+02  0.00000E+00  9.000E+00
      21     1     1     2   501   511 -1.654371728E+01  5.519050523E+00  8.323660956E+00  1.932453963E+01  1.192092896E-07  0.00000E+00  9.000E+00
#rwgt            1           1   3.0669390165115589E-002           7       99919           0
</event>
<event>
      5   9999  3.19816E-02  1.14945E+02 -1.00000E+00  1.21167E-01
      21    -1     0     0   512   501  0.000000000E+00  0.000000000E+00  3.104858859E+02  3.104858859E+02  0.000000000E+00  0.00000E+00  9.000E+00
      21    -1     0     0   501   502  0.000000000E+00  0.000000000E+00 -7.892238253E+02  7.892238253E+02  0.000000000E+00  0.00000E+00  9.000E+00
      25     1     1     2     0     0  3.097578746E+02  6.657263405E+00 -4.275066558E+02  5.425690747E+02  1.250000000E+02  0.00000E+00  9.000E+00
      25     1     1     2     0     0 -4.125329309E+02  4.481639105E+01 -5.445372227E+00  4.334127133E+02  1.250000000E+02  0.00000E+00  9.000E+00
      21     1     1     2   512   502  1.027750563E+02 -5.147365445E+01 -4.578591136E+01  1.237279232E+02  2.236564522E-06  0.00000E+00  9.000E+00
#rwgt            1           1   2.7073909111135750E-002           7      100170           0
</event>
<event>
      5   9999  3.19816E-02  1.50713E+01 -1.00000E+00  1.77190E-01
      21    -1     0     0   511   501  0.000000000E+00  0.000000000E+00  3.766418808E+02  3.766418808E+02  0.000000000E+00  0.00000E+00  9.000E+00
      21    -1     0     0   501   502  0.000000000E+00  0.000000000E+00 -1.562387518E+02  1.562387518E+02  0.000000000E+00  0.00000E+00  9.000E+00
      25     1     1     2     0     0 -1.324452925E+02  3.099422986E+01 -4.849709318E+01  1.909957220E+02  1.250000000E+02  0.00000E+00  9.000E+00
      25     1     1     2     0     0  1.474558465E+02 -3.234591823E+01  2.473975669E+02  3.156264266E+02  1.250000000E+02  0.00000E+00  9.000E+00
      21     1     1     2   511   502 -1.501055401E+01  1.351688368E+00  2.150265531E+01  2.625848394E+01  2.384185791E-07  0.00000E+00  9.000E+00
#rwgt            1           1   2.8714601702408089E-002           7      100233           0
</event>
<event>
      5   9999  3.19816E-02  8.66056E+01 -1.00000E+00  1.26704E-01
      21    -1     0     0   502   512  0.000000000E+00  0.000000000E+00  7.229735433E+02  7.229735433E+02  0.000000000E+00  0.00000E+00  9.000E+00
      21    -1     0     0   501   502  0.000000000E+00  0.000000000E+00 -1.577104037E+02  1.577104037E+02  0.000000000E+00  0.00000E+00  9.000E+00
      25     1     1     2     0     0 -4.466521337E+01 -5.933137237E+01  4.077119477E+02  4.328616700E+02  1.250000000E+02  0.00000E+00  9.000E+00
      25     1     1     2     0     0  2.692837698E+01  1.441012833E+02 -6.950654432E+01  2.048083910E+02  1.250000000E+02  0.00000E+00  9.000E+00
      21     1     1     2   501   512  1.773683639E+01 -8.476991094E+01  2.270577362E+02  2.430138859E+02  4.672030912E-06  0.00000E+00  9.000E+00
#rwgt            1           1   2.5859369282585577E-002           7      100415           0
</event>
<event>
      5   9999  3.19816E-02  2.93161E+02 -1.00000E+00  1.05918E-01
      21    -1     0     0   502   501  0.000000000E+00  0.000000000E+00  5.923665332E+02  5.923665332E+02  0.000000000E+00  0.00000E+00  9.000E+00
      21    -1     0     0   511   502  0.000000000E+00  0.000000000E+00 -9.740403811E+02  9.740403811E+02  0.000000000E+00  0.00000E+00  9.000E+00
      25     1     1     2     0     0 -1.466292378E+02 -5.715916609E+02  2.408137092E+02  6.494870305E+02  1.250000000E+02  0.00000E+00  9.000E+00
      25     1     1     2     0     0  1.890050185E+02  2.815093913E+02 -4.486530777E+02  5.760946264E+02  1.250000000E+02  0.00000E+00  9.000E+00
      21     1     1     2   511   501 -4.237578068E+01  2.900822696E+02 -1.738344794E+02  3.408252575E+02  3.303624740E-06  0.00000E+00  9.000E+00
#rwgt            1           1   3.0424283923693521E-002           7      100467           0
</event>
<event>
      5   9999  3.19816E-02  2.39510E+01 -1.00000E+00  1.60158E-01
      21    -1     0     0   502   501  0.000000000E+00  0.000000000E+00  5.601031122E+02  5.601031122E+02  0.000000000E+00  0.00000E+00  9.000E+00
      21    -1     0     0   501   512  0.000000000E+00  0.000000000E+00 -2.082636170E+02  2.082636170E+02  0.000000000E+00  0.00000E+00  9.000E+00
      25     1     1     2     0     0  2.169700926E+02 -1.310056924E+02 -1.652525619E+01  2.830840805E+02  1.250000000E+02  0.00000E+00  9.000E+00
      25     1     1     2     0     0 -1.930591719E+02  1.323907252E+02  3.759344209E+02  4.601639238E+02  1.250000000E+02  0.00000E+00  9.000E+00
      21     1     1     2   502   512 -2.391092069E+01 -1.385032855E+00 -7.569669488E+00  2.511872490E+01  4.768371582E-07  0.00000E+00  9.000E+00
#rwgt            1           1   2.5737377339719716E-002           7      100545           0
</event>
<event>
      5   9999  3.19816E-02  3.29320E+01 -1.00000E+00  1.50279E-01
       2    -1     0     0   502     0  0.000000000E+00  0.000000000E+00  1.193531245E+03  1.193531245E+03  0.000000000E+00  0.00000E+00  9.000E+00
      21    -1     0     0   501   502  0.000000000E+00  0.000000000E+00 -1.101340252E+02  1.101340252E+02  0.000000000E+00  0.00000E+00  9.000E+00
      25     1     1     2     0     0  3.218987958E+01  2.889554569E+01 -6.018115999E+01  1.453200362E+02  1.250000000E+02  0.00000E+00  9.000E+00
      25     1     1     2     0     0 -5.967572842E+01 -4.703506780E+01  8.062297426E+02  8.193929997E+02  1.250000000E+02  0.00000E+00  9.000E+00
       2     1     1     2   501     0  2.748584884E+01  1.813952212E+01  3.373486374E+02  3.389522345E+02  3.814697266E-06  0.00000E+00  9.000E+00
#rwgt            1           1   2.8147524368248848E-002           7      100698           0
</event>
<event>
      5   9999  3.19816E-02  2.23236E+01 -1.00000E+00  1.62525E-01
      21    -1     0     0   502   501  0.000000000E+00  0.000000000E+00  1.340423347E+03  1.340423347E+03  0.000000000E+00  0.00000E+00  9.000E+00
      21    -1     0     0   501   511  0.000000000E+00  0.000000000E+00 -1.283566562E+02  1.283566562E+02  0.000000000E+00  0.00000E+00  9.000E+00
      25     1     1     2     0     0  1.118516998E+02 -2.507711689E+02  1.136335218E+02  3.223888323E+02  1.250000000E+02  0.00000E+00  9.000E+00
      25     1     1     2     0     0 -8.983713111E+01  2.544726309E+02  1.068072099E+03  1.108706470E+03  1.250000000E+02  0.00000E+00  9.000E+00
      21     1     1     2   502   511 -2.201456869E+01 -3.701461909E+00  3.036107068E+01  3.768470071E+01  4.768371582E-07  0.00000E+00  9.000E+00
#rwgt            1           1   2.8107382043411143E-002           7      100784           0
</event>
<event>
      5   9999  3.19816E-02  6.52932E+01 -1.00000E+00  1.32770E-01
      21    -1     0     0   512   501  0.000000000E+00  0.000000000E+00  1.127178218E+03  1.127178218E+03  0.000000000E+00  0.00000E+00  9.000E+00
      21    -1     0     0   501   502  0.000000000E+00  0.000000000E+00 -2.503872091E+02  2.503872091E+02  0.000000000E+00  0.00000E+00  9.000E+00
      25     1     1     2     0     0 -1.346518957E+02  1.127620520E+02  9.457517034E+02  9.700091225E+02  1.250000000E+02  0.00000E+00  9.000E+00
      25     1     1     2     0     0  1.997106831E+02 -1.182899346E+02 -1.501320431E+02  3.033834141E+02  1.250000000E+02  0.00000E+00  9.000E+00
      21     1     1     2   512   502 -6.505878735E+01  5.527882653E+00  8.117134875E+01  1.041728907E+02  1.651812370E-06  0.00000E+00  9.000E+00
#rwgt            1           1   2.8938684158373040E-002           7      100866           0
</event>
<event>
      5   9999  3.19816E-02  2.69996E+02 -1.00000E+00  1.07101E-01
      21    -1     0     0   502   511  0.000000000E+00  0.000000000E+00  4.674573865E+02  4.674573865E+02  0.000000000E+00  0.00000E+00  9.000E+00
      21    -1     0     0   501   502  0.000000000E+00  0.000000000E+00 -2.281592982E+03  2.281592982E+03  0.000000000E+00  0.00000E+00  9.000E+00
      25     1     1     2     0     0 -9.677424882E+02  7.738843059E+01 -1.296571395E+03  1.624572828E+03  1.250000000E+02  0.00000E+00  9.000E+00
      25     1     1     2     0     0  7.169624330E+02  2.264887966E+01 -3.685601915E+02  8.160941838E+02  1.250000000E+02  0.00000E+00  9.000E+00
      21     1     1     2   501   511  2.507800552E+02 -1.000373102E+02 -1.490040088E+02  3.083833559E+02  6.031565972E-06  0.00000E+00  9.000E+00
#rwgt            2          11   6.0074435262604713E-003           7      100981           0
</event>
<event>
      5   9999  3.19816E-02  1.27236E+01 -1.00000E+00  1.84394E-01
      21    -1     0     0   512   501  0.000000000E+00  0.000000000E+00  7.781464590E+02  7.781464590E+02  0.000000000E+00  0.00000E+00  9.000E+00
      21    -1     0     0   501   502  0.000000000E+00  0.000000000E+00 -6.668819388E+01  6.668819388E+01  0.000000000E+00  0.00000E+00  9.000E+00
      25     1     1     2     0     0  2.415800701E+01  3.172786555E+01  5.483339668E+02  5.638132722E+02  1.250000000E+02  0.00000E+00  9.000E+00
      25     1     1     2     0     0 -2.723496267E+01 -4.407379290E+01  1.935353633E+01  1.366887039E+02  1.250000000E+02  0.00000E+00  9.000E+00
      21     1     1     2   512   502  3.076955662E+00  1.234592735E+01  1.437707619E+02  1.443326767E+02  2.697398305E-06  0.00000E+00  9.000E+00
#rwgt            1           1   2.6624592485830899E-002           7      101031           0
</event>
<event>
      5   9999  3.19816E-02  2.55538E+01 -1.00000E+00  1.58041E-01
      21    -1     0     0   502   501  0.000000000E+00  0.000000000E+00  6.385391983E+02  6.385391983E+02  0.000000000E+00  0.00000E+00  9.000E+00
      21    -1     0     0   511   502  0.000000000E+00  0.000000000E+00 -1.071652923E+03  1.071652923E+03  0.000000000E+00  0.00000E+00  9.000E+00
      25     1     1     2     0     0 -4.177890050E+02  4.888498188E+02 -3.783217150E+02  7.564880159E+02  1.250000000E+02  0.00000E+00  9.000E+00
      25     1     1     2     0     0  4.028363772E+02 -4.681274591E+02  2.277479686E+02  6.700108969E+02  1.250000000E+02  0.00000E+00  9.000E+00
      21     1     1     2   511   501  1.495262788E+01 -2.072235975E+01 -2.825399785E+02  2.836932088E+02  0.000000000E+00  0.00000E+00  9.000E+00
#rwgt            1           1   2.0514274911892737E-002           7      101186           0
</event>
<event>
      5   9999  3.19816E-02  8.22194E+01 -1.00000E+00  1.27777E-01
      21    -1     0     0   502   501  0.000000000E+00  0.000000000E+00  4.188095806E+02  4.188095806E+02  0.000000000E+00  0.00000E+00  9.000E+00
       2    -1     0     0   501     0  0.000000000E+00  0.000000000E+00 -2.026273467E+03  2.026273467E+03  0.000000000E+00  0.00000E+00  9.000E+00
      25     1     1     2     0     0  6.627651759E+02  3.570471437E+02 -1.475655643E+03  1.661302175E+03  1.250000000E+02  0.00000E+00  9.000E+00
      25     1     1     2     0     0 -5.876425634E+02 -3.236311352E+02 -8.117900604E+01  6.872233443E+02  1.250000000E+02  0.00000E+00  9.000E+00
       2     1     1     2   502     0 -7.512261245E+01 -3.341600853E+01 -5.062923747E+01  9.655752800E+01  9.536743164E-07  0.00000E+00  9.000E+00
#rwgt            1           1   3.0953457491003051E-002           7      101402           0
</event>
<event>
      5   9999  3.19816E-02  5.01412E+02 -1.00000E+00  9.88172E-02
      21    -1     0     0   502   501  0.000000000E+00  0.000000000E+00  2.629169038E+03  2.629169038E+03  0.000000000E+00  0.00000E+00  9.000E+00
      21    -1     0     0   501   511  0.000000000E+00  0.000000000E+00 -2.420698824E+02  2.420698824E+02  0.000000000E+00  0.00000E+00  9.000E+00
      25     1     1     2     0     0 -2.262870097E+02  6.904102478E+02  1.488940550E+03  1.661457517E+03  1.250000000E+02  0.00000E+00  9.000E+00
      25     1     1     2     0     0  1.366772267E+02 -1.970706009E+02  5.040555241E+02  5.720266230E+02  1.250000000E+02  0.00000E+00  9.000E+00
      21     1     1     2   502   511  8.960978301E+01 -4.933396469E+02  3.941030818E+02  6.377547801E+02  5.394796609E-06  0.00000E+00  9.000E+00
#rwgt            2          11   2.1783519184445797E-003           7      101471           0
</event>
<event>
      5   9999  3.19816E-02  1.89790E+02 -1.00000E+00  1.12483E-01
      -2    -1     0     0     0   501  0.000000000E+00  0.000000000E+00  8.640248284E+02  8.640248284E+02  0.000000000E+00  0.00000E+00  9.000E+00
      21    -1     0     0   501   502  0.000000000E+00  0.000000000E+00 -2.131073392E+02  2.131073392E+02  0.000000000E+00  0.00000E+00  9.000E+00
      25     1     1     2     0     0  1.859682748E+02 -6.866362662E+01  3.399582885E+02  4.129110446E+02  1.250000000E+02  0.00000E+00  9.000E+00
      25     1     1     2     0     0 -3.093999312E+02 -7.550566120E+01  5.648002384E+01  3.467627653E+02  1.250000000E+02  0.00000E+00  9.000E+00
      -2     1     1     2     0   502  1.234316564E+02  1.441692878E+02  2.544791769E+02  3.174583577E+02  3.814697266E-06  0.00000E+00  9.000E+00
#rwgt            1           1   3.1181264997815317E-002           7      101491           0
</event>
<event>
      5   9999  3.19816E-02  4.99460E+01 -1.00000E+00  1.39102E-01
      21    -1     0     0   511   501  0.000000000E+00  0.000000000E+00  1.236093782E+03  1.236093782E+03  0.000000000E+00  0.00000E+00  9.000E+00
      21    -1     0     0   501   502  0.000000000E+00  0.000000000E+00 -8.390446569E+01  8.390446569E+01  0.000000000E+00  0.00000E+00  9.000E+00
      25     1     1     2     0     0  7.747739515E-01 -2.486303153E+02  7.785609727E+02  8.268009568E+02  1.250000000E+02  0.00000E+00  9.000E+00
      25     1     1     2     0     0  3.283998797E+01  2.116891277E+02  2.195885943E+02  3.312625882E+02  1.250000000E+02  0.00000E+00  9.000E+00
      21     1     1     2   511   502 -3.361476193E+01  3.694118762E+01  1.540397497E+02  1.619347030E+02  2.697398305E-06  0.00000E+00  9.000E+00
#rwgt            1           1   2.9266002041185634E-002           7      101534           0
</event>
<event>
      5   9999  3.19816E-02  9.72715E+01 -1.00000E+00  1.24371E-01
       2    -1     0     0   502     0  0.000000000E+00  0.000000000E+00  5.278353937E+03  5.278353937E+03  0.000000000E+00  0.00000E+00  9.000E+00
      21    -1     0     0   501   502  0.000000000E+00  0.000000000E+00 -7.485511353E+02  7.485511353E+02  0.000000000E+00  0.00000E+00  9.000E+00
      25     1     1     2     0     0 -3.868657205E+02  6.478184157E+02  1.514137147E+02  7.796697368E+02  1.250000000E+02  0.00000E+00  9.000E+00
      25     1     1     2     0     0  4.437640165E+02 -7.267128151E+02 -7.120363782E+00  8.606472666E+02  1.250000000E+02  0.00000E+00  9.000E+00
       2     1     1     2   501     0 -5.689829597E+01  7.889439937E+01  4.385509451E+03  4.386588069E+03  8.631674575E-05  0.00000E+00  9.000E+00
#rwgt            1           1   2.3659546728147948E-002           7      101628           0
</event>
<event>
      5   9999  3.19816E-02  1.90129E+01 -1.00000E+00  1.68203E-01
      21    -1     0     0   502   501  0.000000000E+00  0.000000000E+00  1.221441654E+03  1.221441654E+03  0.000000000E+00  0.00000E+00  9.000E+00
      21    -1     0     0   511   502  0.000000000E+00  0.000000000E+00 -5.328398398E+01  5.328398398E+01  0.000000000E+00  0.00000E+00  9.000E+00
      25     1     1     2     0     0  5.345558299E+01  6.470344236E+01  1.043208635E+03  1.054017690E+03  1.250000000E+02  0.00000E+00  9.000E+00
      25     1     1     2     0     0 -5.284809654E+01 -8.370664237E+01  9.614594088E+01  1.861955027E+02  1.250000000E+02  0.00000E+00  9.000E+00
      21     1     1     2   511   501 -6.074864488E-01  1.900320001E+01  2.880309489E+01  3.451244596E+01  3.371747881E-07  0.00000E+00  9.000E+00
#rwgt            1           1   3.1001722112673772E-002           7      101810           0
</event>
<event>
      5   9999  3.19816E-02  3.30858E+01 -1.00000E+00  1.50144E-01
      21    -1     0     0   502   512  0.000000000E+00  0.000000000E+00  4.668906030E+02  4.668906030E+02  0.000000000E+00  0.00000E+00  9.000E+00
      21    -1     0     0   501   502  0.000000000E+00  0.000000000E+00 -9.646620147E+02  9.646620147E+02  0.000000000E+00  0.00000E+00  9.000E+00
      25     1     1     2     0     0  3.560550584E+01 -3.842836060E+02 -7.620158659E+02  8.632698430E+02  1.250000000E+02  0.00000E+00  9.000E+00
      25     1     1     2     0     0 -6.196791917E+01  4.042759701E+02  1.562308090E+02  4.553154386E+02  1.250000000E+02  0.00000E+00  9.000E+00
      21     1     1     2   501   512  2.636241333E+01 -1.999236403E+01  1.080136452E+02  1.129673360E+02  0.000000000E+00  0.00000E+00  9.000E+00
#rwgt            1           1   3.1057161363850203E-002           7      101950           0
</event>
<event>
      5   9999  3.19816E-02  6.15101E+02 -1.00000E+00  9.63614E-02
      21    -1     0     0   502   511  0.000000000E+00  0.000000000E+00  1.922369044E+03  1.922369044E+03  0.000000000E+00  0.00000E+00  9.000E+00
      21    -1     0     0   501   502  0.000000000E+00  0.000000000E+00 -7.890437503E+02  7.890437503E+02  0.000000000E+00  0.00000E+00  9.000E+00
      25     1     1     2     0     0 -4.702850838E+02 -4.673961406E+02 -4.769671655E+02  8.262868081E+02  1.250000000E+02  0.00000E+00  9.000E+00
      25     1     1     2     0     0  3.149892338E+02 -1.277784927E+02  5.285177817E+02  6.407039927E+02  1.250000000E+02  0.00000E+00  9.000E+00
      21     1     1     2   501   511  1.552958500E+02  5.951746333E+02  1.081774677E+03  1.244421993E+03  0.000000000E+00  0.00000E+00  9.000E+00
#rwgt            2          11   9.5995860135859922E-004           7      102154           0
</event>
<event>
      5   9999  3.19816E-02  1.46522E+02 -1.00000E+00  1.16799E-01
       2    -1     0     0   502     0  0.000000000E+00  0.000000000E+00  1.779895491E+03  1.779895491E+03  0.000000000E+00  0.00000E+00  9.000E+00
      21    -1     0     0   501   502  0.000000000E+00  0.000000000E+00 -5.285210398E+02  5.285210398E+02  0.000000000E+00  0.00000E+00  9.000E+00
      25     1     1     2     0     0 -2.598131601E+02  3.225584418E+02 -1.202911967E+02  4.490454304E+02  1.250000000E+02  0.00000E+00  9.000E+00
      25     1     1     2     0     0  2.193895656E+02 -1.817234653E+02 -1.396268803E+02  3.409924707E+02  1.250000000E+02  0.00000E+00  9.000E+00
       2     1     1     2   501     0  4.042359450E+01 -1.408349765E+02  1.511292528E+03  1.518378630E+03  3.051757812E-05  0.00000E+00  9.000E+00
#rwgt            2          18   4.1424711101731232E-003           7      102219           0
</event>
<event>
      5   9999  3.19816E-02  1.71142E+02 -1.00000E+00  1.14168E-01
      21    -1     0     0   502   501  0.000000000E+00  0.000000000E+00  2.587716907E+02  2.587716907E+02  0.000000000E+00  0.00000E+00  9.000E+00
      21    -1     0     0   501   511  0.000000000E+00  0.000000000E+00 -1.402530174E+03  1.402530174E+03  0.000000000E+00  0.00000E+00  9.000E+00
      25     1     1     2     0     0  1.045099268E+01 -1.264117974E+02  1.982865234E+02  2.665177502E+02  1.250000000E+02  0.00000E+00  9.000E+00
      25     1     1     2     0     0 -2.523404330E+00 -4.454660445E+01 -1.033207375E+03  1.041697291E+03  1.250000000E+02  0.00000E+00  9.000E+00
      21     1     1     2   502   511 -7.927588354E+00  1.709584019E+02 -3.088376320E+02  3.530868233E+02  6.607249480E-06  0.00000E+00  9.000E+00
#rwgt            1           1   3.0115550877155783E-002           7      102238           0
</event>
<event>
      5   9999  3.19816E-02  6.77045E+01 -1.00000E+00  1.31958E-01
      21    -1     0     0   502   501  0.000000000E+00  0.000000000E+00  3.910169416E+02  3.910169416E+02  0.000000000E+00  0.00000E+00  9.000E+00
       2    -1     0     0   501     0  0.000000000E+00  0.000000000E+00 -9.931710573E+02  9.931710573E+02  0.000000000E+00  0.00000E+00  9.000E+00
      25     1     1     2     0     0 -4.422512010E+02 -3.289320882E+02 -2.296225107E+02  6.100278198E+02  1.250000000E+02  0.00000E+00  9.000E+00
      25     1     1     2     0     0  5.068209453E+02  3.085693319E+02 -3.059417130E+02  6.791964627E+02  1.250000000E+02  0.00000E+00  9.000E+00
       2     1     1     2   502     0 -6.456974427E+01  2.036275632E+01 -6.658989193E+01  9.496371637E+01  2.523185073E-06  0.00000E+00  9.000E+00
#rwgt            1           1   2.7558031249824644E-002           7      102280           0
</event>
<event>
      5   9999  3.19816E-02  1.14628E+02 -1.00000E+00  1.21219E-01
      21    -1     0     0   502   501  0.000000000E+00  0.000000000E+00  1.018902107E+03  1.018902107E+03  0.000000000E+00  0.00000E+00  9.000E+00
      21    -1     0     0   501   511  0.000000000E+00  0.000000000E+00 -1.591937565E+03  1.591937565E+03  0.000000000E+00  0.00000E+00  9.000E+00
      25     1     1     2     0     0  6.915171268E+02 -8.343870040E+01  2.931716019E+02  7.659846876E+02  1.250000000E+02  0.00000E+00  9.000E+00
      25     1     1     2     0     0 -8.030083638E+02  5.680453366E+01  1.447485432E+02  8.274214937E+02  1.250000000E+02  0.00000E+00  9.000E+00
      21     1     1     2   502   511  1.114912370E+02  2.663416674E+01 -1.010955604E+03  1.017433490E+03  1.525878906E-05  0.00000E+00  9.000E+00
#rwgt            1           1   3.0153432780901646E-002           7      102363           0
</event>
<event>
      5   9999  3.19816E-02  1.34456E+01 -1.00000E+00  1.81980E-01
      21    -1     0     0   512   501  0.000000000E+00  0.000000000E+00  7.093448049E+02  7.093448049E+02  0.000000000E+00  0.00000E+00  9.000E+00
      21    -1     0     0   501   502  0.000000000E+00  0.000000000E+00 -3.831165350E+01  3.831165350E+01  0.000000000E+00  0.00000E+00  9.000E+00
      25     1     1     2     0     0 -4.798495322E+00  4.605656785E+01  1.309145088E+02  1.868364033E+02  1.250000000E+02  0.00000E+00  9.000E+00
      25     1     1     2     0     0  1.731965156E+01 -5.095590357E+01  5.098178176E+02  5.276700500E+02  1.250000000E+02  0.00000E+00  9.000E+00
      21     1     1     2   512   502 -1.252115623E+01  4.899335723E+00  3.030082499E+01  3.315000511E+01  4.768371582E-07  0.00000E+00  9.000E+00
#rwgt            1           1   6.9064010031648401E-002           7      102492           0
</event>
<event>
      5   9999  3.19816E-02  1.39598E+02 -1.00000E+00  1.17644E-01
      21    -1     0     0   502   501  0.000000000E+00  0.000000000E+00  1.294568979E+03  1.294568979E+03  0.000000000E+00  0.00000E+00  9.000E+00
      21    -1     0     0   501   511  0.000000000E+00  0.000000000E+00 -2.075517880E+02  2.075517880E+02  0.000000000E+00  0.00000E+00  9.000E+00
      25     1     1     2     0     0  3.134089119E+02  7.821265030E+01  1.056447368E+03  1.111777138E+03  1.250000000E+02  0.00000E+00  9.000E+00
      25     1     1     2     0     0 -1.755608377E+02 -1.002470599E+02  6.528908959E+01  2.464928923E+02  1.250000000E+02  0.00000E+00  9.000E+00
      21     1     1     2   502   511 -1.378480743E+02  2.203440959E+01 -3.471926654E+01  1.438507360E+02  2.078484985E-06  0.00000E+00  9.000E+00
#rwgt            2          11   3.8309092680331499E-003           7      102806           0
</event>
<event>
      5   9999  3.19816E-02  7.91285E+01 -1.00000E+00  1.28580E-01
      21    -1     0     0   512   501  0.000000000E+00  0.000000000E+00  2.986812841E+02  2.986812841E+02  0.000000000E+00  0.00000E+00  9.000E+00
      21    -1     0     0   501   502  0.000000000E+00  0.000000000E+00 -2.234942743E+02  2.234942743E+02  0.000000000E+00  0.00000E+00  9.000E+00
      25     1     1     2     0     0  1.229135659E+02  6.467677639E+01  1.497370507E+02  2.394514866E+02  1.250000000E+02  0.00000E+00  9.000E+00
      25     1     1     2     0     0 -5.656685769E+01 -1.077980136E+02 -9.809153594E+01  2.001678559E+02  1.250000000E+02  0.00000E+00  9.000E+00
      21     1     1     2   512   502 -6.634670820E+01  4.312123716E+01  2.354149504E+01  8.255621583E+01  1.261592536E-06  0.00000E+00  9.000E+00
#rwgt            1           1   3.0999218742382460E-002           7      102856           0
</event>
<event>
      5   9999  3.19816E-02  1.12702E+02 -1.00000E+00  1.21536E-01
       1    -1     0     0   502     0  0.000000000E+00  0.000000000E+00  1.191383233E+03  1.191383233E+03  0.000000000E+00  0.00000E+00  9.000E+00
      21    -1     0     0   501   502  0.000000000E+00  0.000000000E+00 -3.766464892E+02  3.766464892E+02  0.000000000E+00  0.00000E+00  9.000E+00
      25     1     1     2     0     0 -4.209103535E+02  5.105537316E+01 -2.901106840E+01  4.429885087E+02  1.250000000E+02  0.00000E+00  9.000E+00
      25     1     1     2     0     0  4.966921437E+02 -1.344745915E+02  3.903964779E+02  6.578912610E+02  1.250000000E+02  0.00000E+00  9.000E+00
       1     1     1     2   501     0 -7.578179027E+01  8.341921835E+01  4.533513347E+02  4.671499528E+02  5.394796609E-06  0.00000E+00  9.000E+00
#rwgt            1           1   3.1322594537826910E-002           7      102963           0
</event>
<event>
      5   9999  3.19816E-02  2.29084E+02 -1.00000E+00  1.09543E-01
      21    -1     0     0   502   501  0.000000000E+00  0.000000000E+00  3.887883407E+02  3.887883407E+02  0.000000000E+00  0.00000E+00  9.000E+00
      -2    -1     0     0     0   502  0.000000000E+00  0.000000000E+00 -1.379647274E+03  1.379647274E+03  0.000000000E+00  0.00000E+00  9.000E+00
      25     1     1     2     0     0 -4.959342704E+02  2.941255351E+02 -1.236352014E+02  6.028028649E+02  1.250000000E+02  0.00000E+00  9.000E+00
      25     1     1     2     0     0  4.143105789E+02 -8.007683372E+01 -2.474980400E+02  5.049216127E+02  1.250000000E+02  0.00000E+00  9.000E+00
      -2     1     1     2     0   501  8.162369142E+01 -2.140487014E+02 -6.197256922E+02  6.607111374E+02  1.078959322E-05  0.00000E+00  9.000E+00
#rwgt            2           9   6.3911090847636182E-005           7      103027           0
</event>
<event>
      5   9999  3.19816E-02  4.52245E+02 -1.00000E+00  1.00107E-01
      21    -1     0     0   511   501  0.000000000E+00  0.000000000E+00  3.047315220E+03  3.047315220E+03  0.000000000E+00  0.00000E+00  9.000E+00
      21    -1     0     0   501   502  0.000000000E+00  0.000000000E+00 -7.797013870E+02  7.797013870E+02  0.000000000E+00  0.00000E+00  9.000E+00
      25     1     1     2     0     0 -7.706053938E+02  4.043401245E+02  1.433486740E+03  1.681616140E+03  1.250000000E+02  0.00000E+00  9.000E+00
      25     1     1     2     0     0  3.619850817E+02 -5.981300648E+02 -4.110794481E+02  8.206120194E+02  1.250000000E+02  0.00000E+00  9.000E+00
      21     1     1     2   511   502  4.086203121E+02  1.937899403E+02  1.245206541E+03  1.324788447E+03  0.000000000E+00  0.00000E+00  9.000E+00
#rwgt            2          11   7.8583170153883925E-004           7      103046           0
</event>
<event>
      5   9999  3.19816E-02  2.62526E+02 -1.00000E+00  1.07510E-01
      21    -1     0     0   502   501  0.000000000E+00  0.000000000E+00  1.055872520E+03  1.055872520E+03  0.000000000E+00  0.00000E+00  9.000E+00
      -5    -1     0     0     0   502  0.000000000E+00  0.000000000E+00 -2.565703941E+02  2.565703941E+02  0.000000000E+00  0.00000E+00  9.000E+00
      25     1     1     2     0     0 -6.254593935E+01  3.234235598E+02  8.178566867E+02  8.905219557E+02  1.250000000E+02  0.00000E+00  9.000E+00
      25     1     1     2     0     0  7.198828555E+01 -6.106720979E+01 -2.846985356E+01  1.592075687E+02  1.250000000E+02  0.00000E+00  9.000E+00
      -5     1     1     2     0   501 -9.442346206E+00 -2.623563500E+02  9.915293181E+00  2.627133901E+02  3.873843386E-06  0.00000E+00  9.000E+00
#rwgt            1           1   3.2855071585440099E-002           7      103066           0
</event>
<event>
      5   9999  3.19816E-02  3.59757E+01 -1.00000E+00  1.47755E-01
      21    -1     0     0   511   501  0.000000000E+00  0.000000000E+00  1.810041956E+02  1.810041956E+02  0.000000000E+00  0.00000E+00  9.000E+00
      21    -1     0     0   501   502  0.000000000E+00  0.000000000E+00 -6.209802177E+02  6.209802177E+02  0.000000000E+00  0.00000E+00  9.000E+00
      25     1     1     2     0     0 -1.085982611E+02  1.353313715E+02  1.325999359E+01  2.142638324E+02  1.250000000E+02  0.00000E+00  9.000E+00
      25     1     1     2     0     0  7.650957157E+01 -1.190659253E+02 -4.966517560E+02  5.313364055E+02  1.250000000E+02  0.00000E+00  9.000E+00
      21     1     1     2   511   502  3.208868958E+01 -1.626544612E+01  4.341574033E+01  5.638417548E+01  6.743495762E-07  0.00000E+00  9.000E+00
#rwgt            1           1   2.7482311967314963E-002           7      103183           0
</event>
<event>
      5   9999  3.29609E-02  1.34658E+02 -1.00000E+00  1.18281E-01
      21    -1     0     0   502   501  0.000000000E+00  0.000000000E+00  1.233178242E+03  1.233178242E+03  0.000000000E+00  0.00000E+00  9.000E+00
      21    -1     0     0   512   502  0.000000000E+00  0.000000000E+00 -1.256118362E+03  1.256118362E+03  0.000000000E+00  0.00000E+00  9.000E+00
      25     1     1     2     0     0  5.378209329E+02  3.718348268E+02  1.000950692E+03  1.202098075E+03  1.250000000E+02  0.00000E+00  9.000E+00
      25     1     1     2     0     0 -4.268558327E+02 -4.481204415E+02 -9.257987744E+02  1.120600822E+03  1.250000000E+02  0.00000E+00  9.000E+00
      21     1     1     2   512   501 -1.109651002E+02  7.628561475E+01 -9.809203693E+01  1.665977076E+02  2.697398305E-06  0.00000E+00  9.000E+00
#rwgt            1           1   7.5178529217603235E-002           7      103313           0
</event>
<event>
      5   9999  3.19816E-02  1.75712E+02 -1.00000E+00  1.13734E-01
      21    -1     0     0   511   501  0.000000000E+00  0.000000000E+00  8.815688014E+02  8.815688014E+02  0.000000000E+00  0.00000E+00  9.000E+00
      21    -1     0     0   501   502  0.000000000E+00  0.000000000E+00 -7.603150051E+02  7.603150051E+02  0.000000000E+00  0.00000E+00  9.000E+00
      25     1     1     2     0     0 -2.969882599E+02  4.628292510E+02 -4.119159851E+02  6.983643182E+02  1.250000000E+02  0.00000E+00  9.000E+00
      25     1     1     2     0     0  4.449614193E+02 -3.680726339E+02  4.760374845E+02  7.587521434E+02  1.250000000E+02  0.00000E+00  9.000E+00
      21     1     1     2   511   502 -1.479731593E+02 -9.475661715E+01  5.713229685E+01  1.847673448E+02  1.907348633E-06  0.00000E+00  9.000E+00
#rwgt            1           1   3.2217421000305335E-002           7      103399           0
</event>
<event>
      5   9999  3.19816E-02  1.02202E+01 -1.00000E+00  1.94670E-01
      21    -1     0     0   502   512  0.000000000E+00  0.000000000E+00  4.531247719E+02  4.531247719E+02  0.000000000E+00  0.00000E+00  9.000E+00
      21    -1     0     0   501   502  0.000000000E+00  0.000000000E+00 -1.544238864E+02  1.544238864E+02  0.000000000E+00  0.00000E+00  9.000E+00
      25     1     1     2     0     0 -1.834015552E+02 -1.005366613E+01  5.111174672E+00  2.222348550E+02  1.250000000E+02  0.00000E+00  9.000E+00
      25     1     1     2     0     0  1.906878343E+02  2.886841240E+00  2.411454795E+02  3.318830010E+02  1.250000000E+02  0.00000E+00  9.000E+00
      21     1     1     2   501   512 -7.286279105E+00  7.166824886E+00  5.244423127E+01  5.343080231E+01  0.000000000E+00  0.00000E+00  9.000E+00
#rwgt            1           1   2.4289987168173498E-002           7      103484           0
</event>
<event>
      5   9999  3.19816E-02  1.37887E+02 -1.00000E+00  1.17861E-01
      21    -1     0     0   502   501  0.000000000E+00  0.000000000E+00  2.061987515E+03  2.061987515E+03  0.000000000E+00  0.00000E+00  9.000E+00
      21    -1     0     0   511   502  0.000000000E+00  0.000000000E+00 -4.929287181E+02  4.929287181E+02  0.000000000E+00  0.00000E+00  9.000E+00
      25     1     1     2     0     0  6.612395888E+02 -2.533715281E+02  1.066546103E+01  7.191478826E+02  1.250000000E+02  0.00000E+00  9.000E+00
      25     1     1     2     0     0 -5.398845578E+02  3.188378837E+02  1.572168011E+03  1.697194799E+03  1.250000000E+02  0.00000E+00  9.000E+00
      21     1     1     2   511   501 -1.213550310E+02 -6.546635561E+01 -1.377467558E+01  1.385735507E+02  1.660393271E-06  0.00000E+00  9.000E+00
#rwgt            1           1   2.9581796359568372E-002           7      103678           0
</event>
<event>
      5   9999  3.19816E-02  5.66244E+01 -1.00000E+00  1.36061E-01
       3    -1     0     0   502     0  0.000000000E+00  0.000000000E+00  8.436379117E+02  8.436379117E+02  0.000000000E+00  0.00000E+00  9.000E+00
      21    -1     0     0   501   502  0.000000000E+00  0.000000000E+00 -2.373424956E+02  2.373424956E+02  0.000000000E+00  0.00000E+00  9.000E+00
      25     1     1     2     0     0  1.970185288E+02  2.740706881E+02  4.491818066E+02  5.756043243E+02  1.250000000E+02  0.00000E+00  9.000E+00
      25     1     1     2     0     0 -2.426557584E+02 -2.405510619E+02  2.861278183E+01  3.649524924E+02  1.250000000E+02  0.00000E+00  9.000E+00
       3     1     1     2   501     0  4.563722959E+01 -3.351962622E+01  1.285008277E+02  1.404235905E+02  2.697398305E-06  0.00000E+00  9.000E+00
#rwgt            1           1   2.8499001099672745E-002           7      103787           0
</event>
<event>
      5   9999  3.19816E-02  6.19117E+01 -1.00000E+00  1.33980E-01
      21    -1     0     0   502   501  0.000000000E+00  0.000000000E+00  5.333760589E+02  5.333760589E+02  0.000000000E+00  0.00000E+00  9.000E+00
      21    -1     0     0   511   502  0.000000000E+00  0.000000000E+00 -2.057228634E+02  2.057228634E+02  0.000000000E+00  0.00000E+00  9.000E+00
      25     1     1     2     0     0 -1.389590124E+02 -4.518056524E+01  2.043304698E+02  2.805830207E+02  1.250000000E+02  0.00000E+00  9.000E+00
      25     1     1     2     0     0  8.201655902E+01  2.087795202E+01  2.643960570E+02  3.044550538E+02  1.250000000E+02  0.00000E+00  9.000E+00
      21     1     1     2   511   501  5.694245337E+01  2.430261323E+01 -1.410733313E+02  1.540608478E+02  0.000000000E+00  0.00000E+00  9.000E+00
#rwgt            1           1   2.5658237219135380E-002           7      103935           0
</event>
<event>
      5   9999  3.19816E-02  3.57978E+02 -1.00000E+00  1.03157E-01
      21    -1     0     0   502   501  0.000000000E+00  0.000000000E+00  5.027458914E+02  5.027458914E+02  0.000000000E+00  0.00000E+00  9.000E+00
       2    -1     0     0   501     0  0.000000000E+00  0.000000000E+00 -8.302383317E+02  8.302383317E+02  0.000000000E+00  0.00000E+00  9.000E+00
      25     1     1     2     0     0 -9.213906545E+01 -2.174224824E+01 -2.099627030E+02  2.620527988E+02  1.250000000E+02  0.00000E+00  9.000E+00
      25     1     1     2     0     0  1.931434120E+02 -3.216904594E+02  3.177723606E+02  5.073395337E+02  1.250000000E+02  0.00000E+00  9.000E+00
       2     1     1     2   502     0 -1.010043465E+02  3.434327076E+02 -4.353020979E+02  5.635918906E+02  9.344061824E-06  0.00000E+00  9.000E+00
#rwgt            1           1   2.6208531056813471E-002           7      103977           0
</event>
<event>
      5   9999  3.19816E-02  1.00315E+02 -1.00000E+00  1.23767E-01
      21    -1     0     0   502   511  0.000000000E+00  0.000000000E+00  4.672883966E+02  4.672883966E+02  0.000000000E+00  0.00000E+00  9.000E+00
      21    -1     0     0   501   502  0.000000000E+00  0.000000000E+00 -1.715372722E+02  1.715372722E+02  0.000000000E+00  0.00000E+00  9.000E+00
      25     1     1     2     0     0  3.010751226E+01  2.223022060E+02  1.660176298E+02  3.057966423E+02  1.250000000E+02  0.00000E+00  9.000E+00
      25     1     1     2     0     0  4.040593033E+01 -1.509514010E+02  5.380024100E+01  2.072159033E+02  1.250000000E+02  0.00000E+00  9.000E+00
      21     1     1     2   501   511 -7.051344259E+01 -7.135080501E+01  7.593325355E+01  1.258131231E+02  2.336015456E-06  0.00000E+00  9.000E+00
#rwgt            1           1   2.3828699883506811E-002           7      104004           0
</event>
<event>
      5   9999  3.19816E-02  6.34810E+01 -1.00000E+00  1.33407E-01
      21    -1     0     0   502   501  0.000000000E+00  0.000000000E+00  6.175594748E+02  6.175594748E+02  0.000000000E+00  0.00000E+00  9.000E+00
      21    -1     0     0   512   502  0.000000000E+00  0.000000000E+00 -3.044358738E+02  3.044358738E+02  0.000000000E+00  0.00000E+00  9.000E+00
      25     1     1     2     0     0  1.951094383E+02 -1.115451964E+02 -1.442663880E+02  2.948691480E+02  1.250000000E+02  0.00000E+00  9.000E+00
      25     1     1     2     0     0 -1.710213650E+02  1.702785621E+02  4.865143772E+02  5.572829939E+02  1.250000000E+02  0.00000E+00  9.000E+00
      21     1     1     2   512   501 -2.408807326E+01 -5.873336569E+01 -2.912438825E+01  6.984320661E+01  9.536743164E-07  0.00000E+00  9.000E+00
#rwgt            1           1   2.5748889429560683E-002           7      104038           0
</event>
<event>
      5   9999  3.19816E-02  6.19336E+01 -1.00000E+00  1.33971E-01
      21    -1     0     0   502   501  0.000000000E+00  0.000000000E+00  2.861462430E+02  2.861462430E+02  0.000000000E+00  0.00000E+00  9.000E+00
       2    -1     0     0   501     0  0.000000000E+00  0.000000000E+00 -1.637960884E+03  1.637960884E+03  0.000000000E+00  0.00000E+00  9.000E+00
      25     1     1     2     0     0  2.512672130E+02 -3.349551952E+02 -9.026757792E+01  4.462100747E+02  1.250000000E+02  0.00000E+00  9.000E+00
      25     1     1     2     0     0 -2.145135129E+02  3.848043539E+02 -3.825129574E+02  5.966838364E+02  1.250000000E+02  0.00000E+00  9.000E+00
       2     1     1     2   502     0 -3.675370014E+01 -4.984915877E+01 -8.790341059E+02  8.812132163E+02  0.000000000E+00  0.00000E+00  9.000E+00
#rwgt            1           1   2.4214872537454829E-002           7      104159           0
</event>
<event>
      5   9999  3.19816E-02  4.07284E+01 -1.00000E+00  1.44356E-01
      21    -1     0     0   502   501  0.000000000E+00  0.000000000E+00  3.573973768E+03  3.573973768E+03  0.000000000E+00  0.00000E+00  9.000E+00
       1    -1     0     0   501     0  0.000000000E+00  0.000000000E+00 -3.360325936E+02  3.360325936E+02  0.000000000E+00  0.00000E+00  9.000E+00
      25     1     1     2     0     0  4.593002600E+02  5.635399031E+02  2.225363340E+03  2.344440433E+03  1.250000000E+02  0.00000E+00  9.000E+00
      25     1     1     2     0     0 -4.882034126E+02 -5.922350026E+02  1.168949368E+03  1.403977384E+03  1.250000000E+02  0.00000E+00  9.000E+00
       1     1     1     2   502     0  2.890315266E+01  2.869509948E+01 -1.563715336E+02  1.615885438E+02  5.722045898E-06  0.00000E+00  9.000E+00
#rwgt            1           1   3.7873966914504550E-002           7      104284           0
</event>
<event>
      5   9999  3.19816E-02  1.93376E+02 -1.00000E+00  1.12183E-01
      21    -1     0     0   502   501  0.000000000E+00  0.000000000E+00  5.020266822E+02  5.020266822E+02  0.000000000E+00  0.00000E+00  9.000E+00
      21    -1     0     0   511   502  0.000000000E+00  0.000000000E+00 -4.063867004E+02  4.063867004E+02  0.000000000E+00  0.00000E+00  9.000E+00
      25     1     1     2     0     0  1.661544787E+02 -3.109154775E+01  3.992511797E+02  4.512211206E+02  1.250000000E+02  0.00000E+00  9.000E+00
      25     1     1     2     0     0  1.038771009E+01 -4.782005241E+01 -1.908824369E+02  2.333575940E+02  1.250000000E+02  0.00000E+00  9.000E+00
      21     1     1     2   511   501 -1.765421888E+02  7.891160016E+01 -1.127287610E+02  2.238346681E+02  5.046370146E-06  0.00000E+00  9.000E+00
#rwgt            1           1   2.8036103219179289E-002           7      104407           0
</event>
<event>
      5   9999  3.19816E-02  8.67336E+01 -1.00000E+00  1.26673E-01
      21    -1     0     0   502   501  0.000000000E+00  0.000000000E+00  5.481790068E+02  5.481790068E+02  0.000000000E+00  0.00000E+00  9.000E+00
      21    -1     0     0   501   512  0.000000000E+00  0.000000000E+00 -1.353253905E+03  1.353253905E+03  0.000000000E+00  0.00000E+00  9.000E+00
      25     1     1     2     0     0 -7.622258457E+02 -9.518515795E+00  8.868235777E-01  7.724665873E+02  1.250000000E+02  0.00000E+00  9.000E+00
      25     1     1     2     0     0  6.876938179E+02  5.387728459E+01 -6.851584931E+02  9.802513502E+02  1.250000000E+02  0.00000E+00  9.000E+00
      21     1     1     2   502   512  7.453202787E+01 -4.435876879E+01 -1.208032286E+02  1.487149744E+02  0.000000000E+00  0.00000E+00  9.000E+00
#rwgt            1           1   2.9643819361605650E-002           7      104476           0
</event>
<event>
      5   9999  3.19816E-02  4.00144E+01 -1.00000E+00  1.44830E-01
      21    -1     0     0   502   501  0.000000000E+00  0.000000000E+00  2.182013956E+02  2.182013956E+02  0.000000000E+00  0.00000E+00  9.000E+00
      21    -1     0     0   511   502  0.000000000E+00  0.000000000E+00 -9.101031106E+02  9.101031106E+02  0.000000000E+00  0.00000E+00  9.000E+00
      25     1     1     2     0     0  2.409785016E+02 -2.951685364E+02 -2.636497463E+02  4.799284236E+02  1.250000000E+02  0.00000E+00  9.000E+00
      25     1     1     2     0     0 -2.786792999E+02  3.085774842E+02 -3.399416555E+02  5.514231997E+02  1.250000000E+02  0.00000E+00  9.000E+00
      21     1     1     2   511   501  3.770079834E+01 -1.340894787E+01 -8.831031322E+01  9.695288289E+01  1.651812370E-06  0.00000E+00  9.000E+00
#rwgt            1           1   2.9249559950913159E-002           7      104578           0
</event>
<event>
      5   9999  3.19816E-02  6.65936E+01 -1.00000E+00  1.32327E-01
      21    -1     0     0   502   501  0.000000000E+00  0.000000000E+00  5.236228668E+02  5.236228668E+02  0.000000000E+00  0.00000E+00  9.000E+00
       2    -1     0     0   501     0  0.000000000E+00  0.000000000E+00 -6.917476339E+02  6.917476339E+02  0.000000000E+00  0.00000E+00  9.000E+00
      25     1     1     2     0     0 -1.751642064E+02  2.263438136E+02 -1.041368143E+02  3.292164899E+02  1.250000000E+02  0.00000E+00  9.000E+00
      25     1     1     2     0     0  1.153265383E+02 -1.971177891E+02  3.670473034E+02  4.500048401E+02  1.250000000E+02  0.00000E+00  9.000E+00
       2     1     1     2   502     0  5.983766812E+01 -2.922602454E+01 -4.310352561E+02  4.361491706E+02  5.394796609E-06  0.00000E+00  9.000E+00
#rwgt            1           1   2.5934869189435363E-002           7      104732           0
</event>
<event>
      5   9999  3.19816E-02  4.61839E+01 -1.00000E+00  1.41072E-01
      21    -1     0     0   502   501  0.000000000E+00  0.000000000E+00  5.807361966E+02  5.807361966E+02  0.000000000E+00  0.00000E+00  9.000E+00
      21    -1     0     0   501   511  0.000000000E+00  0.000000000E+00 -1.048109202E+03  1.048109202E+03  0.000000000E+00  0.00000E+00  9.000E+00
      25     1     1     2     0     0  3.916901263E-01 -2.933441624E+02  4.736299354E+02  5.709652063E+02  1.250000000E+02  0.00000E+00  9.000E+00
      25     1     1     2     0     0  2.846822304E+01  3.294004913E+02 -4.881921017E+02  6.027202100E+02  1.250000000E+02  0.00000E+00  9.000E+00
      21     1     1     2   502   511 -2.885991317E+01 -3.605632885E+01 -4.528108388E+02  4.551599820E+02  5.394796609E-06  0.00000E+00  9.000E+00
#rwgt            1           1   2.5584858334820711E-002           7      104817           0
</event>
<event>
      5   9999  3.19816E-02  1.11807E+01 -1.00000E+00  1.90316E-01
      21    -1     0     0   502   501  0.000000000E+00  0.000000000E+00  4.551183402E+02  4.551183402E+02  0.000000000E+00  0.00000E+00  9.000E+00
      21    -1     0     0   501   512  0.000000000E+00  0.000000000E+00 -3.477440985E+02  3.477440985E+02  0.000000000E+00  0.00000E+00  9.000E+00
      25     1     1     2     0     0 -3.376381190E+02  1.002735002E+02 -5.272773800E+01  3.774380593E+02  1.250000000E+02  0.00000E+00  9.000E+00
      25     1     1     2     0     0  3.440437602E+02 -1.094373750E+02  1.600941803E+02  4.142436415E+02  1.250000000E+02  0.00000E+00  9.000E+00
      21     1     1     2   502   512 -6.405641107E+00  9.163874810E+00  7.799530614E-03  1.118073792E+01  1.422981247E-07  0.00000E+00  9.000E+00
#rwgt            1           1   3.3031050701502994E-002           7      104990           0
</event>
<event>
      5   9999  3.19816E-02  4.25806E+02 -1.00000E+00  1.00875E-01
      21    -1     0     0   511   501  0.000000000E+00  0.000000000E+00  2.810970065E+03  2.810970065E+03  0.000000000E+00  0.00000E+00  9.000E+00
      21    -1     0     0   501   502  0.000000000E+00  0.000000000E+00 -4.773562163E+02  4.773562163E+02  0.000000000E+00  0.00000E+00  9.000E+00
      25     1     1     2     0     0 -1.185086799E+02 -3.340871025E+02  1.819535725E+02  4.176010079E+02  1.250000000E+02  0.00000E+00  9.000E+00
      25     1     1     2     0     0 -3.156042592E+01  7.325720240E+02  7.130453351E+01  7.472396987E+02  1.250000000E+02  0.00000E+00  9.000E+00
      21     1     1     2   511   502  1.500691058E+02 -3.984849215E+02  2.080355743E+03  2.123485575E+03  0.000000000E+00  0.00000E+00  9.000E+00
#rwgt            1           1   2.5649188996353805E-002           7      105205           0
</event>
<event>
      5   9999  3.19816E-02  6.21375E+01 -1.00000E+00  1.33896E-01
      21    -1     0     0   502   501  0.000000000E+00  0.000000000E+00  7.926834753E+02  7.926834753E+02  0.000000000E+00  0.00000E+00  9.000E+00
      21    -1     0     0   501   512  0.000000000E+00  0.000000000E+00 -7.411110781E+01  7.411110781E+01  0.000000000E+00  0.00000E+00  9.000E+00
      25     1     1     2     0     0  8.896796246E+01 -1.283470738E+02  5.002677296E+02  5.387773853E+02  1.250000000E+02  0.00000E+00  9.000E+00
      25     1     1     2     0     0 -8.699770347E+01  6.624083642E+01  2.061111220E+02  2.646946230E+02  1.250000000E+02  0.00000E+00  9.000E+00
      21     1     1     2   502   512 -1.970258988E+00  6.210623743E+01  1.219351592E+01  6.332257479E+01  1.710975181E-06  0.00000E+00  9.000E+00
#rwgt            1           1   2.6616226259255752E-002           7      105265           0
</event>
<event>
      5   9999  3.19816E-02  4.36527E+01 -1.00000E+00  1.42525E-01
       1    -1     0     0   502     0  0.000000000E+00  0.000000000E+00  7.367475272E+02  7.367475272E+02  0.000000000E+00  0.00000E+00  9.000E+00
      21    -1     0     0   501   502  0.000000000E+00  0.000000000E+00 -4.539982050E+02  4.539982050E+02  0.000000000E+00  0.00000E+00  9.000E+00
      25     1     1     2     0     0  1.799801453E+02 -1.477618041E+02  3.389730114E+01  2.664590596E+02  1.250000000E+02  0.00000E+00  9.000E+00
      25     1     1     2     0     0 -1.676522781E+02  1.058860250E+02 -2.960659199E+02  3.776230469E+02  1.250000000E+02  0.00000E+00  9.000E+00
       1     1     1     2   501     0 -1.232786717E+01  4.187577908E+01  5.449179410E+02  5.466636256E+02  0.000000000E+00  0.00000E+00  9.000E+00
#rwgt            1           1   2.6288182616808074E-002           7      105340           0
</event>
<event>
      5   9999  3.19816E-02  1.38286E+01 -1.00000E+00  1.80776E-01
      21    -1     0     0   502   501  0.000000000E+00  0.000000000E+00  1.946826116E+02  1.946826116E+02  0.000000000E+00  0.00000E+00  9.000E+00
      21    -1     0     0   501   511  0.000000000E+00  0.000000000E+00 -5.488684498E+02  5.488684498E+02  0.000000000E+00  0.00000E+00  9.000E+00
      25     1     1     2     0     0  1.149999847E+02  2.230951149E+02 -2.872834455E+02  4.014389179E+02  1.250000000E+02  0.00000E+00  9.000E+00
      25     1     1     2     0     0 -1.065023762E+02 -2.340047401E+02 -1.268483728E+01  2.861588363E+02  1.250000000E+02  0.00000E+00  9.000E+00
      21     1     1     2   502   511 -8.497608496E+00  1.090962515E+01 -5.421755548E+01  5.595330726E+01  9.536743164E-07  0.00000E+00  9.000E+00
#rwgt            1           1   2.9081878941983760E-002           7      105499           0
</event>
<event>
      5   9999  3.19816E-02  1.47494E+02 -1.00000E+00  1.16684E-01
       2    -1     0     0   502     0  0.000000000E+00  0.000000000E+00  1.863441225E+03  1.863441225E+03  0.000000000E+00  0.00000E+00  9.000E+00
      21    -1     0     0   501   502  0.000000000E+00  0.000000000E+00 -2.474146163E+02  2.474146163E+02  0.000000000E+00  0.00000E+00  9.000E+00
      25     1     1     2     0     0  4.044736434E+02 -1.118133648E+02  1.394956558E+02  4.595489035E+02  1.250000000E+02  0.00000E+00  9.000E+00
      25     1     1     2     0     0 -5.500308807E+02  1.356385860E+02  1.044543900E+03  1.194834195E+03  1.250000000E+02  0.00000E+00  9.000E+00
       2     1     1     2   501     0  1.455572374E+02 -2.382522120E+01  4.319870529E+02  4.564727422E+02  7.629394531E-06  0.00000E+00  9.000E+00
#rwgt            1           1   2.8406478277756483E-002           7      105698           0
</event>
<event>
      5   9999  3.19816E-02  8.51694E+00 -1.00000E+00  2.04177E-01
      21    -1     0     0   511   501  0.000000000E+00  0.000000000E+00  7.835142006E+02  7.835142006E+02  0.000000000E+00  0.00000E+00  9.000E+00
      21    -1     0     0   501   502  0.000000000E+00  0.000000000E+00 -3.520493517E+02  3.520493517E+02  0.000000000E+00  0.00000E+00  9.000E+00
      25     1     1     2     0     0 -1.312074908E+02 -2.936373883E+02 -1.419477522E+02  3.731118945E+02  1.250000000E+02  0.00000E+00  9.000E+00
      25     1     1     2     0     0  1.389819516E+02  2.901594625E+02  2.208062811E+02  4.097424927E+02  1.250000000E+02  0.00000E+00  9.000E+00
      21     1     1     2   511   502 -7.774460843E+00  3.477925756E+00  3.526063201E+02  3.527091651E+02  0.000000000E+00  0.00000E+00  9.000E+00
#rwgt            1           1   2.4996033841215577E-002           7      105760           0
</event>
<event>
      5   9999  3.19816E-02  6.56910E+01 -1.00000E+00  1.32633E-01
      21    -1     0     0   512   501  0.000000000E+00  0.000000000E+00  1.805554185E+02  1.805554185E+02  0.000000000E+00  0.00000E+00  9.000E+00
      21    -1     0     0   501   502  0.000000000E+00  0.000000000E+00 -2.493208159E+03  2.493208159E+03  0.000000000E+00  0.00000E+00  9.000E+00
      25     1     1     2     0     0 -2.670631012E+02  8.938492933E+01 -2.204216807E+03  2.225648017E+03  1.250000000E+02  0.00000E+00  9.000E+00
      25     1     1     2     0     0  3.301699799E+02 -1.076285493E+02 -9.031175659E+01  3.799701746E+02  1.250000000E+02  0.00000E+00  9.000E+00
      21     1     1     2   512   502 -6.310687867E+01  1.824361997E+01 -1.812417730E+01  6.814538582E+01  3.371747881E-07  0.00000E+00  9.000E+00
#rwgt            1           1   2.4602422366015137E-002           7      106084           0
</event>
<event>
      5   9999  3.19816E-02  2.30436E+01 -1.00000E+00  1.61448E-01
      21    -1     0     0   502   501  0.000000000E+00  0.000000000E+00  2.845949857E+01  2.845949857E+01  0.000000000E+00  0.00000E+00  9.000E+00
       1    -1     0     0   501     0  0.000000000E+00  0.000000000E+00 -4.114416339E+03  4.114416339E+03  0.000000000E+00  0.00000E+00  9.000E+00
      25     1     1     2     0     0 -4.097243987E+00  4.024610141E+00 -4.900342424E+02  5.057583847E+02  1.250000000E+02  0.00000E+00  9.000E+00
      25     1     1     2     0     0  2.053035053E+01 -2.017890826E+01 -1.795244504E+02  2.206415916E+02  1.250000000E+02  0.00000E+00  9.000E+00
       1     1     1     2   502     0 -1.643310655E+01  1.615429812E+01 -3.416398148E+03  3.416475861E+03  4.315837288E-05  0.00000E+00  9.000E+00
#rwgt            1           1   2.0910220862885947E-002           7      106171           0
</event>
<event>
      5   9999  3.19816E-02  1.02443E+02 -1.00000E+00  1.23358E-01
      21    -1     0     0   502   511  0.000000000E+00  0.000000000E+00  7.113420129E+02  7.113420129E+02  0.000000000E+00  0.00000E+00  9.000E+00
      21    -1     0     0   501   502  0.000000000E+00  0.000000000E+00 -4.356522390E+02  4.356522390E+02  0.000000000E+00  0.00000E+00  9.000E+00
      25     1     1     2     0     0 -3.093412511E+02 -3.660499333E+01 -1.113408382E+02  3.536293504E+02  1.250000000E+02  0.00000E+00  9.000E+00
      25     1     1     2     0     0  3.275558638E+02  1.374160852E+02 -1.660629260E+01  3.769307540E+02  1.250000000E+02  0.00000E+00  9.000E+00
      21     1     1     2   501   511 -1.821461263E+01 -1.008110919E+02  4.036369047E+02  4.164341475E+02  0.000000000E+00  0.00000E+00  9.000E+00
#rwgt            1           1   2.9689561125082059E-002           7      106298           0
</event>
<event>
      5   9999  3.19816E-02  1.49234E+02 -1.00000E+00  1.16482E-01
       2    -1     0     0   502     0  0.000000000E+00  0.000000000E+00  2.216485082E+03  2.216485082E+03  0.000000000E+00  0.00000E+00  9.000E+00
      21    -1     0     0   501   502  0.000000000E+00  0.000000000E+00 -1.655547531E+03  1.655547531E+03  0.000000000E+00  0.00000E+00  9.000E+00
      25     1     1     2     0     0  1.817439174E+02 -5.588240858E+00 -8.331171597E+02  8.618417962E+02  1.250000000E+02  0.00000E+00  9.000E+00
      25     1     1     2     0     0 -2.333879494E+02 -1.344252042E+02 -7.781447077E+02  8.328710924E+02  1.250000000E+02  0.00000E+00  9.000E+00
       2     1     1     2   501     0  5.164403200E+01  1.400134450E+02  2.172199418E+03  2.177319724E+03  3.051757812E-05  0.00000E+00  9.000E+00
#rwgt            1           1   2.7334878036032909E-002           7      106386           0
</event>
<event>
      5   9999  3.19816E-02  1.03297E+02 -1.00000E+00  1.23198E-01
      21    -1     0     0   502   501  0.000000000E+00  0.000000000E+00  6.396835413E+02  6.396835413E+02  0.000000000E+00  0.00000E+00  9.000E+00
      21    -1     0     0   511   502  0.000000000E+00  0.000000000E+00 -2.366101228E+02  2.366101228E+02  0.000000000E+00  0.00000E+00  9.000E+00
      25     1     1     2     0     0  2.812791101E+01  4.058334375E+01  1.850552610E+01  1.356673935E+02  1.250000000E+02  0.00000E+00  9.000E+00
      25     1     1     2     0     0  3.811482084E+01 -1.198436962E+02  5.319077910E+02  5.606836445E+02  1.250000000E+02  0.00000E+00  9.000E+00
      21     1     1     2   511   501 -6.624273185E+01  7.926035246E+01 -1.473398986E+02  1.799426261E+02  1.907348633E-06  0.00000E+00  9.000E+00
#rwgt            1           1   2.9017944113532687E-002           7      106425           0
</event>
<event>
      5   9999  3.19816E-02  9.00077E+01 -1.00000E+00  1.25920E-01
      21    -1     0     0   502   501  0.000000000E+00  0.000000000E+00  1.052780077E+02  1.052780077E+02  0.000000000E+00  0.00000E+00  9.000E+00
      21    -1     0     0   512   502  0.000000000E+00  0.000000000E+00 -1.318512666E+03  1.318512666E+03  0.000000000E+00  0.00000E+00  9.000E+00
      25     1     1     2     0     0  5.305053145E+01  1.607038971E+01 -8.659762164E+01  1.618541454E+02  1.250000000E+02  0.00000E+00  9.000E+00
      25     1     1     2     0     0 -1.316447782E+02  2.779686534E+01 -6.249377570E+01  1.939935189E+02  1.250000000E+02  0.00000E+00  9.000E+00
      21     1     1     2   512   501  7.859424679E+01 -4.386725504E+01 -1.064143261E+03  1.067943009E+03  2.157918644E-05  0.00000E+00  9.000E+00
#rwgt            1           1   8.1238533084433559E-002           7      106486           0
</event>
<event>
      5   9999  3.19816E-02  4.72465E+01 -1.00000E+00  1.40494E-01
      21    -1     0     0   502   501  0.000000000E+00  0.000000000E+00  6.987919351E+01  6.987919351E+01  0.000000000E+00  0.00000E+00  9.000E+00
      21    -1     0     0   501   511  0.000000000E+00  0.000000000E+00 -1.069113095E+03  1.069113095E+03  0.000000000E+00  0.00000E+00  9.000E+00
      25     1     1     2     0     0 -1.250579996E+02  1.180359567E+02 -6.007628392E+02  6.372699423E+02  1.250000000E+02  0.00000E+00  9.000E+00
      25     1     1     2     0     0  1.347752513E+02 -1.642723313E+02 -2.739652213E+02  3.685535370E+02  1.250000000E+02  0.00000E+00  9.000E+00
      21     1     1     2   502   511 -9.717251691E+00  4.623637455E+01 -1.245058412E+02  1.331688094E+02  2.336015456E-06  0.00000E+00  9.000E+00
#rwgt            1           1   2.7753923099914504E-002           7      106534           0
</event>
<event>
      5   9999  3.19816E-02  1.10598E+02 -1.00000E+00  1.21892E-01
      21    -1     0     0   502   501  0.000000000E+00  0.000000000E+00  1.547738653E+03  1.547738653E+03  0.000000000E+00  0.00000E+00  9.000E+00
      21    -1     0     0   512   502  0.000000000E+00  0.000000000E+00 -4.045687529E+01  4.045687529E+01  0.000000000E+00  0.00000E+00  9.000E+00
      25     1     1     2     0     0  1.654628014E+01 -1.325235879E+02  1.087712573E+03  1.102986819E+03  1.250000000E+02  0.00000E+00  9.000E+00
      25     1     1     2     0     0 -3.781691150E+01  2.398982418E+01  2.164755508E+02  2.539533315E+02  1.250000000E+02  0.00000E+00  9.000E+00
      21     1     1     2   512   501  2.127063137E+01  1.085337638E+02  2.030936533E+02  2.312553776E+02  5.394796609E-06  0.00000E+00  9.000E+00
#rwgt            1           1   4.3773475447806541E-002           7      106626           0
</event>
<event>
      5   9999  3.19816E-02  1.11199E+02 -1.00000E+00  1.21789E-01
      21    -1     0     0   502   501  0.000000000E+00  0.000000000E+00  3.985982130E+02  3.985982130E+02  0.000000000E+00  0.00000E+00  9.000E+00
      21    -1     0     0   511   502  0.000000000E+00  0.000000000E+00 -3.775824304E+02  3.775824304E+02  0.000000000E+00  0.00000E+00  9.000E+00
      25     1     1     2     0     0  1.720449283E+02  2.400215621E+02  1.379711731E+02  3.491000605E+02  1.250000000E+02  0.00000E+00  9.000E+00
      25     1     1     2     0     0 -6.084654890E+01 -2.396897723E+02 -1.708215890E+01  2.776153627E+02  1.250000000E+02  0.00000E+00  9.000E+00
      21     1     1     2   511   501 -1.111983794E+02 -3.317898392E-01 -9.987323168E+01  1.494652203E+02  1.907348633E-06  0.00000E+00  9.000E+00
#rwgt            1           1   2.7641605244112574E-002           7      106698           0
</event>
<event>
      5   9999  3.19816E-02  7.07402E+01 -1.00000E+00  1.30990E-01
      21    -1     0     0   502   501  0.000000000E+00  0.000000000E+00  3.481451237E+03  3.481451237E+03  0.000000000E+00  0.00000E+00  9.000E+00
      21    -1     0     0   501   512  0.000000000E+00  0.000000000E+00 -1.345495507E+02  1.345495507E+02  0.000000000E+00  0.00000E+00  9.000E+00
      25     1     1     2     0     0  5.489507088E+02  5.387673287E+01  2.356597367E+03  2.423515160E+03  1.250000000E+02  0.00000E+00  9.000E+00
      25     1     1     2     0     0 -5.567684620E+02 -1.241836098E+02  9.362805061E+02  1.103475815E+03  1.250000000E+02  0.00000E+00  9.000E+00
      21     1     1     2   502   512  7.817753281E+00  7.030687688E+01  5.402381339E+01  8.900981191E+01  2.236564522E-06  0.00000E+00  9.000E+00
#rwgt            1           1   4.0566436146381779E-002           7      106760           0
</event>
<event>
      5   9999  3.19816E-02  6.98371E+01 -1.00000E+00  1.31272E-01
       2    -1     0     0   502     0  0.000000000E+00  0.000000000E+00  5.848191209E+02  5.848191209E+02  0.000000000E+00  0.00000E+00  9.000E+00
      21    -1     0     0   501   502  0.000000000E+00  0.000000000E+00 -1.292243814E+02  1.292243814E+02  0.000000000E+00  0.00000E+00  9.000E+00
      25     1     1     2     0     0  1.834802680E+02  4.915126215E+01  3.748182578E+02  4.384000248E+02  1.250000000E+02  0.00000E+00  9.000E+00
      25     1     1     2     0     0 -1.194394261E+02 -7.700784542E+01  8.084103865E+01  2.058063611E+02  1.250000000E+02  0.00000E+00  9.000E+00
       2     1     1     2   501     0 -6.404084190E+01  2.785658328E+01 -6.455702151E-02  6.983711643E+01  9.263659243E-07  0.00000E+00  9.000E+00
#rwgt            1           1   2.6559623300936211E-002           7      106822           0
</event>
<event>
      5   9999  3.19816E-02  3.61791E+02 -1.00000E+00  1.03015E-01
      -1    -1     0     0     0   501  0.000000000E+00  0.000000000E+00  6.604879230E+02  6.604879230E+02  0.000000000E+00  0.00000E+00  9.000E+00
      21    -1     0     0   501   502  0.000000000E+00  0.000000000E+00 -6.741392442E+02  6.741392442E+02  0.000000000E+00  0.00000E+00  9.000E+00
      25     1     1     2     0     0 -7.317337840E+01  1.588957937E+02  3.183042996E+02  3.841156645E+02  1.250000000E+02  0.00000E+00  9.000E+00
      25     1     1     2     0     0 -7.915166628E+01 -4.870571971E+02 -9.443271388E+01  5.177182989E+02  1.250000000E+02  0.00000E+00  9.000E+00
      -1     1     1     2     0   502  1.523250447E+02  3.281614034E+02 -2.375229070E+02  4.327932038E+02  3.814697266E-06  0.00000E+00  9.000E+00
#rwgt            1           1   3.0359136657262972E-002           7      106873           0
</event>
<event>
      5   9999  3.19816E-02  9.69667E+01 -1.00000E+00  1.24433E-01
      21    -1     0     0   502   501  0.000000000E+00  0.000000000E+00  1.499951090E+03  1.499951090E+03  0.000000000E+00  0.00000E+00  9.000E+00
       2    -1     0     0   501     0  0.000000000E+00  0.000000000E+00 -2.437869006E+03  2.437869006E+03  0.000000000E+00  0.00000E+00  9.000E+00
      25     1     1     2     0     0  2.561088371E+02  2.922966980E+02  1.102485651E+03  1.175639701E+03  1.250000000E+02  0.00000E+00  9.000E+00
      25     1     1     2     0     0 -3.053846805E+02 -3.758097533E+02  1.860597015E+02  5.336065838E+02  1.250000000E+02  0.00000E+00  9.000E+00
       2     1     1     2   502     0  4.927584340E+01  8.351305531E+01 -2.226463269E+03  2.228573810E+03  4.315837288E-05  0.00000E+00  9.000E+00
#rwgt            1           1   2.6108184683711354E-002           7      106912           0
</event>
<event>
      5   9999  3.19816E-02  3.48817E+01 -1.00000E+00  1.48627E-01
       2    -1     0     0   502     0  0.000000000E+00  0.000000000E+00  5.090955815E+02  5.090955815E+02  0.000000000E+00  0.00000E+00  9.000E+00
      21    -1     0     0   501   502  0.000000000E+00  0.000000000E+00 -6.849743198E+02  6.849743198E+02  0.000000000E+00  0.00000E+00  9.000E+00
      25     1     1     2     0     0 -2.627764408E+02  1.124273889E+02  3.565096539E+01  3.139862528E+02  1.250000000E+02  0.00000E+00  9.000E+00
      25     1     1     2     0     0  2.976374261E+02 -1.112258510E+02 -4.912171210E+02  5.982294604E+02  1.250000000E+02  0.00000E+00  9.000E+00
       2     1     1     2   501     0 -3.486098530E+01 -1.201537884E+00  2.796874173E+02  2.818541882E+02  0.000000000E+00  0.00000E+00  9.000E+00
#rwgt            1           1   3.0768278081778504E-002           7      106994           0
</event>
<event>
      5   9999  3.19816E-02  1.44202E+02 -1.00000E+00  1.17076E-01
      21    -1     0     0   502   501  0.000000000E+00  0.000000000E+00  1.756663699E+02  1.756663699E+02  0.000000000E+00  0.00000E+00  9.000E+00
      21    -1     0     0   511   502  0.000000000E+00  0.000000000E+00 -7.081620512E+02  7.081620512E+02  0.000000000E+00  0.00000E+00  9.000E+00
      25     1     1     2     0     0  6.560668629E+01  1.036153088E+02  1.165515502E+01  1.755027411E+02  1.250000000E+02  0.00000E+00  9.000E+00
      25     1     1     2     0     0 -1.646708512E+02 -2.084035601E+02 -2.713416832E+02  3.997497244E+02  1.250000000E+02  0.00000E+00  9.000E+00
      21     1     1     2   511   501  9.906416487E+01  1.047882513E+02 -2.728091531E+02  3.085759556E+02  5.394796609E-06  0.00000E+00  9.000E+00
#rwgt            1           1   3.1690802199644506E-002           7      107115           0
</event>
<event>
      5   9999  3.19816E-02  1.08152E+01 -1.00000E+00  1.91903E-01
      21    -1     0     0   502   501  0.000000000E+00  0.000000000E+00  8.606545227E+02  8.606545227E+02  0.000000000E+00  0.00000E+00  9.000E+00
      21    -1     0     0   501   512  0.000000000E+00  0.000000000E+00 -3.157428375E+02  3.157428375E+02  0.000000000E+00  0.00000E+00  9.000E+00
      25     1     1     2     0     0  4.623753955E+02  1.191187127E+01  4.658297403E+02  6.682478926E+02  1.250000000E+02  0.00000E+00  9.000E+00
      25     1     1     2     0     0 -4.556349606E+02 -2.036971579E+01  1.011211129E+02  4.835996506E+02  1.250000000E+02  0.00000E+00  9.000E+00
      21     1     1     2   502   512 -6.740434886E+00  8.457844524E+00 -2.203916785E+01  2.454981702E+01  4.768371582E-07  0.00000E+00  9.000E+00
#rwgt            1           1   2.9029236144271903E-002           7      107169           0
</event>
<event>
      5   9999  3.19816E-02  3.58616E+02 -1.00000E+00  1.03133E-01
      21    -1     0     0   502   501  0.000000000E+00  0.000000000E+00  8.323375196E+02  8.323375196E+02  0.000000000E+00  0.00000E+00  9.000E+00
       2    -1     0     0   501     0  0.000000000E+00  0.000000000E+00 -2.048825845E+03  2.048825845E+03  0.000000000E+00  0.00000E+00  9.000E+00
      25     1     1     2     0     0 -2.369183045E+02 -5.345980222E+02  5.797517673E+02  8.328639985E+02  1.250000000E+02  0.00000E+00  9.000E+00
      25     1     1     2     0     0  1.575512497E+02  1.848748483E+02 -6.566646135E+01  2.809594098E+02  1.250000000E+02  0.00000E+00  9.000E+00
       2     1     1     2   502     0  7.936705480E+01  3.497231739E+02 -1.730573631E+03  1.767339956E+03  2.157918644E-05  0.00000E+00  9.000E+00
#rwgt            2          13   3.6760952503517596E-003           7      107389           0
</event>
<event>
      5   9999  3.19816E-02  3.38040E+01 -1.00000E+00  1.49524E-01
      21    -1     0     0   502   501  0.000000000E+00  0.000000000E+00  5.280890893E+02  5.280890893E+02  0.000000000E+00  0.00000E+00  9.000E+00
      21    -1     0     0   511   502  0.000000000E+00  0.000000000E+00 -1.087645301E+03  1.087645301E+03  0.000000000E+00  0.00000E+00  9.000E+00
      25     1     1     2     0     0 -5.734945385E+02 -3.144839815E+02 -4.692939736E+02  8.146520693E+02  1.250000000E+02  0.00000E+00  9.000E+00
      25     1     1     2     0     0  5.976983102E+02  2.908854544E+02  2.912520666E+01  6.770013998E+02  1.250000000E+02  0.00000E+00  9.000E+00
      21     1     1     2   511   501 -2.420377173E+01  2.359852710E+01 -1.193874444E+02  1.240809209E+02  0.000000000E+00  0.00000E+00  9.000E+00
#rwgt            1           1   2.8299058146486884E-002           7      107408           0
</event>
<event>
      5   9999  3.19816E-02  1.29080E+01 -1.00000E+00  1.83758E-01
      -1    -1     0     0     0   501  0.000000000E+00  0.000000000E+00  4.238537794E+02  4.238537794E+02  0.000000000E+00  0.00000E+00  9.000E+00
      21    -1     0     0   501   502  0.000000000E+00  0.000000000E+00 -4.119422841E+02  4.119422841E+02  0.000000000E+00  0.00000E+00  9.000E+00
      25     1     1     2     0     0  1.186822783E+02 -3.364656756E+02  2.539531741E+00  3.780556616E+02  1.250000000E+02  0.00000E+00  9.000E+00
      25     1     1     2     0     0 -1.251741794E+02  3.476223729E+02 -5.337474389E+01  3.936797590E+02  1.250000000E+02  0.00000E+00  9.000E+00
      -1     1     1     2     0   502  6.491901087E+00 -1.115669728E+01  6.274670748E+01  6.406064294E+01  6.743495762E-07  0.00000E+00  9.000E+00
#rwgt            2           5   6.7675707865508441E-006           7      107593           0
</event>
<event>
      5   9999  3.19816E-02  9.24240E+01 -1.00000E+00  1.25387E-01
      21    -1     0     0   502   511  0.000000000E+00  0.000000000E+00  5.330417278E+02  5.330417278E+02  0.000000000E+00  0.00000E+00  9.000E+00
      21    -1     0     0   501   502  0.000000000E+00  0.000000000E+00 -2.789346465E+02  2.789346465E+02  0.000000000E+00  0.00000E+00  9.000E+00
      25     1     1     2     0     0  7.403856813E+00 -9.858822890E+01 -2.225867377E+02  2.737595875E+02  1.250000000E+02  0.00000E+00  9.000E+00
      25     1     1     2     0     0 -8.345566978E+01  4.606846045E+01  3.118225522E+02  3.492068956E+02  1.250000000E+02  0.00000E+00  9.000E+00
      21     1     1     2   501   511  7.605181297E+01  5.251976845E+01  1.648712668E+02  1.890098912E+02  3.303624740E-06  0.00000E+00  9.000E+00
#rwgt            1           1   2.6553437022160023E-002           7      107657           0
</event>
<event>
      5   9999  3.19816E-02  1.27873E+02 -1.00000E+00  1.19208E-01
      21    -1     0     0   502   501  0.000000000E+00  0.000000000E+00  3.355176487E+02  3.355176487E+02  0.000000000E+00  0.00000E+00  9.000E+00
      21    -1     0     0   501   512  0.000000000E+00  0.000000000E+00 -8.383674414E+02  8.383674414E+02  0.000000000E+00  0.00000E+00  9.000E+00
      25     1     1     2     0     0 -2.078978855E+02  2.148593337E+02  2.216508401E+01  3.248112606E+02  1.250000000E+02  0.00000E+00  9.000E+00
      25     1     1     2     0     0  3.337126089E+02 -1.920093237E+02 -1.168098752E+02  4.213089516E+02  1.250000000E+02  0.00000E+00  9.000E+00
      21     1     1     2   502   512 -1.258147234E+02 -2.285000992E+01 -4.082050014E+02  4.277648779E+02  0.000000000E+00  0.00000E+00  9.000E+00
#rwgt            1           1   3.1469462946661142E-002           7      107764           0
</event>
<event>
      5   9999  3.19816E-02  2.09694E+02 -1.00000E+00  1.10905E-01
       1    -1     0     0   502     0  0.000000000E+00  0.000000000E+00  4.637553766E+03  4.637553766E+03  0.000000000E+00  0.00000E+00  9.000E+00
      21    -1     0     0   501   502  0.000000000E+00  0.000000000E+00 -9.263884177E+01  9.263884177E+01  0.000000000E+00  0.00000E+00  9.000E+00
      25     1     1     2     0     0 -6.979752204E+01  5.375548635E+02  2.050133832E+03  2.124267086E+03  1.250000000E+02  0.00000E+00  9.000E+00
      25     1     1     2     0     0  2.482943883E+02 -4.275077338E+02  1.371358828E+03  1.463100475E+03  1.250000000E+02  0.00000E+00  9.000E+00
       1     1     1     2   501     0 -1.784968662E+02 -1.100471297E+02  1.123422264E+03  1.142825046E+03  2.157918644E-05  0.00000E+00  9.000E+00
#rwgt            1           1   2.7102689422259647E-002           7      107871           0
</event>
<event>
      5   9999  3.19816E-02  3.30440E+02 -1.00000E+00  1.04246E-01
      21    -1     0     0   502   501  0.000000000E+00  0.000000000E+00  6.828221162E+02  6.828221162E+02  0.000000000E+00  0.00000E+00  9.000E+00
       1    -1     0     0   501     0  0.000000000E+00  0.000000000E+00 -9.101076288E+02  9.101076288E+02  0.000000000E+00  0.00000E+00  9.000E+00
      25     1     1     2     0     0  3.221891172E+02 -5.444038387E+02 -4.190832845E+02  7.690495213E+02  1.250000000E+02  0.00000E+00  9.000E+00
      25     1     1     2     0     0 -2.393959296E+01  4.021449925E+02 -3.475744339E+01  4.232337167E+02  1.250000000E+02  0.00000E+00  9.000E+00
       1     1     1     2   502     0 -2.982495243E+02  1.422588463E+02  2.265552152E+02  4.006465070E+02  5.394796609E-06  0.00000E+00  9.000E+00
#rwgt            1           1   2.9140756377225376E-002           7      107917           0
</event>
<event>
      5   9999  3.19816E-02  5.06910E+01 -1.00000E+00  1.38736E-01
      21    -1     0     0   502   501  0.000000000E+00  0.000000000E+00  6.974273803E+01  6.974273803E+01  0.000000000E+00  0.00000E+00  9.000E+00
      21    -1     0     0   501   511  0.000000000E+00  0.000000000E+00 -9.120550792E+02  9.120550792E+02  0.000000000E+00  0.00000E+00  9.000E+00
      25     1     1     2     0     0  1.485664752E+02  6.292566608E+00 -1.639616465E+02  2.542046724E+02  1.250000000E+02  0.00000E+00  9.000E+00
      25     1     1     2     0     0 -1.582377019E+02 -5.605243094E+01 -4.965573377E+02  5.388647650E+02  1.250000000E+02  0.00000E+00  9.000E+00
      21     1     1     2   502   511  9.671226742E+00  4.975986433E+01 -1.817933569E+02  1.887283798E+02  3.814697266E-06  0.00000E+00  9.000E+00
#rwgt            1           1   2.9576002453047867E-002           7      107946           0
</event>
<event>
      5   9999  3.19816E-02  5.93462E+01 -1.00000E+00  1.34958E-01
      21    -1     0     0   502   501  0.000000000E+00  0.000000000E+00  2.083909869E+02  2.083909869E+02  0.000000000E+00  0.00000E+00  9.000E+00
       2    -1     0     0   501     0  0.000000000E+00  0.000000000E+00 -3.844576225E+03  3.844576225E+03  0.000000000E+00  0.00000E+00  9.000E+00
      25     1     1     2     0     0 -1.925081696E+02  2.132857414E+02 -2.513506259E+02  4.016868681E+02  1.250000000E+02  0.00000E+00  9.000E+00
      25     1     1     2     0     0  2.370821495E+02 -2.524665588E+02 -1.219721518E+02  3.878782215E+02  1.250000000E+02  0.00000E+00  9.000E+00
       2     1     1     2   502     0 -4.457397984E+01  3.918081744E+01 -3.262862460E+03  3.263402122E+03  6.103515625E-05  0.00000E+00  9.000E+00
#rwgt            1           1   2.8828701321775500E-002           7      108012           0
</event>
<event>
      5   9999  3.19816E-02  5.14639E+01 -1.00000E+00  1.38364E-01
       1    -1     0     0   502     0  0.000000000E+00  0.000000000E+00  1.713183424E+02  1.713183424E+02  0.000000000E+00  0.00000E+00  9.000E+00
      21    -1     0     0   501   502  0.000000000E+00  0.000000000E+00 -1.095845846E+03  1.095845846E+03  0.000000000E+00  0.00000E+00  9.000E+00
      25     1     1     2     0     0  1.273459088E+02 -1.824549140E+02 -9.414594526E+02  9.754371723E+02  1.250000000E+02  0.00000E+00  9.000E+00
      25     1     1     2     0     0 -8.166840777E+01  1.587462199E+02 -3.252938951E+01  2.203480255E+02  1.250000000E+02  0.00000E+00  9.000E+00
       1     1     1     2   501     0 -4.567750106E+01  2.370869413E+01  4.946133859E+01  7.137899057E+01  1.507891493E-06  0.00000E+00  9.000E+00
#rwgt            1           1   2.7768835654071677E-002           7      108146           0
</event>
<event>
      5   9999  3.19816E-02  2.21138E+02 -1.00000E+00  1.10082E-01
       2    -1     0     0   502     0  0.000000000E+00  0.000000000E+00  7.693093823E+02  7.693093823E+02  0.000000000E+00  0.00000E+00  9.000E+00
      21    -1     0     0   501   502  0.000000000E+00  0.000000000E+00 -1.771562238E+02  1.771562238E+02  0.000000000E+00  0.00000E+00  9.000E+00
      25     1     1     2     0     0  2.702649402E+02  3.302591536E-01  1.920223486E+02  3.543174132E+02  1.250000000E+02  0.00000E+00  9.000E+00
      25     1     1     2     0     0 -7.879738793E+01 -1.109745880E+02  7.610347408E+01  1.998527615E+02  1.250000000E+02  0.00000E+00  9.000E+00
       2     1     1     2   501     0 -1.914675522E+02  1.106443288E+02  3.240273358E+02  3.922954313E+02  7.629394531E-06  0.00000E+00  9.000E+00
#rwgt            1           1   2.8944931281759456E-002           7      108213           0
</event>
<event>
      5   9999  3.19816E-02  5.70134E+02 -1.00000E+00  9.72590E-02
      21    -1     0     0   502   501  0.000000000E+00  0.000000000E+00  4.456730630E+02  4.456730630E+02  0.000000000E+00  0.00000E+00  9.000E+00
       2    -1     0     0   501     0  0.000000000E+00  0.000000000E+00 -2.753225710E+03  2.753225710E+03  0.000000000E+00  0.00000E+00  9.000E+00
      25     1     1     2     0     0  2.738301013E+02 -1.382087192E+02 -1.015790227E+02  3.464503894E+02  1.250000000E+02  0.00000E+00  9.000E+00
      25     1     1     2     0     0 -1.350495580E+02 -4.147766907E+02  1.103501497E+02  4.669906229E+02  1.250000000E+02  0.00000E+00  9.000E+00
       2     1     1     2   502     0 -1.387805433E+02  5.529854099E+02 -2.316323774E+03  2.385457761E+03  3.051757812E-05  0.00000E+00  9.000E+00
#rwgt            2          13   2.9791660771258024E-003           7      108330           0
</event>
<event>
      5   9999  3.19816E-02  2.36225E+02 -1.00000E+00  1.09078E-01
       2    -1     0     0   502     0  0.000000000E+00  0.000000000E+00  1.670037884E+03  1.670037884E+03  0.000000000E+00  0.00000E+00  9.000E+00
      21    -1     0     0   501   502  0.000000000E+00  0.000000000E+00 -2.272735481E+02  2.272735481E+02  0.000000000E+00  0.00000E+00  9.000E+00
      25     1     1     2     0     0 -2.676773211E+02 -3.875503381E+02  2.105914871E+02  5.308673914E+02  1.250000000E+02  0.00000E+00  9.000E+00
      25     1     1     2     0     0  2.756809199E+02  1.514605960E+02  5.643175614E+02  6.580422417E+02  1.250000000E+02  0.00000E+00  9.000E+00
       2     1     1     2   501     0 -8.003598865E+00  2.360897422E+02  6.678552873E+02  7.084017989E+02  7.629394531E-06  0.00000E+00  9.000E+00
#rwgt            1           1   2.8236909951729734E-002           7      108349           0
</event>
<event>
      5   9999  3.19816E-02  5.99078E+01 -1.00000E+00  1.34739E-01
      21    -1     0     0   502   501  0.000000000E+00  0.000000000E+00  4.055921721E+02  4.055921721E+02  0.000000000E+00  0.00000E+00  9.000E+00
      21    -1     0     0   501   511  0.000000000E+00  0.000000000E+00 -4.571768815E+02  4.571768815E+02  0.000000000E+00  0.00000E+00  9.000E+00
      25     1     1     2     0     0 -1.062303304E+02  2.712203274E+02  1.888444821E+02  3.689614987E+02  1.250000000E+02  0.00000E+00  9.000E+00
      25     1     1     2     0     0  1.496764153E+02 -3.124680759E+02 -1.849382980E+02  4.121486405E+02  1.250000000E+02  0.00000E+00  9.000E+00
      21     1     1     2   502   511 -4.344608488E+01  4.124774856E+01 -5.549089356E+01  8.165891452E+01  6.743495762E-07  0.00000E+00  9.000E+00
#rwgt            1           1   2.9133244594030293E-002           7      108384           0
</event>
<event>
      5   9999  3.19816E-02  4.91453E+02 -1.00000E+00  9.90652E-02
       2    -1     0     0   502     0  0.000000000E+00  0.000000000E+00  6.466508476E+02  6.466508476E+02  0.000000000E+00  0.00000E+00  9.000E+00
      21    -1     0     0   501   502  0.000000000E+00  0.000000000E+00 -1.296124332E+03  1.296124332E+03  0.000000000E+00  0.00000E+00  9.000E+00
      25     1     1     2     0     0 -5.150518073E+02 -1.894567462E+02  1.133470167E+02  5.741469926E+02  1.250000000E+02  0.00000E+00  9.000E+00
      25     1     1     2     0     0  2.293724124E+02  5.893489647E+02 -4.191434890E+02  7.689279356E+02  1.250000000E+02  0.00000E+00  9.000E+00
       2     1     1     2   501     0  2.856793949E+02 -3.998922185E+02 -3.436770123E+02  5.997002517E+02  5.394796609E-06  0.00000E+00  9.000E+00
#rwgt            2          18   1.3755189865504878E-004           7      108517           0
</event>
<event>
      5   9999  3.19816E-02  6.05252E+01 -1.00000E+00  1.34501E-01
      21    -1     0     0   502   501  0.000000000E+00  0.000000000E+00  7.133270395E+02  7.133270395E+02  0.000000000E+00  0.00000E+00  9.000E+00
      21    -1     0     0   511   502  0.000000000E+00  0.000000000E+00 -1.293309368E+03  1.293309368E+03  0.000000000E+00  0.00000E+00  9.000E+00
      25     1     1     2     0     0  3.753591532E+01 -2.816203599E+02  6.308276665E+02  7.030558420E+02  1.250000000E+02  0.00000E+00  9.000E+00
      25     1     1     2     0     0 -6.062767055E+01  3.375674251E+02 -1.180968993E+03  1.236098800E+03  1.250000000E+02  0.00000E+00  9.000E+00
      21     1     1     2   511   501  2.309175523E+01 -5.594706522E+01 -2.984100203E+01  6.748176545E+01  5.840038640E-07  0.00000E+00  9.000E+00
#rwgt            1           1   3.5661128231335160E-002           7      108566           0
</event>
<event>
      5   9999  3.19816E-02  2.00078E+02 -1.00000E+00  1.11642E-01
      21    -1     0     0   502   512  0.000000000E+00  0.000000000E+00  3.483933359E+02  3.483933359E+02  0.000000000E+00  0.00000E+00  9.000E+00
      21    -1     0     0   501   502  0.000000000E+00  0.000000000E+00 -9.506932720E+02  9.506932720E+02  0.000000000E+00  0.00000E+00  9.000E+00
      25     1     1     2     0     0  1.357977589E+02 -2.758878904E+02 -2.322812878E+02  4.051354786E+02  1.250000000E+02  0.00000E+00  9.000E+00
      25     1     1     2     0     0 -3.021003793E+02  3.871299265E+02 -4.507637301E+02  6.781940427E+02  1.250000000E+02  0.00000E+00  9.000E+00
      21     1     1     2   501   512  1.663026204E+02 -1.112420361E+02  8.074508178E+01  2.157570866E+02  2.861022949E-06  0.00000E+00  9.000E+00
#rwgt            1           1   2.8328608405519585E-002           7      108763           0
</event>
<event>
      5   9999  3.19816E-02  3.44747E+01 -1.00000E+00  1.48961E-01
      21    -1     0     0   502   501  0.000000000E+00  0.000000000E+00  9.003127430E+01  9.003127430E+01  0.000000000E+00  0.00000E+00  9.000E+00
      21    -1     0     0   511   502  0.000000000E+00  0.000000000E+00 -5.672161545E+02  5.672161545E+02  0.000000000E+00  0.00000E+00  9.000E+00
      25     1     1     2     0     0  3.105829623E+01  8.882691504E+01 -3.712765871E+02  4.028971863E+02  1.250000000E+02  0.00000E+00  9.000E+00
      25     1     1     2     0     0  3.228735610E+00 -8.523472123E+01 -9.117469171E+00  1.516031355E+02  1.250000000E+02  0.00000E+00  9.000E+00
      21     1     1     2   511   501 -3.428703184E+01 -3.592193811E+00 -9.679082392E+01  1.027471070E+02  1.348699152E-06  0.00000E+00  9.000E+00
#rwgt            1           1   2.7312266523030128E-002           7      108818           0
</event>
<event>
      5   9999  3.19816E-02  1.46085E+02 -1.00000E+00  1.16851E-01
      21    -1     0     0   502   501  0.000000000E+00  0.000000000E+00  2.197665690E+02  2.197665690E+02  0.000000000E+00  0.00000E+00  9.000E+00
      21    -1     0     0   512   502  0.000000000E+00  0.000000000E+00 -6.075655447E+02  6.075655447E+02  0.000000000E+00  0.00000E+00  9.000E+00
      25     1     1     2     0     0  2.511510200E+01 -2.904630079E+02 -1.709481828E+02  3.603440141E+02  1.250000000E+02  0.00000E+00  9.000E+00
      25     1     1     2     0     0  8.227563387E+01  1.914278540E+02 -5.532008411E+01  2.491971407E+02  1.250000000E+02  0.00000E+00  9.000E+00
      21     1     1     2   512   501 -1.073907359E+02  9.903515394E+01 -1.615307088E+02  2.177909588E+02  1.907348633E-06  0.00000E+00  9.000E+00
#rwgt            1           1   2.6391550014050399E-002           7      108944           0
</event>
<event>
      5   9999  3.19816E-02  9.56723E+01 -1.00000E+00  1.24698E-01
      21    -1     0     0   502   511  0.000000000E+00  0.000000000E+00  7.126619003E+01  7.126619003E+01  0.000000000E+00  0.00000E+00  9.000E+00
      21    -1     0     0   501   502  0.000000000E+00  0.000000000E+00 -1.110990914E+03  1.110990914E+03  0.000000000E+00  0.00000E+00  9.000E+00
      25     1     1     2     0     0 -7.649145625E+01  9.976186933E+01 -2.588219741E+02  3.137151378E+02  1.250000000E+02  0.00000E+00  9.000E+00
      25     1     1     2     0     0  3.096262089E+01 -1.839064197E+02 -7.222081137E+02  7.563000824E+02  1.250000000E+02  0.00000E+00  9.000E+00
      21     1     1     2   501   511  4.552883536E+01  8.414455040E+01 -5.869463668E+01  1.122418843E+02  1.651812370E-06  0.00000E+00  9.000E+00
#rwgt            1           1   3.4148559100388054E-002           7      109013           0
</event>
<event>
      5   9999  3.19816E-02  1.07888E+02 -1.00000E+00  1.22363E-01
      21    -1     0     0   502   501  0.000000000E+00  0.000000000E+00  1.039820897E+03  1.039820897E+03  0.000000000E+00  0.00000E+00  9.000E+00
      21    -1     0     0   512   502  0.000000000E+00  0.000000000E+00 -3.359075365E+02  3.359075365E+02  0.000000000E+00  0.00000E+00  9.000E+00
      25     1     1     2     0     0 -2.900207558E+02  3.275515849E+01  2.093337076E+02  3.803032216E+02  1.250000000E+02  0.00000E+00  9.000E+00
      25     1     1     2     0     0  3.971250797E+02 -4.573269790E+01  6.696122658E+02  7.898135192E+02  1.250000000E+02  0.00000E+00  9.000E+00
      21     1     1     2   512   501 -1.071043239E+02  1.297753940E+01 -1.750326127E+02  2.056116929E+02  3.814697266E-06  0.00000E+00  9.000E+00
#rwgt            1           1   2.7888347321882192E-002           7      109131           0
</event>
<event>
      5   9999  3.19816E-02  6.59863E+01 -1.00000E+00  1.32533E-01
      21    -1     0     0   502   501  0.000000000E+00  0.000000000E+00  2.764769504E+02  2.764769504E+02  0.000000000E+00  0.00000E+00  9.000E+00
      21    -1     0     0   501   511  0.000000000E+00  0.000000000E+00 -2.848329666E+02  2.848329666E+02  0.000000000E+00  0.00000E+00  9.000E+00
      25     1     1     2     0     0 -1.662800008E+02 -3.926638704E+01  5.622053168E+01  2.190356957E+02  1.250000000E+02  0.00000E+00  9.000E+00
      25     1     1     2     0     0  2.250731754E+02  6.922569732E+01 -3.147511730E+01  2.684507673E+02  1.250000000E+02  0.00000E+00  9.000E+00
      21     1     1     2   502   511 -5.879317462E+01 -2.995931028E+01 -3.310143053E+01  7.382345398E+01  1.168007728E-06  0.00000E+00  9.000E+00
#rwgt            1           1   2.9328179976471597E-002           7      109188           0
</event>
<event>
      5   9999  3.19816E-02  2.95791E+01 -1.00000E+00  1.53467E-01
      21    -1     0     0   502   501  0.000000000E+00  0.000000000E+00  3.258511366E+02  3.258511366E+02  0.000000000E+00  0.00000E+00  9.000E+00
      21    -1     0     0   501   512  0.000000000E+00  0.000000000E+00 -1.745280321E+03  1.745280321E+03  0.000000000E+00  0.00000E+00  9.000E+00
      25     1     1     2     0     0  6.772611826E+02 -8.787602735E+01 -3.971587646E+02  7.998531053E+02  1.250000000E+02  0.00000E+00  9.000E+00
      25     1     1     2     0     0 -7.067140563E+02  8.514580007E+01 -9.537387877E+02  1.196635801E+03  1.250000000E+02  0.00000E+00  9.000E+00
      21     1     1     2   502   512  2.945287364E+01  2.730227278E+00 -6.853163240E+01  7.464255185E+01  1.348699152E-06  0.00000E+00  9.000E+00
#rwgt            1           1   2.9555677183744387E-002           7      109232           0
</event>
<event>
      5   9999  3.19816E-02  6.86693E+00 -1.00000E+00  2.16739E-01
      21    -1     0     0   502   501  0.000000000E+00  0.000000000E+00  2.192600539E+03  2.192600539E+03  0.000000000E+00  0.00000E+00  9.000E+00
      21    -1     0     0   511   502  0.000000000E+00  0.000000000E+00 -2.253003520E+01  2.253003520E+01  0.000000000E+00  0.00000E+00  9.000E+00
      25     1     1     2     0     0 -1.587978297E+02  6.020943675E+01  8.731841567E+02  8.982858668E+02  1.250000000E+02  0.00000E+00  9.000E+00
      25     1     1     2     0     0  1.646178744E+02 -5.656502446E+01  1.287511507E+03  1.305223938E+03  1.250000000E+02  0.00000E+00  9.000E+00
      21     1     1     2   511   501 -5.820044739E+00 -3.644412287E+00  9.374839464E+00  1.162076919E+01  3.371747881E-07  0.00000E+00  9.000E+00
#rwgt            1           1   7.4482130043316275E-002           7      109438           0
</event>
<event>
      5   9999  3.19816E-02  2.62048E+01 -1.00000E+00  1.57235E-01
      21    -1     0     0   502   501  0.000000000E+00  0.000000000E+00  3.544899621E+02  3.544899621E+02  0.000000000E+00  0.00000E+00  9.000E+00
      21    -1     0     0   501   512  0.000000000E+00  0.000000000E+00 -5.423177326E+02  5.423177326E+02  0.000000000E+00  0.00000E+00  9.000E+00
      25     1     1     2     0     0 -1.494208231E+02 -1.427897624E+02  1.958067931E+01  2.423301501E+02  1.250000000E+02  0.00000E+00  9.000E+00
      25     1     1     2     0     0  1.518449809E+02  1.688821568E+02  1.477295291E+02  2.983740854E+02  1.250000000E+02  0.00000E+00  9.000E+00
      21     1     1     2   502   512 -2.424157721E+00 -2.609239440E+01 -3.551379789E+02  3.561034592E+02  3.814697266E-06  0.00000E+00  9.000E+00
#rwgt            1           1   2.9092012551643679E-002           7      109722           0
</event>
<event>
      5   9999  3.19816E-02  9.53600E+00 -1.00000E+00  1.98173E-01
      21    -1     0     0   511   501  0.000000000E+00  0.000000000E+00  7.912194715E+02  7.912194715E+02  0.000000000E+00  0.00000E+00  9.000E+00
      21    -1     0     0   501   502  0.000000000E+00  0.000000000E+00 -9.101822742E+01  9.101822742E+01  0.000000000E+00  0.00000E+00  9.000E+00
      25     1     1     2     0     0 -1.622767614E+02 -1.350974983E+02  3.534857139E+02  4.303048120E+02  1.250000000E+02  0.00000E+00  9.000E+00
      25     1     1     2     0     0  1.527496882E+02  1.355099430E+02  2.208996655E+02  3.257561574E+02  1.250000000E+02  0.00000E+00  9.000E+00
      21     1     1     2   511   502  9.527073242E+00 -4.124447544E-01  1.258158647E+02  1.261767294E+02  1.348699152E-06  0.00000E+00  9.000E+00
#rwgt            1           1   2.9293312015150261E-002           7      109804           0
</event>
<event>
      5   9999  3.19816E-02  3.78870E+01 -1.00000E+00  1.46317E-01
      21    -1     0     0   502   501  0.000000000E+00  0.000000000E+00  2.151602251E+03  2.151602251E+03  0.000000000E+00  0.00000E+00  9.000E+00
      21    -1     0     0   512   502  0.000000000E+00  0.000000000E+00 -1.398564620E+03  1.398564620E+03  0.000000000E+00  0.00000E+00  9.000E+00
      25     1     1     2     0     0 -5.895920801E+02  7.752555951E+02 -9.363818382E+02  1.356862560E+03  1.250000000E+02  0.00000E+00  9.000E+00
      25     1     1     2     0     0  5.745519331E+02 -7.404817767E+02  1.823448372E+03  2.054023405E+03  1.250000000E+02  0.00000E+00  9.000E+00
      21     1     1     2   512   501  1.504014704E+01 -3.477381840E+01 -1.340289021E+02  1.392809071E+02  3.303624740E-06  0.00000E+00  9.000E+00
#rwgt            1           1   2.8673811969220087E-002           7      110046           0
</event>
<event>
      5   9999  3.19816E-02  8.49190E+01 -1.00000E+00  1.27108E-01
      21    -1     0     0   502   501  0.000000000E+00  0.000000000E+00  2.783093080E+02  2.783093080E+02  0.000000000E+00  0.00000E+00  9.000E+00
       2    -1     0     0   501     0  0.000000000E+00  0.000000000E+00 -8.693719569E+02  8.693719569E+02  0.000000000E+00  0.00000E+00  9.000E+00
      25     1     1     2     0     0  1.027425354E+02 -1.184692491E+02  1.352009883E+01  2.009944891E+02  1.250000000E+02  0.00000E+00  9.000E+00
      25     1     1     2     0     0 -1.320266771E+02  1.981791515E+02  6.094506436E+01  2.757631600E+02  1.250000000E+02  0.00000E+00  9.000E+00
       2     1     1     2   502     0  2.928414170E+01 -7.970990242E+01 -6.655278121E+02  6.709236158E+02  1.078959322E-05  0.00000E+00  9.000E+00
#rwgt            1           1   2.4993729585881155E-002           7      110277           0
</event>
<event>
      5   9999  3.19816E-02  1.10037E+02 -1.00000E+00  1.21988E-01
       2    -1     0     0   502     0  0.000000000E+00  0.000000000E+00  2.838210040E+03  2.838210040E+03  0.000000000E+00  0.00000E+00  9.000E+00
      21    -1     0     0   501   502  0.000000000E+00  0.000000000E+00 -1.020333347E+02  1.020333347E+02  0.000000000E+00  0.00000E+00  9.000E+00
      25     1     1     2     0     0 -5.587606835E+01 -4.110884347E+02  1.300746166E+03  1.371014743E+03  1.250000000E+02  0.00000E+00  9.000E+00
      25     1     1     2     0     0  5.250549050E+01  3.011029285E+02  3.612809369E+02  4.894575726E+02  1.250000000E+02  0.00000E+00  9.000E+00
       2     1     1     2   501     0  3.370577849E+00  1.099855063E+02  1.074149602E+03  1.079771059E+03  1.525878906E-05  0.00000E+00  9.000E+00
#rwgt            1           1   2.7028373862522530E-002           7      110350           0
</event>
<event>
      5   9999  3.19816E-02  2.91241E+01 -1.00000E+00  1.53939E-01
      21    -1     0     0   502   501  0.000000000E+00  0.000000000E+00  4.155746258E+02  4.155746258E+02  0.000000000E+00  0.00000E+00  9.000E+00
      21    -1     0     0   501   511  0.000000000E+00  0.000000000E+00 -5.305382215E+02  5.305382215E+02  0.000000000E+00  0.00000E+00  9.000E+00
      25     1     1     2     0     0  1.926271383E+02 -3.210197073E+01 -1.652459593E+02  2.847226334E+02  1.250000000E+02  0.00000E+00  9.000E+00
      25     1     1     2     0     0 -1.826347427E+02  5.945820220E+01  3.180687060E+02  3.920247808E+02  1.250000000E+02  0.00000E+00  9.000E+00
      21     1     1     2   502   511 -9.992395585E+00 -2.735623147E+01 -2.677863424E+02  2.693654331E+02  0.000000000E+00  0.00000E+00  9.000E+00
#rwgt            1           1   2.6461905517585611E-002           7      110426           0
</event>
<event>
      5   9999  3.19816E-02  2.94369E+01 -1.00000E+00  1.53614E-01
      21    -1     0     0   512   501  0.000000000E+00  0.000000000E+00  1.278550615E+02  1.278550615E+02  0.000000000E+00  0.00000E+00  9.000E+00
      21    -1     0     0   501   502  0.000000000E+00  0.000000000E+00 -1.537582820E+03  1.537582820E+03  0.000000000E+00  0.00000E+00  9.000E+00
      25     1     1     2     0     0  2.202010126E+02  9.971193660E+00 -7.490717392E+02  7.907726482E+02  1.250000000E+02  0.00000E+00  9.000E+00
      25     1     1     2     0     0 -2.442591475E+02  6.991627803E+00 -7.404123953E+02  7.896498776E+02  1.250000000E+02  0.00000E+00  9.000E+00
      21     1     1     2   512   502  2.405813492E+01 -1.696282146E+01  7.975637614E+01  8.501535569E+01  3.932099939E-06  0.00000E+00  9.000E+00
#rwgt            1           1   3.5874745292945612E-002           7      110568           0
</event>
<event>
      5   9999  3.19816E-02  3.05720E+01 -1.00000E+00  1.52472E-01
      21    -1     0     0   502   501  0.000000000E+00  0.000000000E+00  2.225305362E+02  2.225305362E+02  0.000000000E+00  0.00000E+00  9.000E+00
      21    -1     0     0   511   502  0.000000000E+00  0.000000000E+00 -2.088288277E+02  2.088288277E+02  0.000000000E+00  0.00000E+00  9.000E+00
      25     1     1     2     0     0  5.863235508E+01 -6.620416814E+01  9.737644761E+01  1.814605122E+02  1.250000000E+02  0.00000E+00  9.000E+00
      25     1     1     2     0     0 -5.061626270E+01  3.670185118E+01  2.056442130E+01  1.412689894E+02  1.250000000E+02  0.00000E+00  9.000E+00
      21     1     1     2   511   501 -8.016092380E+00  2.950231696E+01 -1.042391604E+02  1.086298624E+02  1.348699152E-06  0.00000E+00  9.000E+00
#rwgt            1           1   4.1219040754743766E-002           7      110680           0
</event>
<event>
      5   9999  3.19816E-02  1.37336E+02 -1.00000E+00  1.17932E-01
      21    -1     0     0   502   512  0.000000000E+00  0.000000000E+00  4.345620528E+02  4.345620528E+02  0.000000000E+00  0.00000E+00  9.000E+00
      21    -1     0     0   501   502  0.000000000E+00  0.000000000E+00 -4.892888667E+02  4.892888667E+02  0.000000000E+00  0.00000E+00  9.000E+00
      25     1     1     2     0     0 -1.117780161E+02  1.080324373E+02  1.198001460E+02  2.326852109E+02  1.250000000E+02  0.00000E+00  9.000E+00
      25     1     1     2     0     0  1.385002792E+02 -2.427432412E+02 -3.521591899E+02  4.666344431E+02  1.250000000E+02  0.00000E+00  9.000E+00
      21     1     1     2   501   512 -2.672226304E+01  1.347108039E+02  1.776322301E+02  2.245312655E+02  2.697398305E-06  0.00000E+00  9.000E+00
#rwgt            1           1   2.8425579795783716E-002           7      110768           0
</event>
<event>
      5   9999  3.19816E-02  6.62187E+01 -1.00000E+00  1.32454E-01
      21    -1     0     0   502   511  0.000000000E+00  0.000000000E+00  7.476667251E+02  7.476667251E+02  0.000000000E+00  0.00000E+00  9.000E+00
      21    -1     0     0   501   502  0.000000000E+00  0.000000000E+00 -2.190372885E+02  2.190372885E+02  0.000000000E+00  0.00000E+00  9.000E+00
      25     1     1     2     0     0 -2.338131519E+02  2.177659970E+02  1.432373441E+02  3.717963908E+02  1.250000000E+02  0.00000E+00  9.000E+00
      25     1     1     2     0     0  2.956838006E+02 -1.941663349E+02  2.712893869E+02  4.629820807E+02  1.250000000E+02  0.00000E+00  9.000E+00
      21     1     1     2   501   511 -6.187064874E+01 -2.359966216E+01  1.141027056E+02  1.319255421E+02  1.907348633E-06  0.00000E+00  9.000E+00
#rwgt            1           1   2.8506952688528302E-002           7      110841           0
</event>
<event>
      5   9999  3.19816E-02  1.94191E+02 -1.00000E+00  1.12116E-01
      21    -1     0     0   502   501  0.000000000E+00  0.000000000E+00  3.804450259E+02  3.804450259E+02  0.000000000E+00  0.00000E+00  9.000E+00
      21    -1     0     0   501   512  0.000000000E+00  0.000000000E+00 -2.686619415E+02  2.686619415E+02  0.000000000E+00  0.00000E+00  9.000E+00
      25     1     1     2     0     0 -9.817023917E+01 -9.804359688E+00 -4.960604627E+01  1.667911303E+02  1.250000000E+02  0.00000E+00  9.000E+00
      25     1     1     2     0     0 -9.410884906E+01  3.698729764E+01  2.262684779E+02  2.775733412E+02  1.250000000E+02  0.00000E+00  9.000E+00
      21     1     1     2   502   512  1.922790882E+02 -2.718293795E+01 -6.487934734E+01  2.047424958E+02  1.651812370E-06  0.00000E+00  9.000E+00
#rwgt            2          11   3.6902922827534287E-003           7      110921           0
</event>
<event>
      5   9999  3.19816E-02  1.05766E+02 -1.00000E+00  1.22743E-01
       4    -1     0     0   502     0  0.000000000E+00  0.000000000E+00  1.246875596E+03  1.246875596E+03  0.000000000E+00  0.00000E+00  9.000E+00
      21    -1     0     0   501   502  0.000000000E+00  0.000000000E+00 -2.243228341E+02  2.243228341E+02  0.000000000E+00  0.00000E+00  9.000E+00
      25     1     1     2     0     0 -2.377278477E+02  3.541807908E+02  4.978562650E+02  6.674162290E+02  1.250000000E+02  0.00000E+00  9.000E+00
      25     1     1     2     0     0  1.485101909E+02 -2.973768449E+02  5.832743676E+02  6.828779192E+02  1.250000000E+02  0.00000E+00  9.000E+00
       4     1     1     2   501     0  8.921765681E+01 -5.680394592E+01 -5.857787028E+01  1.209042822E+02  3.504023184E-06  0.00000E+00  9.000E+00
#rwgt            1           1   2.8421009333735966E-002           7      110941           0
</event>
<event>
      5   9999  3.19816E-02  8.05755E+01 -1.00000E+00  1.28199E-01
      21    -1     0     0   502   511  0.000000000E+00  0.000000000E+00  1.273054339E+02  1.273054339E+02  0.000000000E+00  0.00000E+00  9.000E+00
      21    -1     0     0   501   502  0.000000000E+00  0.000000000E+00 -1.081183113E+03  1.081183113E+03  0.000000000E+00  0.00000E+00  9.000E+00
      25     1     1     2     0     0 -2.188610916E+02  1.284108837E+02 -5.817041948E+02  6.468340611E+02  1.250000000E+02  0.00000E+00  9.000E+00
      25     1     1     2     0     0  1.796077720E+02 -1.987783705E+02 -3.791447003E+02  4.807780112E+02  1.250000000E+02  0.00000E+00  9.000E+00
      21     1     1     2   501   511  3.925331954E+01  7.036748689E+01  6.971215835E+00  8.087647468E+01  1.780174318E-06  0.00000E+00  9.000E+00
#rwgt            1           1   3.4213699815598450E-002           7      111073           0
</event>
<event>
      5   9999  3.19816E-02  5.91973E+01 -1.00000E+00  1.35017E-01
      21    -1     0     0   502   512  0.000000000E+00  0.000000000E+00  3.681272624E+02  3.681272624E+02  0.000000000E+00  0.00000E+00  9.000E+00
      21    -1     0     0   501   502  0.000000000E+00  0.000000000E+00 -7.565708328E+02  7.565708328E+02  0.000000000E+00  0.00000E+00  9.000E+00
      25     1     1     2     0     0 -3.372952662E+02  1.761446970E+02 -9.132676201E+00  4.006288265E+02  1.250000000E+02  0.00000E+00  9.000E+00
      25     1     1     2     0     0  2.985255870E+02 -1.314095666E+02 -4.881038474E+02  6.002136004E+02  1.250000000E+02  0.00000E+00  9.000E+00
      21     1     1     2   501   512  3.876967921E+01 -4.473513041E+01  1.087929531E+02  1.238556683E+02  0.000000000E+00  0.00000E+00  9.000E+00
#rwgt            1           1   2.8406395810449670E-002           7      111160           0
</event>
<event>
      5   9999  3.19816E-02  3.28971E+01 -1.00000E+00  1.50310E-01
      21    -1     0     0   502   501  0.000000000E+00  0.000000000E+00  2.405552023E+02  2.405552023E+02  0.000000000E+00  0.00000E+00  9.000E+00
       1    -1     0     0   501     0  0.000000000E+00  0.000000000E+00 -1.091568274E+03  1.091568274E+03  0.000000000E+00  0.00000E+00  9.000E+00
      25     1     1     2     0     0  4.062772875E+02 -1.397139896E+02 -1.987169287E+02  4.895862039E+02  1.250000000E+02  0.00000E+00  9.000E+00
      25     1     1     2     0     0 -4.377156804E+02  1.300264855E+02 -5.074297867E+02  6.939826311E+02  1.250000000E+02  0.00000E+00  9.000E+00
       1     1     1     2   502     0  3.143839291E+01  9.687504174E+00 -1.448663559E+02  1.485546410E+02  2.697398305E-06  0.00000E+00  9.000E+00
#rwgt            1           1   2.9185650061925965E-002           7      111220           0
</event>
<event>
      5   9999  3.19816E-02  1.03587E+02 -1.00000E+00  1.23143E-01
      21    -1     0     0   502   501  0.000000000E+00  0.000000000E+00  1.040212134E+02  1.040212134E+02  0.000000000E+00  0.00000E+00  9.000E+00
      21    -1     0     0   511   502  0.000000000E+00  0.000000000E+00 -1.039648812E+03  1.039648812E+03  0.000000000E+00  0.00000E+00  9.000E+00
      25     1     1     2     0     0 -8.275619495E+01  6.559347593E+01 -4.276550239E+02  4.578918119E+02  1.250000000E+02  0.00000E+00  9.000E+00
      25     1     1     2     0     0  2.669970537E+01 -1.527024147E+02 -3.574224864E+01  2.023200684E+02  1.250000000E+02  0.00000E+00  9.000E+00
      21     1     1     2   511   501  5.605648957E+01  8.710893877E+01 -4.722303262E+02  4.834581453E+02  9.344061824E-06  0.00000E+00  9.000E+00
#rwgt            1           1   2.7559935340936682E-002           7      111368           0
</event>
<event>
      5   9999  3.19816E-02  1.75976E+02 -1.00000E+00  1.13709E-01
      21    -1     0     0   502   501  0.000000000E+00  0.000000000E+00  2.022780185E+02  2.022780185E+02  0.000000000E+00  0.00000E+00  9.000E+00
      21    -1     0     0   501   512  0.000000000E+00  0.000000000E+00 -1.910322294E+03  1.910322294E+03  0.000000000E+00  0.00000E+00  9.000E+00
      25     1     1     2     0     0 -1.555551942E+02  2.535410979E+02 -1.059069023E+03  1.107128133E+03  1.250000000E+02  0.00000E+00  9.000E+00
      25     1     1     2     0     0  1.344130077E+02 -7.883993503E+01  1.088390527E+02  2.274940249E+02  1.250000000E+02  0.00000E+00  9.000E+00
      21     1     1     2   502   512  2.114218652E+01 -1.747011629E+02 -7.578143048E+02  7.779781546E+02  1.078959322E-05  0.00000E+00  9.000E+00
#rwgt            1           1   3.3455623162590702E-002           7      111412           0
</event>
<event>
      5   9999  3.19816E-02  1.73844E+02 -1.00000E+00  1.13910E-01
       2    -1     0     0   502     0  0.000000000E+00  0.000000000E+00  2.213511294E+03  2.213511294E+03  0.000000000E+00  0.00000E+00  9.000E+00
      21    -1     0     0   501   502  0.000000000E+00  0.000000000E+00 -2.980122193E+02  2.980122193E+02  0.000000000E+00  0.00000E+00  9.000E+00
      25     1     1     2     0     0 -5.157602932E+02 -1.142469289E+02  3.176618200E+02  6.289634907E+02  1.250000000E+02  0.00000E+00  9.000E+00
      25     1     1     2     0     0  6.616423430E+02  1.969429167E+01  7.133414892E+02  9.811419548E+02  1.250000000E+02  0.00000E+00  9.000E+00
       2     1     1     2   501     0 -1.458820499E+02  9.455263727E+01  8.844957653E+02  9.014180675E+02  2.157918644E-05  0.00000E+00  9.000E+00
#rwgt            1           1   3.0683827001511475E-002           7      111473           0
</event>
<event>
      5   9999  3.19816E-02  9.01925E+01 -1.00000E+00  1.25878E-01
      21    -1     0     0   511   501  0.000000000E+00  0.000000000E+00  2.418496776E+02  2.418496776E+02  0.000000000E+00  0.00000E+00  9.000E+00
      21    -1     0     0   501   502  0.000000000E+00  0.000000000E+00 -5.875754425E+02  5.875754425E+02  0.000000000E+00  0.00000E+00  9.000E+00
      25     1     1     2     0     0  1.239633007E+02  2.688795887E+02 -3.301635048E+02  4.607559800E+02  1.250000000E+02  0.00000E+00  9.000E+00
      25     1     1     2     0     0 -3.719302958E+01 -2.442703286E+02 -2.475556458E+01  2.780092676E+02  1.250000000E+02  0.00000E+00  9.000E+00
      21     1     1     2   511   502 -8.677027115E+01 -2.460926009E+01  9.193304547E+00  9.065987253E+01  1.484143686E-06  0.00000E+00  9.000E+00
#rwgt            1           1   2.9028910376915084E-002           7      111565           0
</event>
<event>
      5   9999  3.19816E-02  5.25512E+01 -1.00000E+00  1.37853E-01
      21    -1     0     0   502   501  0.000000000E+00  0.000000000E+00  2.412034422E+02  2.412034422E+02  0.000000000E+00  0.00000E+00  9.000E+00
      21    -1     0     0   501   512  0.000000000E+00  0.000000000E+00 -2.503964075E+02  2.503964075E+02  0.000000000E+00  0.00000E+00  9.000E+00
      25     1     1     2     0     0  1.463869912E+02  1.678366756E+01  4.846943412E+01  1.992112666E+02  1.250000000E+02  0.00000E+00  9.000E+00
      25     1     1     2     0     0 -1.926229097E+02 -4.176106793E+01 -3.904513925E+01  2.366370534E+02  1.250000000E+02  0.00000E+00  9.000E+00
      21     1     1     2   502   512  4.623591852E+01  2.497740037E+01 -1.861726017E+01  5.575152973E+01  1.168007728E-06  0.00000E+00  9.000E+00
#rwgt            1           1   2.5208329863848914E-002           7      111748           0
</event>
<event>
      5   9999  3.19816E-02  2.46440E+01 -1.00000E+00  1.59219E-01
      21    -1     0     0   511   501  0.000000000E+00  0.000000000E+00  3.264715620E+02  3.264715620E+02  0.000000000E+00  0.00000E+00  9.000E+00
      21    -1     0     0   501   502  0.000000000E+00  0.000000000E+00 -3.010300030E+02  3.010300030E+02  0.000000000E+00  0.00000E+00  9.000E+00
      25     1     1     2     0     0  1.213486762E+02  1.211569805E+02 -2.034997398E+02  2.940096244E+02  1.250000000E+02  0.00000E+00  9.000E+00
      25     1     1     2     0     0 -1.051402537E+02 -1.397207581E+02  2.191736334E+02  3.069828086E+02  1.250000000E+02  0.00000E+00  9.000E+00
      21     1     1     2   511   502 -1.620842247E+01  1.856377762E+01  9.767665367E+00  2.650913211E+01  5.840038640E-07  0.00000E+00  9.000E+00
#rwgt            1           1   2.8157454662435081E-002           7      111788           0
</event>
<event>
      5   9999  3.19816E-02  8.87304E+01 -1.00000E+00  1.26209E-01
      21    -1     0     0   502   512  0.000000000E+00  0.000000000E+00  1.570767155E+03  1.570767155E+03  0.000000000E+00  0.00000E+00  9.000E+00
      21    -1     0     0   501   502  0.000000000E+00  0.000000000E+00 -6.916003767E+02  6.916003767E+02  0.000000000E+00  0.00000E+00  9.000E+00
      25     1     1     2     0     0 -6.761029405E+02 -5.367007119E+02  3.397568236E+02  9.360675935E+02  1.250000000E+02  0.00000E+00  9.000E+00
      25     1     1     2     0     0  7.540102951E+02  5.791687385E+02  2.053996422E+02  9.807048311E+02  1.250000000E+02  0.00000E+00  9.000E+00
      21     1     1     2   501   512 -7.790735456E+01 -4.246802659E+01  3.340103125E+02  3.455951071E+02  5.394796609E-06  0.00000E+00  9.000E+00
#rwgt            1           1   3.4594430011547064E-002           7      111916           0
</event>
<event>
      5   9999  3.19816E-02  3.97245E+01 -1.00000E+00  1.45027E-01
      21    -1     0     0   502   501  0.000000000E+00  0.000000000E+00  2.578750475E+02  2.578750475E+02  0.000000000E+00  0.00000E+00  9.000E+00
      21    -1     0     0   501   511  0.000000000E+00  0.000000000E+00 -2.672507130E+02  2.672507130E+02  0.000000000E+00  0.00000E+00  9.000E+00
      25     1     1     2     0     0 -3.919127064E+01  1.767298394E+02  2.518161857E+01  2.214238147E+02  1.250000000E+02  0.00000E+00  9.000E+00
      25     1     1     2     0     0  5.286547195E+01 -2.140266272E+02 -3.795284029E+00  2.534591870E+02  1.250000000E+02  0.00000E+00  9.000E+00
      21     1     1     2   502   511 -1.367420131E+01  3.729678784E+01 -3.076200002E+01  5.024275878E+01  1.011524364E-06  0.00000E+00  9.000E+00
#rwgt            1           1   2.5148333294189872E-002           7      112036           0
</event>
<event>
      5   9999  3.19816E-02  7.67068E+00 -1.00000E+00  2.10086E-01
      21    -1     0     0   502   501  0.000000000E+00  0.000000000E+00  2.316774413E+02  2.316774413E+02  0.000000000E+00  0.00000E+00  9.000E+00
      21    -1     0     0   501   512  0.000000000E+00  0.000000000E+00 -2.937487690E+03  2.937487690E+03  0.000000000E+00  0.00000E+00  9.000E+00
      25     1     1     2     0     0 -4.044906402E+02 -5.297839933E+02 -4.528818192E+02  8.154818819E+02  1.250000000E+02  0.00000E+00  9.000E+00
      25     1     1     2     0     0  4.010056863E+02  5.229506615E+02 -2.193542471E+03  2.293803943E+03  1.250000000E+02  0.00000E+00  9.000E+00
      21     1     1     2   502   512  3.484953860E+00  6.833331801E+00 -5.938595850E+01  5.987930689E+01  6.743495762E-07  0.00000E+00  9.000E+00
#rwgt            1           1   2.5235831855602606E-002           7      112118           0
</event>
<event>
      5   9999  3.19816E-02  6.51554E+01 -1.00000E+00  1.32818E-01
      21    -1     0     0   502   501  0.000000000E+00  0.000000000E+00  4.551099017E+02  4.551099017E+02  0.000000000E+00  0.00000E+00  9.000E+00
      21    -1     0     0   501   511  0.000000000E+00  0.000000000E+00 -2.738235066E+02  2.738235066E+02  0.000000000E+00  0.00000E+00  9.000E+00
      25     1     1     2     0     0  1.388474482E+02  1.204000745E+02 -4.331922821E+01  2.264428125E+02  1.250000000E+02  0.00000E+00  9.000E+00
      25     1     1     2     0     0 -1.920704736E+02 -1.579838753E+02  2.956730805E+02  4.060757838E+02  1.250000000E+02  0.00000E+00  9.000E+00
      21     1     1     2   502   511  5.322302541E+01  3.758380075E+01 -7.106745718E+01  9.641481204E+01  9.536743164E-07  0.00000E+00  9.000E+00
#rwgt            1           1   3.4413764429502058E-002           7      112535           0
</event>
<event>
      5   9999  3.19816E-02  4.75778E+01 -1.00000E+00  1.40317E-01
      21    -1     0     0   502   501  0.000000000E+00  0.000000000E+00  4.971024622E+02  4.971024622E+02  0.000000000E+00  0.00000E+00  9.000E+00
      21    -1     0     0   501   512  0.000000000E+00  0.000000000E+00 -3.078569755E+02  3.078569755E+02  0.000000000E+00  0.00000E+00  9.000E+00
      25     1     1     2     0     0  3.082720638E+02 -1.022764039E+01  2.733803938E+01  3.339290918E+02  1.250000000E+02  0.00000E+00  9.000E+00
      25     1     1     2     0     0 -3.554974777E+02  1.600757407E+01  1.827173166E+02  4.191006047E+02  1.250000000E+02  0.00000E+00  9.000E+00
      21     1     1     2   502   512  4.722541396E+01 -5.779933681E+00 -2.080986925E+01  5.192974114E+01  2.384185791E-07  0.00000E+00  9.000E+00
#rwgt            1           1   2.7444677655454899E-002           7      112688           0
</event>
<event>
      5   9999  3.19816E-02  1.27012E+02 -1.00000E+00  1.19331E-01
      21    -1     0     0   502   501  0.000000000E+00  0.000000000E+00  1.342016465E+03  1.342016465E+03  0.000000000E+00  0.00000E+00  9.000E+00
      21    -1     0     0   511   502  0.000000000E+00  0.000000000E+00 -8.546097375E+01  8.546097375E+01  0.000000000E+00  0.00000E+00  9.000E+00
      25     1     1     2     0     0 -1.433743452E+02  1.363770401E+02  7.092183758E+02  7.468404144E+02  1.250000000E+02  0.00000E+00  9.000E+00
      25     1     1     2     0     0  1.644363238E+01 -1.409195319E+02  5.163741894E+02  5.499054564E+02  1.250000000E+02  0.00000E+00  9.000E+00
      21     1     1     2   511   501  1.269307129E+02  4.542491853E+00  3.096292616E+01  1.307315681E+02  1.545128989E-06  0.00000E+00  9.000E+00
#rwgt            1           1   2.9789268078394424E-002           7      112776           0
</event>
<event>
      5   9999  3.19816E-02  2.73886E+01 -1.00000E+00  1.55839E-01
      21    -1     0     0   502   501  0.000000000E+00  0.000000000E+00  1.327985609E+02  1.327985609E+02  0.000000000E+00  0.00000E+00  9.000E+00
       1    -1     0     0   501     0  0.000000000E+00  0.000000000E+00 -1.675226001E+03  1.675226001E+03  0.000000000E+00  0.00000E+00  9.000E+00
      25     1     1     2     0     0  2.915874097E+02  1.103918626E+02 -5.982906401E+02  6.861386674E+02  1.250000000E+02  0.00000E+00  9.000E+00
      25     1     1     2     0     0 -2.740141036E+02 -1.313993892E+02 -2.159927004E+02  3.932268748E+02  1.250000000E+02  0.00000E+00  9.000E+00
       1     1     1     2   502     0 -1.757330608E+01  2.100752658E+01 -7.281440999E+02  7.286590200E+02  0.000000000E+00  0.00000E+00  9.000E+00
#rwgt            1           1   2.8523608745082939E-002           7      112851           0
</event>
<event>
      5   9999  3.19816E-02  3.04493E+01 -1.00000E+00  1.52593E-01
      21    -1     0     0   502   501  0.000000000E+00  0.000000000E+00  1.149241153E+02  1.149241153E+02  0.000000000E+00  0.00000E+00  9.000E+00
       2    -1     0     0   501     0  0.000000000E+00  0.000000000E+00 -2.364758778E+03  2.364758778E+03  0.000000000E+00  0.00000E+00  9.000E+00
      25     1     1     2     0     0  8.072634149E+01  1.021612184E+02 -6.997203443E+01  1.935839414E+02  1.250000000E+02  0.00000E+00  9.000E+00
      25     1     1     2     0     0 -1.064511251E+02 -1.184522535E+02 -1.403175702E+02  2.463266102E+02  1.250000000E+02  0.00000E+00  9.000E+00
       2     1     1     2   502     0  2.572478364E+01  1.629103506E+01 -2.039545058E+03  2.039772342E+03  2.157918644E-05  0.00000E+00  9.000E+00
#rwgt            1           1   3.1578373064118856E-002           7      112982           0
</event>
<event>
      5   9999  3.19816E-02  4.57096E+01 -1.00000E+00  1.41336E-01
      21    -1     0     0   502   501  0.000000000E+00  0.000000000E+00  6.679516240E+02  6.679516240E+02  0.000000000E+00  0.00000E+00  9.000E+00
      21    -1     0     0   511   502  0.000000000E+00  0.000000000E+00 -5.091013436E+01  5.091013436E+01  0.000000000E+00  0.00000E+00  9.000E+00
      25     1     1     2     0     0  3.449379278E+01 -5.032252425E+01  1.250124446E+02  1.870168160E+02  1.250000000E+02  0.00000E+00  9.000E+00
      25     1     1     2     0     0 -5.191588545E+00  1.524055963E+01  4.575474106E+02  4.745880953E+02  1.250000000E+02  0.00000E+00  9.000E+00
      21     1     1     2   511   501 -2.930220424E+01  3.508196462E+01  3.448163446E+01  5.725684701E+01  4.768371582E-07  0.00000E+00  9.000E+00
#rwgt            1           1   5.6858261820898315E-002           7      113114           0
</event>
<event>
      5   9999  3.19816E-02  2.56017E+02 -1.00000E+00  1.07878E-01
       2    -1     0     0   502     0  0.000000000E+00  0.000000000E+00  1.905402312E+03  1.905402312E+03  0.000000000E+00  0.00000E+00  9.000E+00
      21    -1     0     0   501   502  0.000000000E+00  0.000000000E+00 -1.484355881E+03  1.484355881E+03  0.000000000E+00  0.00000E+00  9.000E+00
      25     1     1     2     0     0  9.501700177E+01 -8.250742373E+02 -9.531859934E+02  1.270418933E+03  1.250000000E+02  0.00000E+00  9.000E+00
      25     1     1     2     0     0 -2.176308611E+02  1.049820275E+03  4.659747895E+02  1.175688439E+03  1.250000000E+02  0.00000E+00  9.000E+00
       2     1     1     2   501     0  1.226138593E+02 -2.247460373E+02  9.082576352E+02  9.436508209E+02  1.078959322E-05  0.00000E+00  9.000E+00
#rwgt            2          18   2.4681071980921709E-003           7      113194           0
</event>
<event>
      5   9999  3.19816E-02  2.71821E+02 -1.00000E+00  1.07003E-01
      21    -1     0     0   502   511  0.000000000E+00  0.000000000E+00  4.586845086E+02  4.586845086E+02  0.000000000E+00  0.00000E+00  9.000E+00
      21    -1     0     0   501   502  0.000000000E+00  0.000000000E+00 -4.560626934E+02  4.560626934E+02  0.000000000E+00  0.00000E+00  9.000E+00
      25     1     1     2     0     0  1.241362637E+02  2.782082509E+02 -7.310515908E+01  3.373114394E+02  1.250000000E+02  0.00000E+00  9.000E+00
      25     1     1     2     0     0 -9.650449734E+01 -7.794927375E+00 -1.546144801E+02  2.211436555E+02  1.250000000E+02  0.00000E+00  9.000E+00
      21     1     1     2   501   511 -2.763176636E+01 -2.704133235E+02  2.303414543E+02  3.562921072E+02  5.394796609E-06  0.00000E+00  9.000E+00
#rwgt            1           1   2.7818751679476242E-002           7      113243           0
</event>
<event>
      5   9999  3.19816E-02  9.88605E+00 -1.00000E+00  1.96334E-01
      21    -1     0     0   512   501  0.000000000E+00  0.000000000E+00  3.599076603E+02  3.599076603E+02  0.000000000E+00  0.00000E+00  9.000E+00
      21    -1     0     0   501   502  0.000000000E+00  0.000000000E+00 -2.139199323E+03  2.139199323E+03  0.000000000E+00  0.00000E+00  9.000E+00
      25     1     1     2     0     0  6.278016183E+02  4.167851752E+02 -1.325963256E+03  1.530244526E+03  1.250000000E+02  0.00000E+00  9.000E+00
      25     1     1     2     0     0 -6.278840826E+02 -4.068994721E+02 -5.082239177E+02  9.130838691E+02  1.250000000E+02  0.00000E+00  9.000E+00
      21     1     1     2   512   502  8.246421466E-02 -9.885703034E+00  5.489551012E+01  5.577858869E+01  2.236564522E-06  0.00000E+00  9.000E+00
#rwgt            1           1   2.9760434707516575E-002           7      113275           0
</event>
<event>
      5   9999  3.19816E-02  2.76705E+01 -1.00000E+00  1.55519E-01
      21    -1     0     0   502   511  0.000000000E+00  0.000000000E+00  1.483632997E+03  1.483632997E+03  0.000000000E+00  0.00000E+00  9.000E+00
      21    -1     0     0   501   502  0.000000000E+00  0.000000000E+00 -8.596199755E+02  8.596199755E+02  0.000000000E+00  0.00000E+00  9.000E+00
      25     1     1     2     0     0 -6.200397050E+01 -1.184724551E+02 -1.398810456E+02  2.303734401E+02  1.250000000E+02  0.00000E+00  9.000E+00
      25     1     1     2     0     0  3.839950112E+01  1.329115801E+02 -6.614702745E+02  6.872466325E+02  1.250000000E+02  0.00000E+00  9.000E+00
      21     1     1     2   501   511  2.360446938E+01 -1.443912498E+01  1.425364342E+03  1.425632900E+03  0.000000000E+00  0.00000E+00  9.000E+00
#rwgt            1           1   3.4823972664743408E-002           7      113622           0
</event>
<event>
      5   9999  3.19816E-02  5.62973E+01 -1.00000E+00  1.36198E-01
      21    -1     0     0   502   501  0.000000000E+00  0.000000000E+00  4.193336506E+02  4.193336506E+02  0.000000000E+00  0.00000E+00  9.000E+00
      21    -1     0     0   512   502  0.000000000E+00  0.000000000E+00 -2.905485972E+02  2.905485972E+02  0.000000000E+00  0.00000E+00  9.000E+00
      25     1     1     2     0     0 -2.138275893E+02 -3.255080648E+00 -7.077557511E+01  2.576179643E+02  1.250000000E+02  0.00000E+00  9.000E+00
      25     1     1     2     0     0  1.806519794E+02 -4.222863740E+01  2.772977314E+02  3.562827912E+02  1.250000000E+02  0.00000E+00  9.000E+00
      21     1     1     2   512   501  3.317560996E+01  4.548371805E+01 -7.773710286E+01  9.598149230E+01  9.536743164E-07  0.00000E+00  9.000E+00
#rwgt            1           1   2.6896661877365377E-002           7      113766           0
</event>
<event>
      5   9999  3.19816E-02  9.74423E+01 -1.00000E+00  1.24336E-01
      21    -1     0     0   511   501  0.000000000E+00  0.000000000E+00  4.982295704E+02  4.982295704E+02  0.000000000E+00  0.00000E+00  9.000E+00
      21    -1     0     0   501   502  0.000000000E+00  0.000000000E+00 -3.622767377E+02  3.622767377E+02  0.000000000E+00  0.00000E+00  9.000E+00
      25     1     1     2     0     0  9.326053827E+01 -3.160025341E+02 -1.192637960E+02  3.720268573E+02  1.250000000E+02  0.00000E+00  9.000E+00
      25     1     1     2     0     0 -1.606958569E+02  2.456641714E+02  1.946802957E+02  3.737639109E+02  1.250000000E+02  0.00000E+00  9.000E+00
      21     1     1     2   511   502  6.743531863E+01  7.033836268E+01  6.053633301E+01  1.147155398E+02  0.000000000E+00  0.00000E+00  9.000E+00
#rwgt            1           1   2.7489886459534624E-002           7      113842           0
</event>
<event>
      5   9999  3.19816E-02  1.02924E+01 -1.00000E+00  1.94321E-01
      21    -1     0     0   502   501  0.000000000E+00  0.000000000E+00  2.013283986E+03  2.013283986E+03  0.000000000E+00  0.00000E+00  9.000E+00
       2    -1     0     0   501     0  0.000000000E+00  0.000000000E+00 -4.377836498E+02  4.377836498E+02  0.000000000E+00  0.00000E+00  9.000E+00
      25     1     1     2     0     0 -2.112117470E+02 -5.132812920E+01  1.085949726E+03  1.114520878E+03  1.250000000E+02  0.00000E+00  9.000E+00
      25     1     1     2     0     0  2.092714633E+02  6.143598676E+01  8.956792493E+02  9.302877208E+02  1.250000000E+02  0.00000E+00  9.000E+00
       2     1     1     2   502     0  1.940283616E+00 -1.010785755E+01 -4.061286395E+02  4.062590372E+02  1.427329020E-05  0.00000E+00  9.000E+00
#rwgt            1           1   8.4800479672827792E-002           7      113927           0
</event>
<event>
      5   9999  3.19816E-02  1.88304E+01 -1.00000E+00  1.68558E-01
      21    -1     0     0   511   501  0.000000000E+00  0.000000000E+00  2.325549572E+02  2.325549572E+02  0.000000000E+00  0.00000E+00  9.000E+00
      21    -1     0     0   501   502  0.000000000E+00  0.000000000E+00 -5.310995446E+02  5.310995446E+02  0.000000000E+00  0.00000E+00  9.000E+00
      25     1     1     2     0     0 -2.217189541E+02 -1.170912861E+02 -2.777232442E+02  3.944931739E+02  1.250000000E+02  0.00000E+00  9.000E+00
      25     1     1     2     0     0  2.212601839E+02  9.826651368E+01 -9.812591136E+01  2.895963936E+02  1.250000000E+02  0.00000E+00  9.000E+00
      21     1     1     2   511   502  4.587701967E-01  1.882477244E+01  7.730456814E+01  7.956493438E+01  9.536743164E-07  0.00000E+00  9.000E+00
#rwgt            1           1   2.6595527498185154E-002           7      114154           0
</event>
<event>
      5   9999  3.19816E-02  2.84411E+02 -1.00000E+00  1.06350E-01
       2    -1     0     0   502     0  0.000000000E+00  0.000000000E+00  1.459311087E+03  1.459311087E+03  0.000000000E+00  0.00000E+00  9.000E+00
      21    -1     0     0   501   502  0.000000000E+00  0.000000000E+00 -2.781719805E+02  2.781719805E+02  0.000000000E+00  0.00000E+00  9.000E+00
      25     1     1     2     0     0  2.936368993E+02  1.541842745E+02  3.224838354E+02  4.791828912E+02  1.250000000E+02  0.00000E+00  9.000E+00
      25     1     1     2     0     0 -1.352107963E+01 -1.049397897E+02 -1.427743854E+02  2.172664359E+02  1.250000000E+02  0.00000E+00  9.000E+00
       2     1     1     2   501     0 -2.801158197E+02 -4.924448477E+01  1.001429657E+03  1.041033741E+03  1.078959322E-05  0.00000E+00  9.000E+00
#rwgt            2          18   1.6201971954122546E-003           7      114264           0
</event>
<event>
      5   9999  3.19816E-02  1.59825E+02 -1.00000E+00  1.15312E-01
      21    -1     0     0   502   501  0.000000000E+00  0.000000000E+00  9.600906907E+02  9.600906907E+02  0.000000000E+00  0.00000E+00  9.000E+00
      21    -1     0     0   511   502  0.000000000E+00  0.000000000E+00 -8.430667700E+02  8.430667700E+02  0.000000000E+00  0.00000E+00  9.000E+00
      25     1     1     2     0     0 -3.192395828E+02 -1.276343972E+02  5.105984078E+02  6.281243385E+02  1.250000000E+02  0.00000E+00  9.000E+00
      25     1     1     2     0     0  4.439641652E+02  2.769561562E+01  2.406581465E+02  5.209727158E+02  1.250000000E+02  0.00000E+00  9.000E+00
      21     1     1     2   511   501 -1.247245824E+02  9.993878157E+01 -6.342326337E+02  6.540604063E+02  1.078959322E-05  0.00000E+00  9.000E+00
#rwgt            1           1   2.8668392528485413E-002           7      114298           0
</event>
<event>
      5   9999  3.19816E-02  2.40915E+01 -1.00000E+00  1.59964E-01
      21    -1     0     0   512   501  0.000000000E+00  0.000000000E+00  6.276633238E+02  6.276633238E+02  0.000000000E+00  0.00000E+00  9.000E+00
      21    -1     0     0   501   502  0.000000000E+00  0.000000000E+00 -1.243469126E+02  1.243469126E+02  0.000000000E+00  0.00000E+00  9.000E+00
      25     1     1     2     0     0 -1.217838096E+02  2.006477556E+02  1.983931436E+02  3.317765175E+02  1.250000000E+02  0.00000E+00  9.000E+00
      25     1     1     2     0     0  1.177662552E+02 -1.768936015E+02  2.149514818E+02  3.270923060E+02  1.250000000E+02  0.00000E+00  9.000E+00
      21     1     1     2   512   502  4.017554469E+00 -2.375415410E+01  8.997178570E+01  9.314141293E+01  9.536743164E-07  0.00000E+00  9.000E+00
#rwgt            1           1   2.6492423034609011E-002           7      114400           0
</event>
<event>
      5   9999  3.19816E-02  1.50312E+02 -1.00000E+00  1.16358E-01
      21    -1     0     0   502   501  0.000000000E+00  0.000000000E+00  2.812470381E+03  2.812470381E+03  0.000000000E+00  0.00000E+00  9.000E+00
      21    -1     0     0   511   502  0.000000000E+00  0.000000000E+00 -1.404399742E+02  1.404399742E+02  0.000000000E+00  0.00000E+00  9.000E+00
      25     1     1     2     0     0  2.456142330E+02  3.210743739E+02  2.335521552E+03  2.373541874E+03  1.250000000E+02  0.00000E+00  9.000E+00
      25     1     1     2     0     0 -2.226153413E+02 -1.725319297E+02  2.870545220E+02  4.211296185E+02  1.250000000E+02  0.00000E+00  9.000E+00
      21     1     1     2   511   501 -2.299889167E+01 -1.485424442E+02  4.945433256E+01  1.582388630E+02  3.303624740E-06  0.00000E+00  9.000E+00
#rwgt            1           1   7.5767400933392084E-002           7      114558           0
</event>
<event>
      5   9999  3.19816E-02  9.31163E+01 -1.00000E+00  1.25237E-01
      21    -1     0     0   512   501  0.000000000E+00  0.000000000E+00  1.296943073E+03  1.296943073E+03  0.000000000E+00  0.00000E+00  9.000E+00
      21    -1     0     0   501   502  0.000000000E+00  0.000000000E+00 -5.051527757E+01  5.051527757E+01  0.000000000E+00  0.00000E+00  9.000E+00
      25     1     1     2     0     0  1.205260621E+02  1.166364675E+00  1.983227899E+02  2.635997364E+02  1.250000000E+02  0.00000E+00  9.000E+00
      25     1     1     2     0     0 -8.491560892E+01  8.487161275E+01  8.069029469E+02  8.253067412E+02  1.250000000E+02  0.00000E+00  9.000E+00
      21     1     1     2   512   502 -3.561045314E+01 -8.603797742E+01  2.412020583E+02  2.585518727E+02  2.697398305E-06  0.00000E+00  9.000E+00
#rwgt            1           1   3.7701647546298511E-002           7      114602           0
</event>
<event>
      5   9999  3.19816E-02  1.64241E+02 -1.00000E+00  1.14854E-01
       2    -1     0     0   502     0  0.000000000E+00  0.000000000E+00  1.783708036E+03  1.783708036E+03  0.000000000E+00  0.00000E+00  9.000E+00
      21    -1     0     0   501   502  0.000000000E+00  0.000000000E+00 -2.766739334E+02  2.766739334E+02  0.000000000E+00  0.00000E+00  9.000E+00
      25     1     1     2     0     0 -3.343850731E+02 -1.665894950E+02  4.585512712E+02  6.045326337E+02  1.250000000E+02  0.00000E+00  9.000E+00
      25     1     1     2     0     0  4.310237509E+02  3.378821007E+01  6.025844763E+01  4.540695954E+02  1.250000000E+02  0.00000E+00  9.000E+00
       2     1     1     2   501     0 -9.663867775E+01  1.328012849E+02  9.882243840E+02  1.001779741E+03  1.078959322E-05  0.00000E+00  9.000E+00
#rwgt            1           1   2.8942630374882226E-002           7      114670           0
</event>
<event>
      5   9999  3.19816E-02  4.93768E+01 -1.00000E+00  1.39387E-01
      21    -1     0     0   502   501  0.000000000E+00  0.000000000E+00  1.367121055E+02  1.367121055E+02  0.000000000E+00  0.00000E+00  9.000E+00
      21    -1     0     0   511   502  0.000000000E+00  0.000000000E+00 -1.811277937E+03  1.811277937E+03  0.000000000E+00  0.00000E+00  9.000E+00
      25     1     1     2     0     0  9.900821477E+01 -2.044052798E+02 -1.428471806E+01  2.596405172E+02  1.250000000E+02  0.00000E+00  9.000E+00
      25     1     1     2     0     0 -1.082419024E+02  1.558995793E+02 -1.561124400E+03  1.577578961E+03  1.250000000E+02  0.00000E+00  9.000E+00
      21     1     1     2   511   501  9.233687658E+00  4.850570047E+01 -9.915671387E+01  1.107705641E+02  1.907348633E-06  0.00000E+00  9.000E+00
#rwgt            1           1   2.7903493214864222E-002           7      114738           0
</event>
<event>
      5   9999  3.19816E-02  2.34342E+01 -1.00000E+00  1.60884E-01
      21    -1     0     0   502   501  0.000000000E+00  0.000000000E+00  3.465335130E+02  3.465335130E+02  0.000000000E+00  0.00000E+00  9.000E+00
      21    -1     0     0   501   512  0.000000000E+00  0.000000000E+00 -7.133662647E+02  7.133662647E+02  0.000000000E+00  0.00000E+00  9.000E+00
      25     1     1     2     0     0 -3.306946807E+02  8.754745079E+01  1.550256922E+02  3.958301318E+02  1.250000000E+02  0.00000E+00  9.000E+00
      25     1     1     2     0     0  3.351595860E+02 -1.105523808E+02 -4.341910303E+02  5.733241909E+02  1.250000000E+02  0.00000E+00  9.000E+00
      21     1     1     2   502   512 -4.464905282E+00  2.300492999E+01 -8.766741358E+01  9.074545491E+01  9.536743164E-07  0.00000E+00  9.000E+00
#rwgt            1           1   3.0059571653723360E-002           7      114866           0
</event>
<event>
      5   9999  3.19816E-02  8.86216E+01 -1.00000E+00  1.26234E-01
      21    -1     0     0   502   501  0.000000000E+00  0.000000000E+00  4.904522699E+02  4.904522699E+02  0.000000000E+00  0.00000E+00  9.000E+00
      21    -1     0     0   501   511  0.000000000E+00  0.000000000E+00 -1.840867915E+02  1.840867915E+02  0.000000000E+00  0.00000E+00  9.000E+00
      25     1     1     2     0     0 -1.068300012E+02  6.625413030E+01  5.851257130E+01  1.866841716E+02  1.250000000E+02  0.00000E+00  9.000E+00
      25     1     1     2     0     0  1.870555756E+02 -2.860244742E+01  3.067242095E+02  3.814611763E+02  1.250000000E+02  0.00000E+00  9.000E+00
      21     1     1     2   502   511 -8.022557440E+01 -3.765168287E+01 -5.887130240E+01  1.063937134E+02  1.507891493E-06  0.00000E+00  9.000E+00
#rwgt            1           1   2.9600199550537550E-002           7      115023           0
</event>
<event>
      5   9999  3.19816E-02  1.14661E+02 -1.00000E+00  1.21213E-01
      21    -1     0     0   502   501  0.000000000E+00  0.000000000E+00  1.270044352E+03  1.270044352E+03  0.000000000E+00  0.00000E+00  9.000E+00
      21    -1     0     0   501   512  0.000000000E+00  0.000000000E+00 -2.712302802E+02  2.712302802E+02  0.000000000E+00  0.00000E+00  9.000E+00
      25     1     1     2     0     0  5.410396456E+01 -1.166179722E+02  7.815977399E+02  8.019021246E+02  1.250000000E+02  0.00000E+00  9.000E+00
      25     1     1     2     0     0  4.553148396E+01  1.733616754E+02  4.386196553E+02  4.900403948E+02  1.250000000E+02  0.00000E+00  9.000E+00
      21     1     1     2   502   512 -9.963544852E+01 -5.674370321E+01 -2.214033239E+02  2.493321124E+02  4.672030912E-06  0.00000E+00  9.000E+00
#rwgt            1           1   2.8229272270066597E-002           7      115089           0
</event>
<event>
      5   9999  3.19816E-02  1.26678E+01 -1.00000E+00  1.84589E-01
      21    -1     0     0   502   511  0.000000000E+00  0.000000000E+00  8.907433600E+01  8.907433600E+01  0.000000000E+00  0.00000E+00  9.000E+00
      21    -1     0     0   501   502  0.000000000E+00  0.000000000E+00 -1.585461829E+03  1.585461829E+03  0.000000000E+00  0.00000E+00  9.000E+00
      25     1     1     2     0     0 -9.659363430E+01  2.646075938E+02 -8.654874202E+02  9.187170312E+02  1.250000000E+02  0.00000E+00  9.000E+00
      25     1     1     2     0     0  1.085460852E+02 -2.604109443E+02 -6.575254457E+02  7.263338243E+02  1.250000000E+02  0.00000E+00  9.000E+00
      21     1     1     2   501   511 -1.195245088E+01 -4.196649484E+00  2.662537334E+01  2.948530913E+01  8.259061849E-07  0.00000E+00  9.000E+00
#rwgt            1           1   2.7190501707025246E-002           7      115149           0
</event>
<event>
      5   9999  3.19816E-02  6.13701E+01 -1.00000E+00  1.34181E-01
      21    -1     0     0   502   512  0.000000000E+00  0.000000000E+00  5.731210752E+01  5.731210752E+01  0.000000000E+00  0.00000E+00  9.000E+00
      21    -1     0     0   501   502  0.000000000E+00  0.000000000E+00 -1.372363421E+03  1.372363421E+03  0.000000000E+00  0.00000E+00  9.000E+00
      25     1     1     2     0     0  4.157689893E+01  1.218436703E+02 -1.705985523E+02  2.475952031E+02  1.250000000E+02  0.00000E+00  9.000E+00
      25     1     1     2     0     0  1.867825408E+01 -1.334886452E+02 -1.069616304E+03  1.085298177E+03  1.250000000E+02  0.00000E+00  9.000E+00
      21     1     1     2   501   512 -6.025515302E+01  1.164497480E+01 -7.483645710E+01  9.678214822E+01  1.348699152E-06  0.00000E+00  9.000E+00
#rwgt            1           1   2.9556125588472579E-002           7      115348           0
</event>
<event>
      5   9999  3.19816E-02  2.88573E+02 -1.00000E+00  1.06143E-01
      21    -1     0     0   502   501  0.000000000E+00  0.000000000E+00  1.049080938E+02  1.049080938E+02  0.000000000E+00  0.00000E+00  9.000E+00
       1    -1     0     0   501     0  0.000000000E+00  0.000000000E+00 -4.087742087E+03  4.087742087E+03  0.000000000E+00  0.00000E+00  9.000E+00
      25     1     1     2     0     0  2.932398540E+02  2.143579805E+02 -1.150252275E+03  1.212701221E+03  1.250000000E+02  0.00000E+00  9.000E+00
      25     1     1     2     0     0 -8.781584497E+00 -2.629161049E+02 -2.575307113E+02  3.887789368E+02  1.250000000E+02  0.00000E+00  9.000E+00
       1     1     1     2   502     0 -2.844582695E+02  4.855812438E+01 -2.575051007E+03  2.591170023E+03  3.051757812E-05  0.00000E+00  9.000E+00
#rwgt            1           1   2.8065926790390140E-002           7      115394           0
</event>
<event>
      5   9999  3.19816E-02  2.03324E+01 -1.00000E+00  1.65781E-01
       2    -1     0     0   502     0  0.000000000E+00  0.000000000E+00  1.425809672E+03  1.425809672E+03  0.000000000E+00  0.00000E+00  9.000E+00
      21    -1     0     0   501   502  0.000000000E+00  0.000000000E+00 -2.137070892E+02  2.137070892E+02  0.000000000E+00  0.00000E+00  9.000E+00
      25     1     1     2     0     0  2.495794693E+02 -2.059583120E+02  6.402891450E+01  3.527512433E+02  1.250000000E+02  0.00000E+00  9.000E+00
      25     1     1     2     0     0 -2.334416948E+02  2.183267751E+02  3.562193680E+02  4.946502236E+02  1.250000000E+02  0.00000E+00  9.000E+00
       2     1     1     2   501     0 -1.613777447E+01 -1.236846306E+01  7.918543000E+02  7.921152941E+02  0.000000000E+00  0.00000E+00  9.000E+00
#rwgt            1           1   3.1169434387183365E-002           7      115433           0
</event>
<event>
      5   9999  3.19816E-02  9.21449E+01 -1.00000E+00  1.25447E-01
      21    -1     0     0   502   501  0.000000000E+00  0.000000000E+00  2.050946123E+02  2.050946123E+02  0.000000000E+00  0.00000E+00  9.000E+00
      21    -1     0     0   511   502  0.000000000E+00  0.000000000E+00 -1.758335364E+03  1.758335364E+03  0.000000000E+00  0.00000E+00  9.000E+00
      25     1     1     2     0     0 -3.081342581E+02  4.247324781E+02 -5.206141788E+02  7.496722765E+02  1.250000000E+02  0.00000E+00  9.000E+00
      25     1     1     2     0     0  2.549162066E+02 -3.495093496E+02 -4.985919351E+02  6.718318060E+02  1.250000000E+02  0.00000E+00  9.000E+00
      21     1     1     2   511   501  5.321805142E+01 -7.522312853E+01 -5.340346376E+02  5.419258937E+02  0.000000000E+00  0.00000E+00  9.000E+00
#rwgt            1           1   2.9613645444345676E-002           7      115602           0
</event>
<event>
      5   9999  3.19816E-02  9.64682E+01 -1.00000E+00  1.24534E-01
      21    -1     0     0   502   501  0.000000000E+00  0.000000000E+00  6.518005797E+02  6.518005797E+02  0.000000000E+00  0.00000E+00  9.000E+00
      21    -1     0     0   512   502  0.000000000E+00  0.000000000E+00 -6.266185189E+02  6.266185189E+02  0.000000000E+00  0.00000E+00  9.000E+00
      25     1     1     2     0     0 -1.412680331E+02 -5.301860778E+01  5.871910120E+02  6.190201245E+02  1.250000000E+02  0.00000E+00  9.000E+00
      25     1     1     2     0     0  7.417169808E+01  1.223308712E+02 -1.675223475E+02  2.532884122E+02  1.250000000E+02  0.00000E+00  9.000E+00
      21     1     1     2   512   501  6.709633504E+01 -6.931226339E+01 -3.944866037E+02  4.061105619E+02  7.629394531E-06  0.00000E+00  9.000E+00
#rwgt            1           1   3.1538519025058775E-002           7      115713           0
</event>
<event>
      5   9999  3.19816E-02  2.41556E+01 -1.00000E+00  1.59877E-01
      21    -1     0     0   502   501  0.000000000E+00  0.000000000E+00  5.441352445E+02  5.441352445E+02  0.000000000E+00  0.00000E+00  9.000E+00
      21    -1     0     0   511   502  0.000000000E+00  0.000000000E+00 -2.877314760E+02  2.877314760E+02  0.000000000E+00  0.00000E+00  9.000E+00
      25     1     1     2     0     0  7.127267103E+01  3.556667721E+02  4.466223638E+01  3.862620377E+02  1.250000000E+02  0.00000E+00  9.000E+00
      25     1     1     2     0     0 -5.745946929E+01 -3.358504301E+02  2.140245764E+02  4.213414545E+02  1.250000000E+02  0.00000E+00  9.000E+00
      21     1     1     2   511   501 -1.381320174E+01 -1.981634202E+01 -2.283044295E+00  2.426322824E+01  5.567533282E-07  0.00000E+00  9.000E+00
#rwgt            1           1   2.7067041095979016E-002           7      115765           0
</event>
<event>
      5   9999  3.19816E-02  2.28522E+01 -1.00000E+00  1.61730E-01
      21    -1     0     0   512   501  0.000000000E+00  0.000000000E+00  2.594261342E+02  2.594261342E+02  0.000000000E+00  0.00000E+00  9.000E+00
      21    -1     0     0   501   502  0.000000000E+00  0.000000000E+00 -3.534020889E+02  3.534020889E+02  0.000000000E+00  0.00000E+00  9.000E+00
      25     1     1     2     0     0  1.309079217E+02  1.231456372E+02 -2.178716180E+02  3.088604440E+02  1.250000000E+02  0.00000E+00  9.000E+00
      25     1     1     2     0     0 -1.190071616E+02 -1.036368296E+02  2.546664086E+01  2.029207894E+02  1.250000000E+02  0.00000E+00  9.000E+00
      21     1     1     2   512   502 -1.190076015E+01 -1.950880762E+01  9.842902245E+01  1.010469897E+02  0.000000000E+00  0.00000E+00  9.000E+00
#rwgt            1           1   3.2027142790263669E-002           7      115883           0
</event>
<event>
      5   9999  3.19816E-02  5.42172E+01 -1.00000E+00  1.37098E-01
      21    -1     0     0   511   501  0.000000000E+00  0.000000000E+00  1.611148383E+03  1.611148383E+03  0.000000000E+00  0.00000E+00  9.000E+00
      21    -1     0     0   501   502  0.000000000E+00  0.000000000E+00 -5.378307168E+02  5.378307168E+02  0.000000000E+00  0.00000E+00  9.000E+00
      25     1     1     2     0     0  1.368508809E+02  6.610641918E+02  2.552176052E+02  7.324582277E+02  1.250000000E+02  0.00000E+00  9.000E+00
      25     1     1     2     0     0 -1.478658191E+02 -7.141507130E+02  1.610741711E+02  7.572617974E+02  1.250000000E+02  0.00000E+00  9.000E+00
      21     1     1     2   511   502  1.101493818E+01  5.308652112E+01  6.570258903E+02  6.592590751E+02  1.525878906E-05  0.00000E+00  9.000E+00
#rwgt            1           1   3.1030985075460642E-002           7      116065           0
</event>
<event>
      5   9999  3.19816E-02  2.49811E+01 -1.00000E+00  1.58775E-01
      21    -1     0     0   512   501  0.000000000E+00  0.000000000E+00  2.663922394E+03  2.663922394E+03  0.000000000E+00  0.00000E+00  9.000E+00
      21    -1     0     0   501   502  0.000000000E+00  0.000000000E+00 -1.072648262E+02  1.072648262E+02  0.000000000E+00  0.00000E+00  9.000E+00
      25     1     1     2     0     0  7.895422299E+01  3.175828164E+02  1.946568752E+03  1.977839104E+03  1.250000000E+02  0.00000E+00  9.000E+00
      25     1     1     2     0     0 -6.291137968E+01 -2.984338203E+02  2.064367916E+02  3.889238174E+02  1.250000000E+02  0.00000E+00  9.000E+00
      21     1     1     2   512   502 -1.604284331E+01 -1.914899605E+01  4.036520245E+02  4.044242992E+02  0.000000000E+00  0.00000E+00  9.000E+00
#rwgt            1           1   2.9259419731276014E-002           7      116238           0
</event>
<event>
      5   9999  3.19816E-02  1.48591E+01 -1.00000E+00  1.77770E-01
      21    -1     0     0   502   511  0.000000000E+00  0.000000000E+00  6.874065071E+02  6.874065071E+02  0.000000000E+00  0.00000E+00  9.000E+00
      21    -1     0     0   501   502  0.000000000E+00  0.000000000E+00 -9.011281668E+01  9.011281668E+01  0.000000000E+00  0.00000E+00  9.000E+00
      25     1     1     2     0     0  1.736328768E+02  3.242304965E+01  2.701833880E+02  3.461555911E+02  1.250000000E+02  0.00000E+00  9.000E+00
      25     1     1     2     0     0 -1.880430561E+02 -2.879802643E+01  1.988670315E+02  3.022624910E+02  1.250000000E+02  0.00000E+00  9.000E+00
      21     1     1     2   501   511  1.441017929E+01 -3.625023212E+00  1.282432710E+02  1.291012417E+02  1.907348633E-06  0.00000E+00  9.000E+00
#rwgt            1           1   2.5671800658425545E-002           7      116362           0
</event>
<event>
      5   9999  3.19816E-02  1.98337E+01 -1.00000E+00  1.66669E-01
      21    -1     0     0   502   501  0.000000000E+00  0.000000000E+00  4.699415935E+02  4.699415935E+02  0.000000000E+00  0.00000E+00  9.000E+00
      21    -1     0     0   512   502  0.000000000E+00  0.000000000E+00 -3.064952634E+02  3.064952634E+02  0.000000000E+00  0.00000E+00  9.000E+00
      25     1     1     2     0     0  9.022042382E+01  2.134359897E+02 -1.666674202E+00  2.632915198E+02  1.250000000E+02  0.00000E+00  9.000E+00
      25     1     1     2     0     0 -7.671332892E+01 -1.989124196E+02  2.932404334E+02  3.834918999E+02  1.250000000E+02  0.00000E+00  9.000E+00
      21     1     1     2   512   501 -1.350709490E+01 -1.452357015E+01 -1.281274291E+02  1.296534373E+02  0.000000000E+00  0.00000E+00  9.000E+00
#rwgt            1           1   2.8414404912992082E-002           7      116590           0
</event>
<event>
      5   9999  3.19816E-02  6.09117E+01 -1.00000E+00  1.34354E-01
      21    -1     0     0   502   501  0.000000000E+00  0.000000000E+00  5.795312432E+02  5.795312432E+02  0.000000000E+00  0.00000E+00  9.000E+00
      21    -1     0     0   511   502  0.000000000E+00  0.000000000E+00 -4.702293900E+02  4.702293900E+02  0.000000000E+00  0.00000E+00  9.000E+00
      25     1     1     2     0     0 -2.824552058E+02 -2.997616421E+02 -4.446294117E+01  4.327123046E+02  1.250000000E+02  0.00000E+00  9.000E+00
      25     1     1     2     0     0  2.314743078E+02  3.330961243E+02  2.577170602E+02  4.965646648E+02  1.250000000E+02  0.00000E+00  9.000E+00
      21     1     1     2   511   501  5.098089807E+01 -3.333448212E+01 -1.039522658E+02  1.204836638E+02  0.000000000E+00  0.00000E+00  9.000E+00
#rwgt            1           1   3.2946054107527309E-002           7      116814           0
</event>
<event>
      5   9999  3.19816E-02  5.88478E+01 -1.00000E+00  1.35155E-01
      21    -1     0     0   512   501  0.000000000E+00  0.000000000E+00  1.499696826E+03  1.499696826E+03  0.000000000E+00  0.00000E+00  9.000E+00
      21    -1     0     0   501   502  0.000000000E+00  0.000000000E+00 -2.357262560E+02  2.357262560E+02  0.000000000E+00  0.00000E+00  9.000E+00
      25     1     1     2     0     0  9.542295744E+01  9.659406694E+01  1.101865001E+03  1.117214140E+03  1.250000000E+02  0.00000E+00  9.000E+00
      25     1     1     2     0     0 -5.220787460E+01 -5.665003084E+01 -2.018055703E+02  2.495703836E+02  1.250000000E+02  0.00000E+00  9.000E+00
      21     1     1     2   512   502 -4.321508284E+01 -3.994403611E+01  3.639111398E+02  3.686385588E+02  5.394796609E-06  0.00000E+00  9.000E+00
#rwgt            1           1   2.7174739248503079E-002           7      116909           0
</event>
<event>
      5   9999  3.56883E-02  1.38615E+02 -1.00000E+00  1.17769E-01
       2    -1     0     0   502     0  0.000000000E+00  0.000000000E+00  1.232421562E+03  1.232421562E+03  0.000000000E+00  0.00000E+00  9.000E+00
      21    -1     0     0   501   502  0.000000000E+00  0.000000000E+00 -8.439091813E+02  8.439091813E+02  0.000000000E+00  0.00000E+00  9.000E+00
      25     1     1     2     0     0  1.219206541E+02  8.693366243E+02  1.009487144E+02  8.924272829E+02  1.250000000E+02  0.00000E+00  9.000E+00
      25     1     1     2     0     0 -7.358105206E+01 -9.992496448E+02  2.474548516E+02  1.039602293E+03  1.250000000E+02  0.00000E+00  9.000E+00
       2     1     1     2   501     0 -4.833960207E+01  1.299130205E+02  4.010881491E+01  1.443011679E+02  1.719260824E-06  0.00000E+00  9.000E+00
#rwgt            1           1   3.4587350179534924E-002           7      117059           0
</event>
<event>
      5   9999  3.19816E-02  9.37514E+01 -1.00000E+00  1.25102E-01
      21    -1     0     0   502   501  0.000000000E+00  0.000000000E+00  3.891354507E+02  3.891354507E+02  0.000000000E+00  0.00000E+00  9.000E+00
       1    -1     0     0   501     0  0.000000000E+00  0.000000000E+00 -1.757429477E+03  1.757429477E+03  0.000000000E+00  0.00000E+00  9.000E+00
      25     1     1     2     0     0 -6.032854790E+01  3.476419527E+02 -1.792105576E+02  4.150131141E+02  1.250000000E+02  0.00000E+00  9.000E+00
      25     1     1     2     0     0  1.519102810E+02 -3.676947370E+02  1.082498488E+02  4.308354475E+02  1.250000000E+02  0.00000E+00  9.000E+00
       1     1     1     2   502     0 -9.158173309E+01  2.005278431E+01 -1.297333317E+03  1.300716366E+03  1.525878906E-05  0.00000E+00  9.000E+00
#rwgt            1           1   2.8753340001446231E-002           7      117151           0
</event>
<event>
      5   9999  3.19816E-02  1.09162E+02 -1.00000E+00  1.22139E-01
      21    -1     0     0   511   501  0.000000000E+00  0.000000000E+00  1.402938454E+02  1.402938454E+02  0.000000000E+00  0.00000E+00  9.000E+00
      21    -1     0     0   501   502  0.000000000E+00  0.000000000E+00 -2.625916814E+03  2.625916814E+03  0.000000000E+00  0.00000E+00  9.000E+00
      25     1     1     2     0     0  2.722423504E+02  4.390326263E+02 -1.777941991E+03  1.855685390E+03  1.250000000E+02  0.00000E+00  9.000E+00
      25     1     1     2     0     0 -2.195451209E+02 -3.434326983E+02 -6.717065470E+02  7.955883130E+02  1.250000000E+02  0.00000E+00  9.000E+00
      21     1     1     2   511   502 -5.269722951E+01 -9.559992791E+01 -3.597443034E+01  1.149369560E+02  1.581489940E-06  0.00000E+00  9.000E+00
#rwgt            2          11   1.2921022023084166E-002           7      117316           0
</event>
<event>
      5   9999  3.19816E-02  2.78823E+02 -1.00000E+00  1.06635E-01
      21    -1     0     0   502   501  0.000000000E+00  0.000000000E+00  1.601642672E+03  1.601642672E+03  0.000000000E+00  0.00000E+00  9.000E+00
      21    -1     0     0   512   502  0.000000000E+00  0.000000000E+00 -6.724609453E+02  6.724609453E+02  0.000000000E+00  0.00000E+00  9.000E+00
      25     1     1     2     0     0  8.816425627E+02 -3.069366991E+02  2.041158031E+02  9.637385572E+02  1.250000000E+02  0.00000E+00  9.000E+00
      25     1     1     2     0     0 -7.433881039E+02  6.480472412E+01  6.994312846E+02  1.030366268E+03  1.250000000E+02  0.00000E+00  9.000E+00
      21     1     1     2   512   501 -1.382544587E+02  2.421319750E+02  2.563463919E+01  2.799987918E+02  4.909339018E-06  0.00000E+00  9.000E+00
#rwgt            1           1   2.0127531662934729E-002           7      117366           0
</event>
<event>
      5   9999  3.19816E-02  4.95485E+02 -1.00000E+00  9.89640E-02
      21    -1     0     0   502   501  0.000000000E+00  0.000000000E+00  1.624350130E+03  1.624350130E+03  0.000000000E+00  0.00000E+00  9.000E+00
       1    -1     0     0   501     0  0.000000000E+00  0.000000000E+00 -4.627597808E+02  4.627597808E+02  0.000000000E+00  0.00000E+00  9.000E+00
      25     1     1     2     0     0  4.536076568E+02 -1.980209267E+01  7.825795939E+02  9.133497960E+02  1.250000000E+02  0.00000E+00  9.000E+00
      25     1     1     2     0     0  2.695434982E+01 -1.008874907E+02  6.069023908E+02  6.283791329E+02  1.250000000E+02  0.00000E+00  9.000E+00
       1     1     1     2   502     0 -4.805620066E+02  1.206895833E+02 -2.278916355E+02  5.453809817E+02  1.348699152E-05  0.00000E+00  9.000E+00
#rwgt            2          12   1.2796228468085185E-003           7      117428           0
</event>
<event>
      5   9999  3.19816E-02  1.38925E+02 -1.00000E+00  1.17729E-01
      21    -1     0     0   502   501  0.000000000E+00  0.000000000E+00  4.854042739E+02  4.854042739E+02  0.000000000E+00  0.00000E+00  9.000E+00
      21    -1     0     0   501   511  0.000000000E+00  0.000000000E+00 -2.729727014E+02  2.729727014E+02  0.000000000E+00  0.00000E+00  9.000E+00
      25     1     1     2     0     0  1.136513524E+02 -1.287856153E+02  2.134613979E+02  3.011530060E+02  1.250000000E+02  0.00000E+00  9.000E+00
      25     1     1     2     0     0 -7.239909283E+01  2.614449976E+02  6.135609684E+01  3.049339043E+02  1.250000000E+02  0.00000E+00  9.000E+00
      21     1     1     2   502   511 -4.125225962E+01 -1.326593822E+02 -6.238592223E+01  1.522900650E+02  2.132480600E-06  0.00000E+00  9.000E+00
#rwgt            1           1   2.8369587964347992E-002           7      117447           0
</event>
<event>
      5   9999  3.19816E-02  8.13217E+01 -1.00000E+00  1.28006E-01
      21    -1     0     0   512   501  0.000000000E+00  0.000000000E+00  1.412132820E+03  1.412132820E+03  0.000000000E+00  0.00000E+00  9.000E+00
      21    -1     0     0   501   502  0.000000000E+00  0.000000000E+00 -1.616629123E+03  1.616629123E+03  0.000000000E+00  0.00000E+00  9.000E+00
      25     1     1     2     0     0 -1.400582437E+03 -5.082447690E+01 -4.566267706E+02  1.479306357E+03  1.250000000E+02  0.00000E+00  9.000E+00
      25     1     1     2     0     0  1.369576966E+03  1.260034082E+02  1.096180000E+02  1.385373246E+03  1.250000000E+02  0.00000E+00  9.000E+00
      21     1     1     2   512   502  3.100547037E+01 -7.517893128E+01  1.425124679E+02  1.640823404E+02  1.907348633E-06  0.00000E+00  9.000E+00
#rwgt            1           1   5.5736180835484345E-002           7      117509           0
</event>
<event>
      5   9999  3.19816E-02  5.70567E+01 -1.00000E+00  1.35881E-01
      21    -1     0     0   502   511  0.000000000E+00  0.000000000E+00  8.226852180E+02  8.226852180E+02  0.000000000E+00  0.00000E+00  9.000E+00
      21    -1     0     0   501   502  0.000000000E+00  0.000000000E+00 -2.251103450E+02  2.251103450E+02  0.000000000E+00  0.00000E+00  9.000E+00
      25     1     1     2     0     0 -5.392094906E+01 -6.728339464E+01  6.416202125E+02  6.593451456E+02  1.250000000E+02  0.00000E+00  9.000E+00
      25     1     1     2     0     0  9.964802730E+00  3.090582875E+01 -1.911376844E+02  2.306796089E+02  1.250000000E+02  0.00000E+00  9.000E+00
      21     1     1     2   501   511  4.395614633E+01  3.637756589E+01  1.470923450E+02  1.577708086E+02  3.303624740E-06  0.00000E+00  9.000E+00
#rwgt            1           1   2.2754896865433874E-002           7      117610           0
</event>
<event>
      5   9999  3.19816E-02  1.88050E+02 -1.00000E+00  1.12631E-01
      21    -1     0     0   502   501  0.000000000E+00  0.000000000E+00  2.625278961E+02  2.625278961E+02  0.000000000E+00  0.00000E+00  9.000E+00
       2    -1     0     0   501     0  0.000000000E+00  0.000000000E+00 -1.641141251E+03  1.641141251E+03  0.000000000E+00  0.00000E+00  9.000E+00
      25     1     1     2     0     0  2.503970998E+02  2.181772926E+01  9.463131365E+00  2.808723407E+02  1.250000000E+02  0.00000E+00  9.000E+00
      25     1     1     2     0     0 -2.150194935E+02 -2.065097604E+02 -1.262744306E+02  3.470589223E+02  1.250000000E+02  0.00000E+00  9.000E+00
       2     1     1     2   502     0 -3.537760630E+01  1.846920311E+02 -1.261802056E+03  1.275737884E+03  2.157918644E-05  0.00000E+00  9.000E+00
#rwgt            1           1   2.8090792760906237E-002           7      117690           0
</event>
<event>
      5   9999  3.19816E-02  4.51857E+01 -1.00000E+00  1.41632E-01
      21    -1     0     0   502   501  0.000000000E+00  0.000000000E+00  1.937111499E+03  1.937111499E+03  0.000000000E+00  0.00000E+00  9.000E+00
      21    -1     0     0   501   511  0.000000000E+00  0.000000000E+00 -3.173934403E+02  3.173934403E+02  0.000000000E+00  0.00000E+00  9.000E+00
      25     1     1     2     0     0  1.763381178E+02 -6.454479911E+01 -2.127630947E+02  3.100875640E+02  1.250000000E+02  0.00000E+00  9.000E+00
      25     1     1     2     0     0 -1.430511733E+02  9.510178171E+01  1.872225117E+03  1.884239867E+03  1.250000000E+02  0.00000E+00  9.000E+00
      21     1     1     2   502   511 -3.328694446E+01 -3.055698261E+01 -3.974396369E+01  6.017750832E+01  1.507891493E-06  0.00000E+00  9.000E+00
#rwgt            1           1   3.2788492918794994E-002           7      117748           0
</event>
<event>
      5   9999  3.19816E-02  1.67019E+01 -1.00000E+00  1.73097E-01
      21    -1     0     0   502   501  0.000000000E+00  0.000000000E+00  1.113623065E+02  1.113623065E+02  0.000000000E+00  0.00000E+00  9.000E+00
      21    -1     0     0   501   512  0.000000000E+00  0.000000000E+00 -1.108440739E+03  1.108440739E+03  0.000000000E+00  0.00000E+00  9.000E+00
      25     1     1     2     0     0  3.243383598E+01  2.561654009E+02 -7.215081486E+02  7.764481147E+02  1.250000000E+02  0.00000E+00  9.000E+00
      25     1     1     2     0     0 -2.372657373E+01 -2.704179884E+02 -1.854893500E+02  3.517387350E+02  1.250000000E+02  0.00000E+00  9.000E+00
      21     1     1     2   502   512 -8.707262253E+00  1.425258749E+01 -9.008093422E+01  9.161619603E+01  1.348699152E-06  0.00000E+00  9.000E+00
#rwgt            1           1   3.0379469091823836E-002           7      117894           0
</event>
<event>
      5   9999  3.19816E-02  1.21842E+01 -1.00000E+00  1.86335E-01
      21    -1     0     0   502   501  0.000000000E+00  0.000000000E+00  1.903954337E+02  1.903954337E+02  0.000000000E+00  0.00000E+00  9.000E+00
      21    -1     0     0   511   502  0.000000000E+00  0.000000000E+00 -5.316038031E+02  5.316038031E+02  0.000000000E+00  0.00000E+00  9.000E+00
      25     1     1     2     0     0  2.705492746E+01  5.773106828E+01 -1.375220540E+02  1.964743258E+02  1.250000000E+02  0.00000E+00  9.000E+00
      25     1     1     2     0     0 -2.625205491E+01 -4.557338302E+01  1.322172847E+02  1.894004066E+02  1.250000000E+02  0.00000E+00  9.000E+00
      21     1     1     2   511   501 -8.028725569E-01 -1.215768526E+01 -3.359036001E+02  3.361245044E+02  0.000000000E+00  0.00000E+00  9.000E+00
#rwgt            1           1   2.5467466938761410E-002           7      118057           0
</event>
<event>
      5   9999  3.19816E-02  1.14492E+02 -1.00000E+00  1.21241E-01
      21    -1     0     0   502   512  0.000000000E+00  0.000000000E+00  1.054697083E+03  1.054697083E+03  0.000000000E+00  0.00000E+00  9.000E+00
      21    -1     0     0   501   502  0.000000000E+00  0.000000000E+00 -2.057963443E+03  2.057963443E+03  0.000000000E+00  0.00000E+00  9.000E+00
      25     1     1     2     0     0  1.060173326E+03  8.413262584E+01 -1.423796806E+03  1.781535328E+03  1.250000000E+02  0.00000E+00  9.000E+00
      25     1     1     2     0     0 -1.127611046E+03 -1.766557294E+02  3.902477764E+02  1.212696271E+03  1.250000000E+02  0.00000E+00  9.000E+00
      21     1     1     2   501   512  6.743772048E+01  9.252310360E+01  3.028266936E+01  1.184289277E+02  2.567846683E-06  0.00000E+00  9.000E+00
#rwgt            1           1   4.0035549013184298E-002           7      118233           0
</event>
<event>
      5   9999  3.19816E-02  1.82531E+02 -1.00000E+00  1.13112E-01
      21    -1     0     0   502   501  0.000000000E+00  0.000000000E+00  8.017428102E+02  8.017428102E+02  0.000000000E+00  0.00000E+00  9.000E+00
      21    -1     0     0   511   502  0.000000000E+00  0.000000000E+00 -3.598766449E+02  3.598766449E+02  0.000000000E+00  0.00000E+00  9.000E+00
      25     1     1     2     0     0 -8.995075973E+00  3.252697455E+01  5.746383213E+02  5.890442392E+02  1.250000000E+02  0.00000E+00  9.000E+00
      25     1     1     2     0     0  5.043931243E+01 -2.102906079E+02  1.065755575E+02  2.715688006E+02  1.250000000E+02  0.00000E+00  9.000E+00
      21     1     1     2   511   501 -4.144423646E+01  1.777636333E+02 -2.393477135E+02  3.010064153E+02  2.697398305E-06  0.00000E+00  9.000E+00
#rwgt            1           1   2.3595741708447856E-002           7      118363           0
</event>
<event>
      5   9999  3.19816E-02  8.58020E+01 -1.00000E+00  1.26895E-01
      -2    -1     0     0     0   501  0.000000000E+00  0.000000000E+00  5.857777346E+02  5.857777346E+02  0.000000000E+00  0.00000E+00  9.000E+00
      21    -1     0     0   501   502  0.000000000E+00  0.000000000E+00 -2.796704746E+02  2.796704746E+02  0.000000000E+00  0.00000E+00  9.000E+00
      25     1     1     2     0     0 -1.151968769E+02 -2.911677139E+00  4.572506902E+02  4.878339799E+02  1.250000000E+02  0.00000E+00  9.000E+00
      25     1     1     2     0     0  8.384980813E+01  8.278244903E+01 -2.116760336E+02  2.726086341E+02  1.250000000E+02  0.00000E+00  9.000E+00
      -2     1     1     2     0   502  3.134706877E+01 -7.987077189E+01  6.053260347E+01  1.050055951E+02  1.168007728E-06  0.00000E+00  9.000E+00
#rwgt            1           1   2.9564819975760697E-002           7      118425           0
</event>
<event>
      5   9999  3.19816E-02  3.97657E+02 -1.00000E+00  1.01762E-01
      21    -1     0     0   511   501  0.000000000E+00  0.000000000E+00  4.184217771E+02  4.184217771E+02  0.000000000E+00  0.00000E+00  9.000E+00
      21    -1     0     0   501   502  0.000000000E+00  0.000000000E+00 -6.353826691E+02  6.353826691E+02  0.000000000E+00  0.00000E+00  9.000E+00
      25     1     1     2     0     0  2.862172001E+01 -3.528432724E+02 -1.047343809E+02  3.897587309E+02  1.250000000E+02  0.00000E+00  9.000E+00
      25     1     1     2     0     0 -2.238290272E+02  6.396598996E+00 -5.518921197E+01  2.623188881E+02  1.250000000E+02  0.00000E+00  9.000E+00
      21     1     1     2   511   502  1.952073072E+02  3.464466734E+02 -5.703729915E+01  4.017268273E+02  6.289914111E-06  0.00000E+00  9.000E+00
#rwgt            2          11   3.2711282870250963E-003           7      118577           0
</event>
<event>
      5   9999  3.19816E-02  7.00845E+01 -1.00000E+00  1.31194E-01
      21    -1     0     0   502   501  0.000000000E+00  0.000000000E+00  2.902385972E+02  2.902385972E+02  0.000000000E+00  0.00000E+00  9.000E+00
      21    -1     0     0   501   512  0.000000000E+00  0.000000000E+00 -4.028780060E+02  4.028780060E+02  0.000000000E+00  0.00000E+00  9.000E+00
      25     1     1     2     0     0  2.198958961E+02 -3.953811670E+00 -4.450745887E+01  2.568574539E+02  1.250000000E+02  0.00000E+00  9.000E+00
      25     1     1     2     0     0 -2.221129916E+02  7.400324532E+01  7.593739513E+01  2.760473679E+02  1.250000000E+02  0.00000E+00  9.000E+00
      21     1     1     2   502   512  2.217095503E+00 -7.004943365E+01 -1.440693451E+02  1.602117813E+02  0.000000000E+00  0.00000E+00  9.000E+00
#rwgt            1           1   2.9858949200759880E-002           7      118612           0
</event>
<event>
      5   9999  3.19816E-02  4.27453E+01 -1.00000E+00  1.43075E-01
      21    -1     0     0   502   501  0.000000000E+00  0.000000000E+00  9.183982023E+01  9.183982023E+01  0.000000000E+00  0.00000E+00  9.000E+00
      21    -1     0     0   511   502  0.000000000E+00  0.000000000E+00 -1.765957185E+03  1.765957185E+03  0.000000000E+00  0.00000E+00  9.000E+00
      25     1     1     2     0     0 -2.953187267E+02  2.251674325E+01 -9.788418535E+02  1.030279830E+03  1.250000000E+02  0.00000E+00  9.000E+00
      25     1     1     2     0     0  2.965472539E+02 -6.524442425E+01 -3.511925692E+02  4.807892775E+02  1.250000000E+02  0.00000E+00  9.000E+00
      21     1     1     2   511   501 -1.228527220E+00  4.272768100E+01 -3.440829418E+02  3.467278974E+02  3.814697266E-06  0.00000E+00  9.000E+00
#rwgt            1           1   2.8207953248059688E-002           7      118690           0
</event>
<event>
      5   9999  3.19816E-02  2.53035E+01 -1.00000E+00  1.58359E-01
      21    -1     0     0   502   501  0.000000000E+00  0.000000000E+00  8.715017066E+02  8.715017066E+02  0.000000000E+00  0.00000E+00  9.000E+00
      21    -1     0     0   501   512  0.000000000E+00  0.000000000E+00 -1.464005798E+02  1.464005798E+02  0.000000000E+00  0.00000E+00  9.000E+00
      25     1     1     2     0     0  3.604454603E+01  2.098268900E+02  7.263442435E+02  7.671554557E+02  1.250000000E+02  0.00000E+00  9.000E+00
      25     1     1     2     0     0 -3.133722446E+01 -1.849650730E+02 -1.768010761E+00  2.254378534E+02  1.250000000E+02  0.00000E+00  9.000E+00
      21     1     1     2   502   512 -4.707321570E+00 -2.486181704E+01  5.248939898E-01  2.530897740E+01  2.827296549E-07  0.00000E+00  9.000E+00
#rwgt            1           1   2.7769829099173728E-002           7      118788           0
</event>
<event>
      5   9999  3.19816E-02  2.87588E+01 -1.00000E+00  1.54325E-01
       2    -1     0     0   502     0  0.000000000E+00  0.000000000E+00  5.189880760E+02  5.189880760E+02  0.000000000E+00  0.00000E+00  9.000E+00
      21    -1     0     0   501   502  0.000000000E+00  0.000000000E+00 -2.788454373E+02  2.788454373E+02  0.000000000E+00  0.00000E+00  9.000E+00
      25     1     1     2     0     0  3.117233155E+02  5.717864918E+01  5.674643125E+01  3.453780259E+02  1.250000000E+02  0.00000E+00  9.000E+00
      25     1     1     2     0     0 -3.404632300E+02 -5.613570291E+01  1.256016804E+02  3.879010315E+02  1.250000000E+02  0.00000E+00  9.000E+00
       2     1     1     2   501     0  2.873991446E+01 -1.042946269E+00  5.779452704E+01  6.455445589E+01  1.168007728E-06  0.00000E+00  9.000E+00
#rwgt            1           1   2.8151095482097339E-002           7      118924           0
</event>
<event>
      5   9999  3.19816E-02  5.67153E+01 -1.00000E+00  1.36023E-01
      21    -1     0     0   502   501  0.000000000E+00  0.000000000E+00  1.611991244E+02  1.611991244E+02  0.000000000E+00  0.00000E+00  9.000E+00
      21    -1     0     0   511   502  0.000000000E+00  0.000000000E+00 -1.269174830E+03  1.269174830E+03  0.000000000E+00  0.00000E+00  9.000E+00
      25     1     1     2     0     0  1.151334399E+02  2.765044533E+02 -1.836481617E+02  3.729102693E+02  1.250000000E+02  0.00000E+00  9.000E+00
      25     1     1     2     0     0 -8.927884223E+01 -2.260250642E+02 -2.199339335E+02  3.507905022E+02  1.250000000E+02  0.00000E+00  9.000E+00
      21     1     1     2   511   501 -2.585459765E+01 -5.047938906E+01 -7.043936105E+02  7.066731830E+02  7.629394531E-06  0.00000E+00  9.000E+00
#rwgt            1           1   2.4678333824756076E-002           7      119123           0
</event>
<event>
      5   9999  3.19816E-02  1.20963E+01 -1.00000E+00  1.86664E-01
      21    -1     0     0   502   501  0.000000000E+00  0.000000000E+00  6.784070075E+01  6.784070075E+01  0.000000000E+00  0.00000E+00  9.000E+00
      21    -1     0     0   501   512  0.000000000E+00  0.000000000E+00 -1.497648017E+03  1.497648017E+03  0.000000000E+00  0.00000E+00  9.000E+00
      25     1     1     2     0     0 -9.698293329E+01  1.637839852E+02 -1.770326698E+02  2.884379471E+02  1.250000000E+02  0.00000E+00  9.000E+00
      25     1     1     2     0     0  8.908214243E+01 -1.729436251E+02 -1.113774425E+03  1.137525207E+03  1.250000000E+02  0.00000E+00  9.000E+00
      21     1     1     2   502   512  7.900790859E+00  9.159639877E+00 -1.390002216E+02  1.395255643E+02  0.000000000E+00  0.00000E+00  9.000E+00
#rwgt            1           1   3.3216972764357852E-002           7      119199           0
</event>
<event>
      5   9999  3.19816E-02  2.59496E+02 -1.00000E+00  1.07680E-01
      21    -1     0     0   502   501  0.000000000E+00  0.000000000E+00  6.363835458E+02  6.363835458E+02  0.000000000E+00  0.00000E+00  9.000E+00
      21    -1     0     0   501   511  0.000000000E+00  0.000000000E+00 -5.437384674E+02  5.437384674E+02  0.000000000E+00  0.00000E+00  9.000E+00
      25     1     1     2     0     0  3.890443962E+02  9.192532263E+01  4.319200503E+02  6.016525052E+02  1.250000000E+02  0.00000E+00  9.000E+00
      25     1     1     2     0     0 -1.314679565E+02 -6.041844557E+01 -6.766871023E+01  2.028257047E+02  1.250000000E+02  0.00000E+00  9.000E+00
      21     1     1     2   502   511 -2.575764398E+02 -3.150687706E+01 -2.716062616E+02  3.756438033E+02  5.394796609E-06  0.00000E+00  9.000E+00
#rwgt            2          11   3.5283292175531250E-003           7      119463           0
</event>
<event>
      5   9999  3.19816E-02  7.11971E+01 -1.00000E+00  1.30849E-01
      21    -1     0     0   502   501  0.000000000E+00  0.000000000E+00  6.898450770E+02  6.898450770E+02  0.000000000E+00  0.00000E+00  9.000E+00
       2    -1     0     0   501     0  0.000000000E+00  0.000000000E+00 -2.073019060E+03  2.073019060E+03  0.000000000E+00  0.00000E+00  9.000E+00
      25     1     1     2     0     0  3.005046582E+02 -8.601162373E+02 -3.708700112E+02  9.916010067E+02  1.250000000E+02  0.00000E+00  9.000E+00
      25     1     1     2     0     0 -3.716948963E+02  8.611026254E+02 -2.143870353E+02  9.701760811E+02  1.250000000E+02  0.00000E+00  9.000E+00
       2     1     1     2   502     0  7.119023805E+01 -9.863881137E-01 -7.979169362E+02  8.010870489E+02  1.078959322E-05  0.00000E+00  9.000E+00
#rwgt            2          13   2.4744062441345313E-003           7      119513           0
</event>
<event>
      5   9999  3.19816E-02  3.90915E+02 -1.00000E+00  1.01987E-01
      21    -1     0     0   502   501  0.000000000E+00  0.000000000E+00  1.704888613E+02  1.704888613E+02  0.000000000E+00  0.00000E+00  9.000E+00
       1    -1     0     0   501     0  0.000000000E+00  0.000000000E+00 -2.359922781E+03  2.359922781E+03  0.000000000E+00  0.00000E+00  9.000E+00
      25     1     1     2     0     0  2.332469184E+02  7.469606690E+01 -1.043249184E+02  2.940957598E+02  1.250000000E+02  0.00000E+00  9.000E+00
      25     1     1     2     0     0  7.949716805E+01 -3.092297459E+02 -5.181190593E+02  6.213012113E+02  1.250000000E+02  0.00000E+00  9.000E+00
       1     1     1     2   502     0 -3.127440864E+02  2.345336790E+02 -1.566989942E+03  1.615014671E+03  0.000000000E+00  0.00000E+00  9.000E+00
#rwgt            2          12   7.1263699298763569E-004           7      119547           0
</event>
<event>
      5   9999  3.19816E-02  1.79658E+01 -1.00000E+00  1.70307E-01
      21    -1     0     0   502   511  0.000000000E+00  0.000000000E+00  2.367956783E+02  2.367956783E+02  0.000000000E+00  0.00000E+00  9.000E+00
      21    -1     0     0   501   502  0.000000000E+00  0.000000000E+00 -3.415613917E+03  3.415613917E+03  0.000000000E+00  0.00000E+00  9.000E+00
      25     1     1     2     0     0 -4.464972739E+02  2.022790785E+02 -8.628710737E+01  5.131735633E+02  1.250000000E+02  0.00000E+00  9.000E+00
      25     1     1     2     0     0  4.289882258E+02 -2.063045476E+02 -3.074993410E+03  3.114129402E+03  1.250000000E+02  0.00000E+00  9.000E+00
      21     1     1     2   501   511  1.750904802E+01  4.025469052E+00 -1.753772098E+01  2.510662902E+01  5.331201500E-07  0.00000E+00  9.000E+00
#rwgt            1           1   6.0102362683826134E-002           7      119566           0
</event>
<event>
      5   9999  3.19816E-02  1.07051E+02 -1.00000E+00  1.22511E-01
      21    -1     0     0   502   501  0.000000000E+00  0.000000000E+00  2.118732771E+02  2.118732771E+02  0.000000000E+00  0.00000E+00  9.000E+00
      21    -1     0     0   512   502  0.000000000E+00  0.000000000E+00 -1.357698123E+03  1.357698123E+03  0.000000000E+00  0.00000E+00  9.000E+00
      25     1     1     2     0     0  4.743895867E+02  1.795931231E+01 -4.087909130E+02  6.388294196E+02  1.250000000E+02  0.00000E+00  9.000E+00
      25     1     1     2     0     0 -4.202391297E+02 -1.103045265E+02 -5.222015962E+02  6.907152248E+02  1.250000000E+02  0.00000E+00  9.000E+00
      21     1     1     2   512   501 -5.415045700E+01  9.234521421E+01 -2.148323368E+02  2.400267558E+02  4.672030912E-06  0.00000E+00  9.000E+00
#rwgt            1           1   2.9829962268547210E-002           7      119793           0
</event>
<event>
      5   9999  3.19816E-02  1.22019E+02 -1.00000E+00  1.20061E-01
      21    -1     0     0   502   511  0.000000000E+00  0.000000000E+00  1.209772389E+03  1.209772389E+03  0.000000000E+00  0.00000E+00  9.000E+00
      21    -1     0     0   501   502  0.000000000E+00  0.000000000E+00 -5.698277144E+02  5.698277144E+02  0.000000000E+00  0.00000E+00  9.000E+00
      25     1     1     2     0     0 -6.933748976E+02 -1.166647812E+01  3.139889501E+02  7.714395091E+02  1.250000000E+02  0.00000E+00  9.000E+00
      25     1     1     2     0     0  6.713274250E+02 -1.083443341E+02  3.458464006E+01  6.922716979E+02  1.250000000E+02  0.00000E+00  9.000E+00
      21     1     1     2   501   511  2.204747258E+01  1.200108122E+02  2.913710842E+02  3.158888963E+02  3.814697266E-06  0.00000E+00  9.000E+00
#rwgt            1           1   3.1807517133093391E-002           7      119888           0
</event>
<event>
      5   9999  3.19816E-02  2.41579E+01 -1.00000E+00  1.59874E-01
      21    -1     0     0   502   501  0.000000000E+00  0.000000000E+00  4.267819385E+01  4.267819385E+01  0.000000000E+00  0.00000E+00  9.000E+00
      21    -1     0     0   501   512  0.000000000E+00  0.000000000E+00 -9.597328843E+02  9.597328843E+02  0.000000000E+00  0.00000E+00  9.000E+00
      25     1     1     2     0     0 -1.058790430E+02 -1.004718465E+01 -1.863963634E+02  2.483544281E+02  1.250000000E+02  0.00000E+00  9.000E+00
      25     1     1     2     0     0  1.024692867E+02 -1.386886218E+01 -6.372062294E+02  6.575325686E+02  1.250000000E+02  0.00000E+00  9.000E+00
      21     1     1     2   502   512  3.409756290E+00  2.391604683E+01 -9.345209768E+01  9.652408142E+01  1.348699152E-06  0.00000E+00  9.000E+00
#rwgt            1           1   2.5139034030357051E-002           7      120021           0
</event>
<event>
      5   9999  3.19816E-02  1.39472E+02 -1.00000E+00  1.17660E-01
       1    -1     0     0   502     0  0.000000000E+00  0.000000000E+00  1.468475053E+03  1.468475053E+03  0.000000000E+00  0.00000E+00  9.000E+00
      21    -1     0     0   501   502  0.000000000E+00  0.000000000E+00 -2.659486464E+02  2.659486464E+02  0.000000000E+00  0.00000E+00  9.000E+00
      25     1     1     2     0     0 -4.240171070E+01 -3.572940190E+01  1.297424573E+02  1.885009296E+02  1.250000000E+02  0.00000E+00  9.000E+00
      25     1     1     2     0     0 -8.550690098E+01  9.133272764E+01 -1.991623360E+02  2.663526484E+02  1.250000000E+02  0.00000E+00  9.000E+00
       1     1     1     2   501     0  1.279086117E+02 -5.560332575E+01  1.271946286E+03  1.279570122E+03  1.525878906E-05  0.00000E+00  9.000E+00
#rwgt            1           1   2.7344095052365371E-002           7      120139           0
</event>
<event>
      5   9999  3.19816E-02  2.07976E+01 -1.00000E+00  1.64980E-01
      21    -1     0     0   511   501  0.000000000E+00  0.000000000E+00  5.727452227E+02  5.727452227E+02  0.000000000E+00  0.00000E+00  9.000E+00
      21    -1     0     0   501   502  0.000000000E+00  0.000000000E+00 -2.702471698E+02  2.702471698E+02  0.000000000E+00  0.00000E+00  9.000E+00
      25     1     1     2     0     0  6.055915933E+01  2.029736229E+02 -5.804274094E+01  2.527046956E+02  1.250000000E+02  0.00000E+00  9.000E+00
      25     1     1     2     0     0 -6.279056351E+01 -1.822960999E+02  6.358510832E-01  2.297823475E+02  1.250000000E+02  0.00000E+00  9.000E+00
      21     1     1     2   511   502  2.231404176E+00 -2.067752304E+01  3.599049427E+02  3.605053494E+02  5.394796609E-06  0.00000E+00  9.000E+00
#rwgt            1           1   2.7664863264808211E-002           7      120186           0
</event>
<event>
      5   9999  3.19816E-02  7.96444E+01 -1.00000E+00  1.28443E-01
      21    -1     0     0   512   501  0.000000000E+00  0.000000000E+00  2.181779662E+03  2.181779662E+03  0.000000000E+00  0.00000E+00  9.000E+00
      21    -1     0     0   501   502  0.000000000E+00  0.000000000E+00 -1.709833213E+02  1.709833213E+02  0.000000000E+00  0.00000E+00  9.000E+00
      25     1     1     2     0     0 -1.788060407E+02 -2.738556684E+02  1.140641305E+02  3.682446920E+02  1.250000000E+02  0.00000E+00  9.000E+00
      25     1     1     2     0     0  2.560832726E+02  2.931288871E+02  9.472661407E+02  1.031717659E+03  1.250000000E+02  0.00000E+00  9.000E+00
      21     1     1     2   512   502 -7.727723185E+01 -1.927321875E+01  9.494660698E+02  9.528006324E+02  1.078959322E-05  0.00000E+00  9.000E+00
#rwgt            1           1   2.9158710120688259E-002           7      120311           0
</event>
<event>
      5   9999  3.19816E-02  1.61348E+02 -1.00000E+00  1.15152E-01
      21    -1     0     0   502   501  0.000000000E+00  0.000000000E+00  7.460210155E+02  7.460210155E+02  0.000000000E+00  0.00000E+00  9.000E+00
       2    -1     0     0   501     0  0.000000000E+00  0.000000000E+00 -1.339396429E+03  1.339396429E+03  0.000000000E+00  0.00000E+00  9.000E+00
      25     1     1     2     0     0  8.930294927E+01  1.154937331E+02 -1.119300782E+03  1.135681760E+03  1.250000000E+02  0.00000E+00  9.000E+00
      25     1     1     2     0     0 -1.385453259E+02 -2.691435965E+02  6.620566314E+02  7.386318880E+02  1.250000000E+02  0.00000E+00  9.000E+00
       2     1     1     2   502     0  4.924237663E+01  1.536498634E+02 -1.361312624E+02  2.111037962E+02  1.907348633E-06  0.00000E+00  9.000E+00
#rwgt            2          13   6.3548522472126219E-004           7      120541           0
</event>
<event>
      5   9999  3.19816E-02  1.59426E+02 -1.00000E+00  1.15354E-01
      21    -1     0     0   502   501  0.000000000E+00  0.000000000E+00  8.202408716E+02  8.202408716E+02  0.000000000E+00  0.00000E+00  9.000E+00
      21    -1     0     0   511   502  0.000000000E+00  0.000000000E+00 -1.022119346E+02  1.022119346E+02  0.000000000E+00  0.00000E+00  9.000E+00
      25     1     1     2     0     0 -1.226014870E+01 -7.323717422E+01  5.138581694E+01  1.542060217E+02  1.250000000E+02  0.00000E+00  9.000E+00
      25     1     1     2     0     0 -6.184864975E+01 -6.791689452E+01  5.479634732E+02  5.694970834E+02  1.250000000E+02  0.00000E+00  9.000E+00
      21     1     1     2   511   501  7.410879845E+01  1.411540687E+02  1.186796468E+02  1.987497011E+02  3.015782986E-06  0.00000E+00  9.000E+00
#rwgt            1           1   2.8236089013692414E-002           7      120560           0
</event>
<event>
      5   9999  3.19816E-02  2.40452E+02 -1.00000E+00  1.08811E-01
      21    -1     0     0   502   512  0.000000000E+00  0.000000000E+00  6.437244398E+02  6.437244398E+02  0.000000000E+00  0.00000E+00  9.000E+00
      21    -1     0     0   501   502  0.000000000E+00  0.000000000E+00 -1.558708350E+03  1.558708350E+03  0.000000000E+00  0.00000E+00  9.000E+00
      25     1     1     2     0     0 -2.622173529E+02 -2.317011580E+02 -6.701846788E+02  7.663001177E+02  1.250000000E+02  0.00000E+00  9.000E+00
      25     1     1     2     0     0  2.315973347E+01  2.575542243E+02 -7.898223486E+02  8.404254244E+02  1.250000000E+02  0.00000E+00  9.000E+00
      21     1     1     2   501   512  2.390576194E+02 -2.585306633E+01  5.450231172E+02  5.957072475E+02  0.000000000E+00  0.00000E+00  9.000E+00
#rwgt            1           1   3.1213607818214084E-002           7      120630           0
</event>
<event>
      5   9999  3.39232E-02  2.87290E+01 -1.00000E+00  1.54357E-01
      21    -1     0     0   502   501  0.000000000E+00  0.000000000E+00  2.032085254E+03  2.032085254E+03  0.000000000E+00  0.00000E+00  9.000E+00
      21    -1     0     0   501   511  0.000000000E+00  0.000000000E+00 -1.252725046E+02  1.252725046E+02  0.000000000E+00  0.00000E+00  9.000E+00
      25     1     1     2     0     0  2.480284196E+02  8.392473259E+01  6.616996169E+02  7.225184017E+02  1.250000000E+02  0.00000E+00  9.000E+00
      25     1     1     2     0     0 -2.259255340E+02 -6.557211990E+01  1.324182120E+03  1.350712900E+03  1.250000000E+02  0.00000E+00  9.000E+00
      21     1     1     2   502   511 -2.210288562E+01 -1.835261269E+01 -7.906898793E+01  8.412645718E+01  3.303624740E-06  0.00000E+00  9.000E+00
#rwgt            1           1   9.8217552035549174E-002           7      120666           0
</event>
<event>
      5   9999  3.19816E-02  5.78344E+02 -1.00000E+00  9.70887E-02
      21    -1     0     0   512   501  0.000000000E+00  0.000000000E+00  1.365441993E+03  1.365441993E+03  0.000000000E+00  0.00000E+00  9.000E+00
      21    -1     0     0   501   502  0.000000000E+00  0.000000000E+00 -8.672986656E+02  8.672986656E+02  0.000000000E+00  0.00000E+00  9.000E+00
      25     1     1     2     0     0 -1.447414581E+02 -9.112696896E+02 -9.213377100E+01  9.356688350E+02  1.250000000E+02  0.00000E+00  9.000E+00
      25     1     1     2     0     0  4.014296138E+02  3.930100436E+02  3.228136855E+02  6.598759768E+02  1.250000000E+02  0.00000E+00  9.000E+00
      21     1     1     2   512   502 -2.566881557E+02  5.182596461E+02  2.674634129E+02  6.371958468E+02  8.529922400E-06  0.00000E+00  9.000E+00
#rwgt            2          11   2.1561118127526530E-003           7      120874           0
</event>
<event>
      5   9999  3.19816E-02  2.16405E+01 -1.00000E+00  1.63593E-01
      21    -1     0     0   502   511  0.000000000E+00  0.000000000E+00  8.141729006E+02  8.141729006E+02  0.000000000E+00  0.00000E+00  9.000E+00
      21    -1     0     0   501   502  0.000000000E+00  0.000000000E+00 -2.843134086E+02  2.843134086E+02  0.000000000E+00  0.00000E+00  9.000E+00
      25     1     1     2     0     0  2.907219340E+02  2.307823121E+02  5.270854454E+02  6.566763169E+02  1.250000000E+02  0.00000E+00  9.000E+00
      25     1     1     2     0     0 -2.790131662E+02 -2.489815940E+02 -3.752062644E+01  3.960719360E+02  1.250000000E+02  0.00000E+00  9.000E+00
      21     1     1     2   501   511 -1.170876779E+01  1.819928196E+01  4.029467309E+01  4.573805622E+01  8.259061849E-07  0.00000E+00  9.000E+00
#rwgt            1           1   3.0421007410153057E-002           7      120894           0
</event>
<event>
      5   9999  3.19816E-02  4.53212E+01 -1.00000E+00  1.41555E-01
      21    -1     0     0   502   501  0.000000000E+00  0.000000000E+00  3.548871298E+02  3.548871298E+02  0.000000000E+00  0.00000E+00  9.000E+00
      21    -1     0     0   501   512  0.000000000E+00  0.000000000E+00 -7.059122048E+02  7.059122048E+02  0.000000000E+00  0.00000E+00  9.000E+00
      25     1     1     2     0     0  3.883852495E+02 -2.054702448E+02  2.937548968E+01  4.577652705E+02  1.250000000E+02  0.00000E+00  9.000E+00
      25     1     1     2     0     0 -3.493276350E+02  1.824808627E+02 -3.003424686E+02  5.110378267E+02  1.250000000E+02  0.00000E+00  9.000E+00
      21     1     1     2   502   512 -3.905761449E+01  2.298938211E+01 -8.005809605E+01  9.199623733E+01  9.536743164E-07  0.00000E+00  9.000E+00
#rwgt            2          11   3.0040822097886005E-003           7      121340           0
</event>
<event>
      5   9999  3.19816E-02  2.88817E+01 -1.00000E+00  1.54195E-01
      21    -1     0     0   502   501  0.000000000E+00  0.000000000E+00  1.016333646E+03  1.016333646E+03  0.000000000E+00  0.00000E+00  9.000E+00
      21    -1     0     0   501   511  0.000000000E+00  0.000000000E+00 -3.176097230E+02  3.176097230E+02  0.000000000E+00  0.00000E+00  9.000E+00
      25     1     1     2     0     0 -1.863174010E+01  1.070017371E+02  8.230852170E+02  8.395777438E+02  1.250000000E+02  0.00000E+00  9.000E+00
      25     1     1     2     0     0  4.465628629E+00 -8.183284405E+01  1.539414620E+02  2.145682408E+02  1.250000000E+02  0.00000E+00  9.000E+00
      21     1     1     2   502   511  1.416611147E+01 -2.516889304E+01 -2.783027564E+02  2.797973841E+02  0.000000000E+00  0.00000E+00  9.000E+00
#rwgt            1           1   2.7465145225855844E-002           7      121360           0
</event>
<event>
      5   9999  3.19816E-02  3.73408E+01 -1.00000E+00  1.46718E-01
      21    -1     0     0   502   512  0.000000000E+00  0.000000000E+00  8.840736773E+02  8.840736773E+02  0.000000000E+00  0.00000E+00  9.000E+00
      21    -1     0     0   501   502  0.000000000E+00  0.000000000E+00 -7.581887776E+01  7.581887776E+01  0.000000000E+00  0.00000E+00  9.000E+00
      25     1     1     2     0     0  3.948247171E+01 -1.306850267E+02  4.162501420E+02  4.555509000E+02  1.250000000E+02  0.00000E+00  9.000E+00
      25     1     1     2     0     0 -7.618615611E+01  1.238167036E+02  1.123840272E+02  2.222387816E+02  1.250000000E+02  0.00000E+00  9.000E+00
      21     1     1     2   501   512  3.670368440E+01  6.868323105E+00  2.796206303E+02  2.821028735E+02  3.814697266E-06  0.00000E+00  9.000E+00
#rwgt            1           1   3.1261811091410234E-002           7      121481           0
</event>
<event>
      5   9999  3.19816E-02  3.36057E+02 -1.00000E+00  1.04015E-01
      21    -1     0     0   502   501  0.000000000E+00  0.000000000E+00  9.156515560E+02  9.156515560E+02  0.000000000E+00  0.00000E+00  9.000E+00
      -1    -1     0     0     0   502  0.000000000E+00  0.000000000E+00 -1.655864667E+03  1.655864667E+03  0.000000000E+00  0.00000E+00  9.000E+00
      25     1     1     2     0     0 -5.113693716E+02 -1.012865961E+02 -1.054802502E+02  5.463594897E+02  1.250000000E+02  0.00000E+00  9.000E+00
      25     1     1     2     0     0  4.166374849E+02 -2.211418396E+02  5.839461649E+02  7.609918729E+02  1.250000000E+02  0.00000E+00  9.000E+00
      -1     1     1     2     0   501  9.473188671E+01  3.224284357E+02 -1.218679025E+03  1.264164860E+03  0.000000000E+00  0.00000E+00  9.000E+00
#rwgt            1           1   2.8871014964395401E-002           7      121595           0
</event>
<event>
      5   9999  3.19816E-02  1.00085E+02 -1.00000E+00  1.23811E-01
      21    -1     0     0   502   511  0.000000000E+00  0.000000000E+00  3.098061845E+02  3.098061845E+02  0.000000000E+00  0.00000E+00  9.000E+00
      21    -1     0     0   501   502  0.000000000E+00  0.000000000E+00 -2.030048768E+02  2.030048768E+02  0.000000000E+00  0.00000E+00  9.000E+00
      25     1     1     2     0     0 -2.755056933E+01 -4.303892145E+01  7.650244466E+01  1.552063358E+02  1.250000000E+02  0.00000E+00  9.000E+00
      25     1     1     2     0     0  1.895534870E+01  1.427543702E+02 -8.165276370E+01  2.074374346E+02  1.250000000E+02  0.00000E+00  9.000E+00
      21     1     1     2   501   511  8.595220622E+00 -9.971544874E+01  1.119516267E+02  1.501672909E+02  2.697398305E-06  0.00000E+00  9.000E+00
#rwgt            1           1   2.8420201159262439E-002           7      121643           0
</event>
<event>
      5   9999  3.19816E-02  2.36638E+01 -1.00000E+00  1.60559E-01
      21    -1     0     0   502   501  0.000000000E+00  0.000000000E+00  1.554385088E+02  1.554385088E+02  0.000000000E+00  0.00000E+00  9.000E+00
      21    -1     0     0   501   512  0.000000000E+00  0.000000000E+00 -1.340645197E+03  1.340645197E+03  0.000000000E+00  0.00000E+00  9.000E+00
      25     1     1     2     0     0  7.035609971E+01  2.161777063E+02 -1.028361315E+03  1.060582282E+03  1.250000000E+02  0.00000E+00  9.000E+00
      25     1     1     2     0     0 -9.313658849E+01 -2.225827803E+02  5.148224518E+00  2.717885620E+02  1.250000000E+02  0.00000E+00  9.000E+00
      21     1     1     2   502   512  2.278048878E+01  6.405073994E+00 -1.619935978E+02  1.637128626E+02  0.000000000E+00  0.00000E+00  9.000E+00
#rwgt            2          11   1.4083257813697436E-003           7      121722           0
</event>
<event>
      5   9999  3.19816E-02  1.54793E+02 -1.00000E+00  1.15855E-01
      21    -1     0     0   502   501  0.000000000E+00  0.000000000E+00  2.482569992E+03  2.482569992E+03  0.000000000E+00  0.00000E+00  9.000E+00
      21    -1     0     0   501   511  0.000000000E+00  0.000000000E+00 -5.228204812E+02  5.228204812E+02  0.000000000E+00  0.00000E+00  9.000E+00
      25     1     1     2     0     0 -3.372496431E+02  5.360468374E+02  1.338756408E+03  1.486262848E+03  1.250000000E+02  0.00000E+00  9.000E+00
      25     1     1     2     0     0  2.457187097E+02 -6.608781743E+02  9.298690786E+02  1.173635015E+03  1.250000000E+02  0.00000E+00  9.000E+00
      21     1     1     2   502   511  9.153093333E+01  1.248313369E+02 -3.088759763E+02  3.454926094E+02  8.529922400E-06  0.00000E+00  9.000E+00
#rwgt            1           1   3.2920385942655887E-002           7      121757           0
</event>
<event>
      5   9999  3.19816E-02  4.42872E+01 -1.00000E+00  1.42150E-01
      21    -1     0     0   512   501  0.000000000E+00  0.000000000E+00  9.858425385E+02  9.858425385E+02  0.000000000E+00  0.00000E+00  9.000E+00
      21    -1     0     0   501   502  0.000000000E+00  0.000000000E+00 -1.018710160E+03  1.018710160E+03  0.000000000E+00  0.00000E+00  9.000E+00
      25     1     1     2     0     0  8.884585795E+01  1.516908504E+02 -9.417087778E+02  9.660973671E+02  1.250000000E+02  0.00000E+00  9.000E+00
      25     1     1     2     0     0 -8.907799053E+01 -1.074042328E+02  7.239838724E+01  2.008409423E+02  1.250000000E+02  0.00000E+00  9.000E+00
      21     1     1     2   512   502  2.321325784E-01 -4.428661763E+01  8.364427693E+02  8.376143890E+02  0.000000000E+00  0.00000E+00  9.000E+00
#rwgt            1           1   2.8978678450342497E-002           7      121816           0
</event>
<event>
      5   9999  3.19816E-02  1.00029E+02 -1.00000E+00  1.23822E-01
       2    -1     0     0   502     0  0.000000000E+00  0.000000000E+00  1.065451690E+03  1.065451690E+03  0.000000000E+00  0.00000E+00  9.000E+00
      21    -1     0     0   501   502  0.000000000E+00  0.000000000E+00 -1.222234634E+03  1.222234634E+03  0.000000000E+00  0.00000E+00  9.000E+00
      25     1     1     2     0     0 -4.074064160E+02 -6.169110947E+01 -9.961650619E+02  1.085244494E+03  1.250000000E+02  0.00000E+00  9.000E+00
      25     1     1     2     0     0  5.074173953E+02  6.357510205E+01  2.126327773E+02  5.677604289E+02  1.250000000E+02  0.00000E+00  9.000E+00
       2     1     1     2   501     0 -1.000109793E+02 -1.883992582E+00  6.267493408E+02  6.346814017E+02  0.000000000E+00  0.00000E+00  9.000E+00
#rwgt            1           1   2.6866234814080354E-002           7      121917           0
</event>
<event>
      5   9999  3.19816E-02  3.67518E+01 -1.00000E+00  1.47159E-01
      21    -1     0     0   502   501  0.000000000E+00  0.000000000E+00  2.200512839E+02  2.200512839E+02  0.000000000E+00  0.00000E+00  9.000E+00
      21    -1     0     0   501   511  0.000000000E+00  0.000000000E+00 -3.013433480E+02  3.013433480E+02  0.000000000E+00  0.00000E+00  9.000E+00
      25     1     1     2     0     0 -1.934641534E+02  5.988173033E+01 -8.127526752E+01  2.514853264E+02  1.250000000E+02  0.00000E+00  9.000E+00
      25     1     1     2     0     0  1.632314347E+02 -3.898496308E+01  4.268680359E+01  2.135684710E+02  1.250000000E+02  0.00000E+00  9.000E+00
      21     1     1     2   502   511  3.023271871E+01 -2.089676725E+01 -4.270360020E+01  5.634083450E+01  0.000000000E+00  0.00000E+00  9.000E+00
#rwgt            1           1   2.6880718595921629E-002           7      122037           0
</event>
<event>
      5   9999  3.19816E-02  4.14432E+01 -1.00000E+00  1.43892E-01
      21    -1     0     0   502   501  0.000000000E+00  0.000000000E+00  1.027486071E+03  1.027486071E+03  0.000000000E+00  0.00000E+00  9.000E+00
      -3    -1     0     0     0   502  0.000000000E+00  0.000000000E+00 -4.962850549E+02  4.962850549E+02  0.000000000E+00  0.00000E+00  9.000E+00
      25     1     1     2     0     0  1.165805744E+02  1.577666210E+02  1.015911875E+02  2.538249523E+02  1.250000000E+02  0.00000E+00  9.000E+00
      25     1     1     2     0     0 -1.328899068E+02 -1.196674353E+02  8.346981998E+02  8.627433611E+02  1.250000000E+02  0.00000E+00  9.000E+00
      -3     1     1     2     0   501  1.630933236E+01 -3.809918578E+01 -4.050883710E+02  4.072028126E+02  5.394796609E-06  0.00000E+00  9.000E+00
#rwgt            1           1   2.8577077486439697E-002           7      122101           0
</event>
<event>
      5   9999  3.19816E-02  7.72855E+01 -1.00000E+00  1.29079E-01
      21    -1     0     0   511   501  0.000000000E+00  0.000000000E+00  2.422747404E+03  2.422747404E+03  0.000000000E+00  0.00000E+00  9.000E+00
      21    -1     0     0   501   502  0.000000000E+00  0.000000000E+00 -1.074199898E+02  1.074199898E+02  0.000000000E+00  0.00000E+00  9.000E+00
      25     1     1     2     0     0 -1.817990712E+02 -4.572232844E+02  1.173292824E+03  1.278415067E+03  1.250000000E+02  0.00000E+00  9.000E+00
      25     1     1     2     0     0  1.680366715E+02  3.811730005E+02  9.544374994E+02  1.048858961E+03  1.250000000E+02  0.00000E+00  9.000E+00
      21     1     1     2   511   502  1.376239978E+01  7.605028390E+01  1.875970916E+02  2.028933664E+02  3.814697266E-06  0.00000E+00  9.000E+00
#rwgt            1           1   2.6697047685941666E-002           7      122179           0
</event>
<event>
      5   9999  3.19816E-02  4.19588E+01 -1.00000E+00  1.43564E-01
      21    -1     0     0   502   501  0.000000000E+00  0.000000000E+00  1.865944179E+03  1.865944179E+03  0.000000000E+00  0.00000E+00  9.000E+00
      21    -1     0     0   512   502  0.000000000E+00  0.000000000E+00 -6.819167862E+02  6.819167862E+02  0.000000000E+00  0.00000E+00  9.000E+00
      25     1     1     2     0     0 -7.463619375E+02 -2.938901188E+02  1.463637127E+03  1.673704330E+03  1.250000000E+02  0.00000E+00  9.000E+00
      25     1     1     2     0     0  7.097468598E+02  3.143809609E+02 -2.642618117E+02  8.294789320E+02  1.250000000E+02  0.00000E+00  9.000E+00
      21     1     1     2   512   501  3.661507770E+01 -2.049084207E+01 -1.534792206E+01  4.467770401E+01  6.529361695E-07  0.00000E+00  9.000E+00
#rwgt            1           1   2.9202059119248044E-002           7      122275           0
</event>
<event>
      5   9999  3.19816E-02  5.01575E+01 -1.00000E+00  1.38998E-01
      21    -1     0     0   502   501  0.000000000E+00  0.000000000E+00  4.621010084E+02  4.621010084E+02  0.000000000E+00  0.00000E+00  9.000E+00
      21    -1     0     0   501   511  0.000000000E+00  0.000000000E+00 -1.265085049E+02  1.265085049E+02  0.000000000E+00  0.00000E+00  9.000E+00
      25     1     1     2     0     0 -3.284448097E+01 -9.569285311E+01  3.228205708E+02  3.606577367E+02  1.250000000E+02  0.00000E+00  9.000E+00
      25     1     1     2     0     0  8.275610065E+01  9.073247706E+01 -3.361610905E+00  1.752633875E+02  1.250000000E+02  0.00000E+00  9.000E+00
      21     1     1     2   502   511 -4.991161968E+01  4.960376059E+00  1.613354361E+01  5.268838903E+01  5.331201500E-07  0.00000E+00  9.000E+00
#rwgt            1           1   2.4780553125288995E-002           7      122423           0
</event>
<event>
      5   9999  3.23857E-02  2.18795E+01 -1.00000E+00  1.63214E-01
      21    -1     0     0   512   501  0.000000000E+00  0.000000000E+00  5.989883611E+01  5.989883611E+01  0.000000000E+00  0.00000E+00  9.000E+00
      21    -1     0     0   501   502  0.000000000E+00  0.000000000E+00 -2.601495392E+03  2.601495392E+03  0.000000000E+00  0.00000E+00  9.000E+00
      25     1     1     2     0     0 -1.026779201E+02  3.220916063E+02 -1.221305867E+03  1.273380846E+03  1.250000000E+02  0.00000E+00  9.000E+00
      25     1     1     2     0     0  1.213714792E+02 -3.107222742E+02 -1.318818546E+03  1.366084450E+03  1.250000000E+02  0.00000E+00  9.000E+00
      21     1     1     2   512   502 -1.869355911E+01 -1.136933215E+01 -1.472143197E+00  2.192893229E+01  8.681125440E-07  0.00000E+00  9.000E+00
#rwgt            1           1   6.7815163142545570E-002           7      122516           0
</event>
<event>
      5   9999  3.19816E-02  4.16352E+01 -1.00000E+00  1.43769E-01
      21    -1     0     0   511   501  0.000000000E+00  0.000000000E+00  9.093878412E+01  9.093878412E+01  0.000000000E+00  0.00000E+00  9.000E+00
      21    -1     0     0   501   502  0.000000000E+00  0.000000000E+00 -5.658585800E+02  5.658585800E+02  0.000000000E+00  0.00000E+00  9.000E+00
      25     1     1     2     0     0 -1.338200938E+02  7.421853406E+00 -3.022920641E+02  3.535086893E+02  1.250000000E+02  0.00000E+00  9.000E+00
      25     1     1     2     0     0  1.012762613E+02  1.854706680E+01 -1.970197300E+02  2.550346032E+02  1.250000000E+02  0.00000E+00  9.000E+00
      21     1     1     2   511   502  3.254383248E+01 -2.596892021E+01  2.439199826E+01  4.825407163E+01  1.168007728E-06  0.00000E+00  9.000E+00
#rwgt            1           1   2.4025659130445898E-002           7      122758           0
</event>
<event>
      5   9999  3.19816E-02  3.02843E+01 -1.00000E+00  1.52756E-01
      21    -1     0     0   502   512  0.000000000E+00  0.000000000E+00  2.550305284E+02  2.550305284E+02  0.000000000E+00  0.00000E+00  9.000E+00
      21    -1     0     0   501   502  0.000000000E+00  0.000000000E+00 -6.417407799E+02  6.417407799E+02  0.000000000E+00  0.00000E+00  9.000E+00
      25     1     1     2     0     0 -2.591770146E+02  2.588824821E+02 -2.885665007E+02  4.827923878E+02  1.250000000E+02  0.00000E+00  9.000E+00
      25     1     1     2     0     0  2.645440968E+02 -2.290775620E+02 -8.649672752E+01  3.815321643E+02  1.250000000E+02  0.00000E+00  9.000E+00
      21     1     1     2   501   512 -5.367082189E+00 -2.980492012E+01 -1.164702330E+01  3.244675617E+01  6.078504936E-07  0.00000E+00  9.000E+00
#rwgt            1           1   1.9619338166657511E-002           7      122881           0
</event>
<event>
      5   9999  3.19816E-02  1.75561E+02 -1.00000E+00  1.13748E-01
      21    -1     0     0   511   501  0.000000000E+00  0.000000000E+00  1.171517361E+03  1.171517361E+03  0.000000000E+00  0.00000E+00  9.000E+00
      21    -1     0     0   501   502  0.000000000E+00  0.000000000E+00 -4.405720964E+02  4.405720964E+02  0.000000000E+00  0.00000E+00  9.000E+00
      25     1     1     2     0     0 -2.089670320E+02  3.548491184E+01  7.046375656E+02  7.463682056E+02  1.250000000E+02  0.00000E+00  9.000E+00
      25     1     1     2     0     0  3.837994118E+02 -1.950152659E+01 -2.944861639E+02  5.000293979E+02  1.250000000E+02  0.00000E+00  9.000E+00
      21     1     1     2   511   502 -1.748323799E+02 -1.598338525E+01  3.207938630E+02  3.656918541E+02  9.344061824E-06  0.00000E+00  9.000E+00
#rwgt            1           1   2.8369283359653514E-002           7      123052           0
</event>
<event>
      5   9999  3.19816E-02  1.00136E+02 -1.00000E+00  1.23801E-01
      21    -1     0     0   502   501  0.000000000E+00  0.000000000E+00  1.343846294E+02  1.343846294E+02  0.000000000E+00  0.00000E+00  9.000E+00
      21    -1     0     0   501   512  0.000000000E+00  0.000000000E+00 -8.447602169E+02  8.447602169E+02  0.000000000E+00  0.00000E+00  9.000E+00
      25     1     1     2     0     0 -1.367491493E+00  6.296417177E+01 -3.184874895E+01  1.435468557E+02  1.250000000E+02  0.00000E+00  9.000E+00
      25     1     1     2     0     0 -9.815160567E+01 -5.186641149E+01 -1.870649061E+01  1.682224573E+02  1.250000000E+02  0.00000E+00  9.000E+00
      21     1     1     2   502   512  9.951909717E+01 -1.109776028E+01 -6.598203479E+02  6.673755334E+02  7.629394531E-06  0.00000E+00  9.000E+00
#rwgt            1           1   3.5001656804853731E-002           7      123113           0
</event>
<event>
      5   9999  3.19816E-02  2.50911E+01 -1.00000E+00  1.58633E-01
      21    -1     0     0   511   501  0.000000000E+00  0.000000000E+00  4.479567650E+02  4.479567650E+02  0.000000000E+00  0.00000E+00  9.000E+00
      21    -1     0     0   501   502  0.000000000E+00  0.000000000E+00 -1.214849072E+02  1.214849072E+02  0.000000000E+00  0.00000E+00  9.000E+00
      25     1     1     2     0     0 -8.748746365E+01  1.288128973E+02  4.678000548E+01  2.050858057E+02  1.250000000E+02  0.00000E+00  9.000E+00
      25     1     1     2     0     0  1.119780636E+02 -1.233563075E+02  2.533971917E+02  3.280106738E+02  1.250000000E+02  0.00000E+00  9.000E+00
      21     1     1     2   511   502 -2.449059995E+01 -5.456589789E+00  2.629466061E+01  3.634519273E+01  6.743495762E-07  0.00000E+00  9.000E+00
#rwgt            1           1   3.0243737283839372E-002           7      123165           0
</event>
<event>
      5   9999  3.19816E-02  3.00910E+02 -1.00000E+00  1.05549E-01
      21    -1     0     0   502   501  0.000000000E+00  0.000000000E+00  6.662674912E+02  6.662674912E+02  0.000000000E+00  0.00000E+00  9.000E+00
      21    -1     0     0   512   502  0.000000000E+00  0.000000000E+00 -6.798901357E+02  6.798901357E+02  0.000000000E+00  0.00000E+00  9.000E+00
      25     1     1     2     0     0 -5.138989508E+01 -1.434003220E+02 -2.899472454E+02  3.505695063E+02  1.250000000E+02  0.00000E+00  9.000E+00
      25     1     1     2     0     0 -7.791487260E+01  4.151117171E+02  4.649365561E+02  6.404525480E+02  1.250000000E+02  0.00000E+00  9.000E+00
      21     1     1     2   512   501  1.293047677E+02 -2.717113952E+02 -1.886119553E+02  3.551355725E+02  6.607249480E-06  0.00000E+00  9.000E+00
#rwgt            1           1   2.9659986076728696E-002           7      123261           0
</event>
<event>
      5   9999  3.19816E-02  2.99590E+01 -1.00000E+00  1.53081E-01
      21    -1     0     0   502   501  0.000000000E+00  0.000000000E+00  8.505839370E+02  8.505839370E+02  0.000000000E+00  0.00000E+00  9.000E+00
      21    -1     0     0   511   502  0.000000000E+00  0.000000000E+00 -1.388007180E+02  1.388007180E+02  0.000000000E+00  0.00000E+00  9.000E+00
      25     1     1     2     0     0  7.171189425E+01  2.753199293E+02  3.570599913E+02  4.733502896E+02  1.250000000E+02  0.00000E+00  9.000E+00
      25     1     1     2     0     0 -6.977665030E+01 -3.052163207E+02  3.495546598E+02  4.856328279E+02  1.250000000E+02  0.00000E+00  9.000E+00
      21     1     1     2   511   501 -1.935243947E+00  2.989639143E+01  5.168567916E+00  3.040153753E+01  7.077659420E-07  0.00000E+00  9.000E+00
#rwgt            1           1   2.4501220449214545E-002           7      123326           0
</event>
<event>
      5   9999  3.19816E-02  8.28579E+01 -1.00000E+00  1.27616E-01
      21    -1     0     0   502   501  0.000000000E+00  0.000000000E+00  1.073542232E+02  1.073542232E+02  0.000000000E+00  0.00000E+00  9.000E+00
      21    -1     0     0   501   512  0.000000000E+00  0.000000000E+00 -1.428535486E+03  1.428535486E+03  0.000000000E+00  0.00000E+00  9.000E+00
      25     1     1     2     0     0 -1.646400651E+02  1.383602669E+02 -1.872397610E+02  3.113416814E+02  1.250000000E+02  0.00000E+00  9.000E+00
      25     1     1     2     0     0  2.340676368E+02 -1.835846499E+02 -5.737260042E+02  6.582381865E+02  1.250000000E+02  0.00000E+00  9.000E+00
      21     1     1     2   502   512 -6.942757170E+01  4.522438307E+01 -5.602154972E+02  5.663098408E+02  1.078959322E-05  0.00000E+00  9.000E+00
#rwgt            1           1   2.9338749529906359E-002           7      123471           0
</event>
<event>
      5   9999  3.19816E-02  1.45387E+02 -1.00000E+00  1.16934E-01
       2    -1     0     0   502     0  0.000000000E+00  0.000000000E+00  1.899276966E+03  1.899276966E+03  0.000000000E+00  0.00000E+00  9.000E+00
      21    -1     0     0   501   502  0.000000000E+00  0.000000000E+00 -1.553006924E+02  1.553006924E+02  0.000000000E+00  0.00000E+00  9.000E+00
      25     1     1     2     0     0  2.735011332E+02 -5.325931509E+01  9.814180295E+02  1.027835480E+03  1.250000000E+02  0.00000E+00  9.000E+00
      25     1     1     2     0     0 -1.339245515E+02  9.395002714E+01 -4.118034705E+01  2.099600297E+02  1.250000000E+02  0.00000E+00  9.000E+00
       2     1     1     2   501     0 -1.395765817E+02 -4.069071205E+01  8.037385915E+02  8.167821494E+02  1.078959322E-05  0.00000E+00  9.000E+00
#rwgt            1           1   2.9141941454487456E-002           7      123545           0
</event>
<event>
      5   9999  3.19816E-02  2.60632E+01 -1.00000E+00  1.57408E-01
      21    -1     0     0   511   501  0.000000000E+00  0.000000000E+00  1.002594600E+03  1.002594600E+03  0.000000000E+00  0.00000E+00  9.000E+00
      21    -1     0     0   501   502  0.000000000E+00  0.000000000E+00 -3.258514304E+02  3.258514304E+02  0.000000000E+00  0.00000E+00  9.000E+00
      25     1     1     2     0     0 -4.892170353E+02  2.008784781E+02  2.627231563E+02  6.036008014E+02  1.250000000E+02  0.00000E+00  9.000E+00
      25     1     1     2     0     0  5.124060250E+02 -2.127764645E+02  3.922035341E+02  6.908562589E+02  1.250000000E+02  0.00000E+00  9.000E+00
      21     1     1     2   511   502 -2.318898968E+01  1.189798634E+01  2.181647891E+01  3.398896988E+01  3.371747881E-07  0.00000E+00  9.000E+00
#rwgt            1           1   3.0938886679478809E-002           7      123638           0
</event>
<event>
      5   9999  3.19816E-02  7.13846E+01 -1.00000E+00  1.30791E-01
      21    -1     0     0   502   501  0.000000000E+00  0.000000000E+00  7.939365817E+02  7.939365817E+02  0.000000000E+00  0.00000E+00  9.000E+00
      21    -1     0     0   512   502  0.000000000E+00  0.000000000E+00 -2.448402851E+02  2.448402851E+02  0.000000000E+00  0.00000E+00  9.000E+00
      25     1     1     2     0     0  2.288470904E+01 -9.155056484E+01  2.021797355E+02  2.557476516E+02  1.250000000E+02  0.00000E+00  9.000E+00
      25     1     1     2     0     0 -1.537577762E+01  2.056202273E+01  5.516450784E+02  5.662124194E+02  1.250000000E+02  0.00000E+00  9.000E+00
      21     1     1     2   512   501 -7.508931421E+00  7.098854211E+01 -2.047285173E+02  2.168167958E+02  2.697398305E-06  0.00000E+00  9.000E+00
#rwgt            1           1   2.8464103261779203E-002           7      123776           0
</event>
<event>
      5   9999  3.19816E-02  2.41908E+01 -1.00000E+00  1.59829E-01
      21    -1     0     0   511   501  0.000000000E+00  0.000000000E+00  2.080726998E+02  2.080726998E+02  0.000000000E+00  0.00000E+00  9.000E+00
      21    -1     0     0   501   502  0.000000000E+00  0.000000000E+00 -3.493268221E+02  3.493268221E+02  0.000000000E+00  0.00000E+00  9.000E+00
      25     1     1     2     0     0  5.436818410E+00 -4.923462514E+01 -2.974228727E+02  3.264030829E+02  1.250000000E+02  0.00000E+00  9.000E+00
      25     1     1     2     0     0  7.581817907E+00  6.962359610E+01  1.465725171E+02  2.049717831E+02  1.250000000E+02  0.00000E+00  9.000E+00
      21     1     1     2   511   502 -1.301863632E+01 -2.038897095E+01  9.596233280E+00  2.602465602E+01  3.153981341E-07  0.00000E+00  9.000E+00
#rwgt            1           1   2.6567939040470358E-002           7      123834           0
</event>
<event>
      5   9999  3.19816E-02  4.70280E+01 -1.00000E+00  1.40611E-01
      21    -1     0     0   502   501  0.000000000E+00  0.000000000E+00  4.947404740E+01  4.947404740E+01  0.000000000E+00  0.00000E+00  9.000E+00
      21    -1     0     0   512   502  0.000000000E+00  0.000000000E+00 -1.041638475E+03  1.041638475E+03  0.000000000E+00  0.00000E+00  9.000E+00
      25     1     1     2     0     0 -3.448037699E+01  4.379122330E-01 -6.550235865E+02  6.677349676E+02  1.250000000E+02  0.00000E+00  9.000E+00
      25     1     1     2     0     0  5.231484529E+00 -3.726360504E+01 -6.248565813E+01  1.447252644E+02  1.250000000E+02  0.00000E+00  9.000E+00
      21     1     1     2   512   501  2.924889246E+01  3.682569281E+01 -2.746551827E+02  2.786522900E+02  5.394796609E-06  0.00000E+00  9.000E+00
#rwgt            1           1   2.5663742661174306E-002           7      123938           0
</event>
<event>
      5   9999  3.19816E-02  1.02753E+02 -1.00000E+00  1.23300E-01
      21    -1     0     0   502   501  0.000000000E+00  0.000000000E+00  4.984974627E+02  4.984974627E+02  0.000000000E+00  0.00000E+00  9.000E+00
      21    -1     0     0   501   511  0.000000000E+00  0.000000000E+00 -2.036408045E+02  2.036408045E+02  0.000000000E+00  0.00000E+00  9.000E+00
      25     1     1     2     0     0  4.880162046E+00  5.588460707E+01 -1.207829862E+02  1.826483918E+02  1.250000000E+02  0.00000E+00  9.000E+00
      25     1     1     2     0     0 -1.587491153E+01  4.627888109E+01  3.915917470E+02  4.139599546E+02  1.250000000E+02  0.00000E+00  9.000E+00
      21     1     1     2   502   511  1.099474948E+01 -1.021634882E+02  2.404789737E+01  1.055299209E+02  1.936921693E-06  0.00000E+00  9.000E+00
#rwgt            1           1   2.9566457186702366E-002           7      124008           0
</event>
<event>
      5   9999  3.19816E-02  4.11028E+01 -1.00000E+00  1.44111E-01
      21    -1     0     0   502   501  0.000000000E+00  0.000000000E+00  4.480142418E+02  4.480142418E+02  0.000000000E+00  0.00000E+00  9.000E+00
      21    -1     0     0   512   502  0.000000000E+00  0.000000000E+00 -2.482968668E+02  2.482968668E+02  0.000000000E+00  0.00000E+00  9.000E+00
      25     1     1     2     0     0 -5.698813219E+01  1.404562754E+02  2.262028527E+02  2.996136564E+02  1.250000000E+02  0.00000E+00  9.000E+00
      25     1     1     2     0     0  9.802715738E+01 -1.427445059E+02  1.197139530E+02  2.448300392E+02  1.250000000E+02  0.00000E+00  9.000E+00
      21     1     1     2   512   501 -4.103902520E+01  2.288230406E+00 -1.461994308E+02  1.518674131E+02  1.907348633E-06  0.00000E+00  9.000E+00
#rwgt            1           1   3.1545700204122937E-002           7      124087           0
</event>
<event>
      5   9999  3.19816E-02  3.40875E+01 -1.00000E+00  1.49284E-01
      21    -1     0     0   502   501  0.000000000E+00  0.000000000E+00  1.134279192E+03  1.134279192E+03  0.000000000E+00  0.00000E+00  9.000E+00
       1    -1     0     0   501     0  0.000000000E+00  0.000000000E+00 -1.534801819E+02  1.534801819E+02  0.000000000E+00  0.00000E+00  9.000E+00
      25     1     1     2     0     0  2.962858988E+00 -7.997863294E+01 -7.120455152E+01  1.646221383E+02  1.250000000E+02  0.00000E+00  9.000E+00
      25     1     1     2     0     0 -3.008483665E+01  5.933019875E+01  1.073525725E+03  1.082823925E+03  1.250000000E+02  0.00000E+00  9.000E+00
       1     1     1     2   502     0  2.712197766E+01  2.064843420E+01 -2.152216339E+01  4.031331076E+01  1.599360450E-06  0.00000E+00  9.000E+00
#rwgt            1           1   2.9034951269599613E-002           7      124185           0
</event>
<event>
      5   9999  3.19816E-02  3.83836E+01 -1.00000E+00  1.45960E-01
      21    -1     0     0   502   501  0.000000000E+00  0.000000000E+00  3.120023916E+02  3.120023916E+02  0.000000000E+00  0.00000E+00  9.000E+00
       2    -1     0     0   501     0  0.000000000E+00  0.000000000E+00 -3.430564298E+03  3.430564298E+03  0.000000000E+00  0.00000E+00  9.000E+00
      25     1     1     2     0     0  1.000698778E+01  3.799089681E+02 -1.654863026E+02  4.329453547E+02  1.250000000E+02  0.00000E+00  9.000E+00
      25     1     1     2     0     0 -5.417893587E+00 -3.418007377E+02 -7.768156100E+00  3.640637885E+02  1.250000000E+02  0.00000E+00  9.000E+00
       2     1     1     2   502     0 -4.589094196E+00 -3.810823037E+01 -2.945307448E+03  2.945557546E+03  0.000000000E+00  0.00000E+00  9.000E+00
#rwgt            1           1   2.3535559869081651E-002           7      124254           0
</event>
<event>
      5   9999  3.19816E-02  2.86686E+01 -1.00000E+00  1.54422E-01
      21    -1     0     0   502   511  0.000000000E+00  0.000000000E+00  4.941921594E+02  4.941921594E+02  0.000000000E+00  0.00000E+00  9.000E+00
      21    -1     0     0   501   502  0.000000000E+00  0.000000000E+00 -6.386762136E+02  6.386762136E+02  0.000000000E+00  0.00000E+00  9.000E+00
      25     1     1     2     0     0  4.748221500E+02  1.983334618E+02 -2.473340313E+02  5.844581758E+02  1.250000000E+02  0.00000E+00  9.000E+00
      25     1     1     2     0     0 -4.594520141E+02 -1.741332699E+02  8.350560196E+01  5.138255877E+02  1.250000000E+02  0.00000E+00  9.000E+00
      21     1     1     2   501   511 -1.537013592E+01 -2.420019192E+01  1.934437516E+01  3.458460954E+01  6.743495762E-07  0.00000E+00  9.000E+00
#rwgt            1           1   2.8623862996642581E-002           7      124402           0
</event>
<event>
      5   9999  3.19816E-02  1.78705E+02 -1.00000E+00  1.13457E-01
      21    -1     0     0   512   501  0.000000000E+00  0.000000000E+00  1.417312502E+03  1.417312502E+03  0.000000000E+00  0.00000E+00  9.000E+00
      21    -1     0     0   501   502  0.000000000E+00  0.000000000E+00 -8.689953214E+02  8.689953214E+02  0.000000000E+00  0.00000E+00  9.000E+00
      25     1     1     2     0     0  8.299138252E+02 -7.919717569E+01  1.680552889E+02  8.595910248E+02  1.250000000E+02  0.00000E+00  9.000E+00
      25     1     1     2     0     0 -8.464184367E+02  2.571385872E+02 -1.144622434E+02  9.007058500E+02  1.250000000E+02  0.00000E+00  9.000E+00
      21     1     1     2   512   502  1.650461156E+01 -1.779414115E+02  4.947241352E+02  5.260109486E+02  5.394796609E-06  0.00000E+00  9.000E+00
#rwgt            1           1   3.3899374041416880E-002           7      124572           0
</event>
<event>
      5   9999  3.19816E-02  1.00390E+01 -1.00000E+00  1.95562E-01
      21    -1     0     0   502   511  0.000000000E+00  0.000000000E+00  7.487343291E+02  7.487343291E+02  0.000000000E+00  0.00000E+00  9.000E+00
      21    -1     0     0   501   502  0.000000000E+00  0.000000000E+00 -3.844436194E+01  3.844436194E+01  0.000000000E+00  0.00000E+00  9.000E+00
      25     1     1     2     0     0 -7.446706248E+01  2.437410817E+01  4.886582137E+02  5.104422498E+02  1.250000000E+02  0.00000E+00  9.000E+00
      25     1     1     2     0     0  7.970816638E+01 -3.293632110E+01  1.882081319E+02  2.418377430E+02  1.250000000E+02  0.00000E+00  9.000E+00
      21     1     1     2   501   511 -5.241103898E+00  8.562212930E+00  3.342362160E+01  3.489869827E+01  0.000000000E+00  0.00000E+00  9.000E+00
#rwgt            1           1   3.0612667220633688E-002           7      124652           0
</event>
<event>
      5   9999  3.19816E-02  7.10942E+01 -1.00000E+00  1.30880E-01
      21    -1     0     0   512   501  0.000000000E+00  0.000000000E+00  3.596674760E+02  3.596674760E+02  0.000000000E+00  0.00000E+00  9.000E+00
      21    -1     0     0   501   502  0.000000000E+00  0.000000000E+00 -4.557177598E+02  4.557177598E+02  0.000000000E+00  0.00000E+00  9.000E+00
      25     1     1     2     0     0 -7.552117211E+01  1.913830187E+02 -3.030417961E+02  3.870274376E+02  1.250000000E+02  0.00000E+00  9.000E+00
      25     1     1     2     0     0  9.825890730E+01 -2.587430510E+02  1.736800161E+02  3.498464339E+02  1.250000000E+02  0.00000E+00  9.000E+00
      21     1     1     2   512   502 -2.273773519E+01  6.736003233E+01  3.331149611E+01  7.851136434E+01  8.259061849E-07  0.00000E+00  9.000E+00
#rwgt            1           1   2.8138854345812796E-002           7      124872           0
</event>
<event>
      5   9999  3.19816E-02  4.84303E+01 -1.00000E+00  1.39871E-01
      21    -1     0     0   502   501  0.000000000E+00  0.000000000E+00  9.511290426E+01  9.511290426E+01  0.000000000E+00  0.00000E+00  9.000E+00
      -4    -1     0     0     0   502  0.000000000E+00  0.000000000E+00 -1.282338604E+03  1.282338604E+03  0.000000000E+00  0.00000E+00  9.000E+00
      25     1     1     2     0     0  6.040787750E+01 -1.279805644E+02 -1.063185425E+02  2.166951061E+02  1.250000000E+02  0.00000E+00  9.000E+00
      25     1     1     2     0     0 -1.203939839E+01  1.255348910E+02 -1.613427997E+02  2.399176004E+02  1.250000000E+02  0.00000E+00  9.000E+00
      -4     1     1     2     0   501 -4.836847911E+01  2.445673398E+00 -9.195643573E+02  9.208388015E+02  2.157918644E-05  0.00000E+00  9.000E+00
#rwgt            1           1   2.6742978028128764E-002           7      124948           0
</event>
<event>
      5   9999  3.19816E-02  1.87162E+01 -1.00000E+00  1.68782E-01
      21    -1     0     0   502   501  0.000000000E+00  0.000000000E+00  6.318351208E+02  6.318351208E+02  0.000000000E+00  0.00000E+00  9.000E+00
      21    -1     0     0   501   511  0.000000000E+00  0.000000000E+00 -1.431534330E+03  1.431534330E+03  0.000000000E+00  0.00000E+00  9.000E+00
      25     1     1     2     0     0 -4.702166435E+02  2.172034851E+02  2.212134148E+02  5.769241030E+02  1.250000000E+02  0.00000E+00  9.000E+00
      25     1     1     2     0     0  4.638476134E+02 -1.996043203E+02 -5.809605928E+01  5.234468886E+02  1.250000000E+02  0.00000E+00  9.000E+00
      21     1     1     2   502   511  6.369030127E+00 -1.759916482E+01 -9.628165645E+02  9.629984590E+02  1.525878906E-05  0.00000E+00  9.000E+00
#rwgt            1           1   3.0149967039786080E-002           7      125027           0
</event>
<event>
      5   9999  3.19816E-02  2.90949E+01 -1.00000E+00  1.53970E-01
      21    -1     0     0   502   501  0.000000000E+00  0.000000000E+00  5.053455091E+01  5.053455091E+01  0.000000000E+00  0.00000E+00  9.000E+00
      21    -1     0     0   501   512  0.000000000E+00  0.000000000E+00 -6.321133316E+02  6.321133316E+02  0.000000000E+00  0.00000E+00  9.000E+00
      25     1     1     2     0     0  7.183470247E+01  5.214260904E+01 -1.344438553E+02  2.039098487E+02  1.250000000E+02  0.00000E+00  9.000E+00
      25     1     1     2     0     0 -4.660118091E+01 -3.765868829E+01 -3.277314825E+02  3.558409356E+02  1.250000000E+02  0.00000E+00  9.000E+00
      21     1     1     2   502   512 -2.523352156E+01 -1.448392074E+01 -1.194034429E+02  1.228970982E+02  1.907348633E-06  0.00000E+00  9.000E+00
#rwgt            1           1   8.0701133890873022E-002           7      125197           0
</event>
<event>
      5   9999  3.19816E-02  2.15919E+01 -1.00000E+00  1.63671E-01
       2    -1     0     0   502     0  0.000000000E+00  0.000000000E+00  1.866631769E+03  1.866631769E+03  0.000000000E+00  0.00000E+00  9.000E+00
      21    -1     0     0   501   502  0.000000000E+00  0.000000000E+00 -1.486549930E+03  1.486549930E+03  0.000000000E+00  0.00000E+00  9.000E+00
      25     1     1     2     0     0 -4.410616657E+02 -8.287210561E+00 -1.574531898E+02  4.847892097E+02  1.250000000E+02  0.00000E+00  9.000E+00
      25     1     1     2     0     0  4.496234329E+02 -1.153464367E+01 -1.118608944E+03  1.212107771E+03  1.250000000E+02  0.00000E+00  9.000E+00
       2     1     1     2   501     0 -8.561767222E+00  1.982185423E+01  1.656143972E+03  1.656284718E+03  2.157918644E-05  0.00000E+00  9.000E+00
#rwgt            1           1   2.9832908245597374E-002           7      125261           0
</event>
<event>
      5   9999  3.19816E-02  5.34474E+01 -1.00000E+00  1.37443E-01
      21    -1     0     0   502   501  0.000000000E+00  0.000000000E+00  8.657200506E+01  8.657200506E+01  0.000000000E+00  0.00000E+00  9.000E+00
      21    -1     0     0   501   511  0.000000000E+00  0.000000000E+00 -2.023814878E+03  2.023814878E+03  0.000000000E+00  0.00000E+00  9.000E+00
      25     1     1     2     0     0  1.840313261E+02 -1.167833450E+01 -1.652867032E+02  2.773961189E+02  1.250000000E+02  0.00000E+00  9.000E+00
      25     1     1     2     0     0 -1.872616732E+02  6.502804919E+01 -4.278965224E+02  4.878688505E+02  1.250000000E+02  0.00000E+00  9.000E+00
      21     1     1     2   502   511  3.230347035E+00 -5.334971469E+01 -1.344059648E+03  1.345121914E+03  1.525878906E-05  0.00000E+00  9.000E+00
#rwgt            1           1   3.0935450480840322E-002           7      125494           0
</event>
<event>
      5   9999  3.19816E-02  5.04064E+01 -1.00000E+00  1.38875E-01
      21    -1     0     0   512   501  0.000000000E+00  0.000000000E+00  1.389669389E+02  1.389669389E+02  0.000000000E+00  0.00000E+00  9.000E+00
      21    -1     0     0   501   502  0.000000000E+00  0.000000000E+00 -8.104805929E+02  8.104805929E+02  0.000000000E+00  0.00000E+00  9.000E+00
      25     1     1     2     0     0  2.742109895E+02 -1.241430543E+02 -3.122041873E+02  4.513309420E+02  1.250000000E+02  0.00000E+00  9.000E+00
      25     1     1     2     0     0 -2.546019160E+02  7.770718552E+01 -3.158335589E+02  4.315511317E+02  1.250000000E+02  0.00000E+00  9.000E+00
      21     1     1     2   512   502 -1.960907347E+01  4.643586873E+01 -4.347590774E+01  6.656545817E+01  9.536743164E-07  0.00000E+00  9.000E+00
#rwgt            1           1   2.9580420521611129E-002           7      125583           0
</event>
<event>
      5   9999  3.19816E-02  1.85488E+01 -1.00000E+00  1.69114E-01
      21    -1     0     0   511   501  0.000000000E+00  0.000000000E+00  1.938546066E+02  1.938546066E+02  0.000000000E+00  0.00000E+00  9.000E+00
      21    -1     0     0   501   502  0.000000000E+00  0.000000000E+00 -3.182342869E+02  3.182342869E+02  0.000000000E+00  0.00000E+00  9.000E+00
      25     1     1     2     0     0 -3.089930919E+01 -2.084154378E+02 -3.051177241E+01  2.468759411E+02  1.250000000E+02  0.00000E+00  9.000E+00
      25     1     1     2     0     0  2.924688490E+01  1.899403670E+02 -8.985549456E+01  2.462351177E+02  1.250000000E+02  0.00000E+00  9.000E+00
      21     1     1     2   511   502  1.652424295E+00  1.847507081E+01 -4.012413354E+00  1.897783466E+01  1.192092896E-07  0.00000E+00  9.000E+00
#rwgt            1           1   2.8323176435353797E-002           7      125697           0
</event>
<event>
      5   9999  3.19816E-02  8.19267E+01 -1.00000E+00  1.27851E-01
      21    -1     0     0   502   501  0.000000000E+00  0.000000000E+00  4.323585719E+02  4.323585719E+02  0.000000000E+00  0.00000E+00  9.000E+00
      21    -1     0     0   512   502  0.000000000E+00  0.000000000E+00 -4.597209007E+02  4.597209007E+02  0.000000000E+00  0.00000E+00  9.000E+00
      25     1     1     2     0     0  3.184438911E+02  1.110163368E+02 -1.727880787E+02  3.990136075E+02  1.250000000E+02  0.00000E+00  9.000E+00
      25     1     1     2     0     0 -2.828768182E+02 -1.848199205E+02  1.816546405E+02  4.034861902E+02  1.250000000E+02  0.00000E+00  9.000E+00
      21     1     1     2   512   501 -3.556707294E+01  7.380358362E+01 -3.622889057E+01  8.957967484E+01  4.768371582E-07  0.00000E+00  9.000E+00
#rwgt            1           1   2.9311834927381479E-002           7      125844           0
</event>
<event>
      5   9999  3.19816E-02  2.60425E+02 -1.00000E+00  1.07627E-01
      21    -1     0     0   511   501  0.000000000E+00  0.000000000E+00  1.540625177E+02  1.540625177E+02  0.000000000E+00  0.00000E+00  9.000E+00
      21    -1     0     0   501   502  0.000000000E+00  0.000000000E+00 -1.578851841E+03  1.578851841E+03  0.000000000E+00  0.00000E+00  9.000E+00
      25     1     1     2     0     0  6.403454737E+01 -1.594837941E+02 -2.531318614E+02  3.305090666E+02  1.250000000E+02  0.00000E+00  9.000E+00
      25     1     1     2     0     0 -1.493496401E+02  4.055372712E+02 -9.822916948E+02  1.080410925E+03  1.250000000E+02  0.00000E+00  9.000E+00
      21     1     1     2   511   502  8.531509274E+01 -2.460534771E+02 -1.893657671E+02  3.219943670E+02  2.697398305E-06  0.00000E+00  9.000E+00
#rwgt            1           1   2.9366365874942828E-002           7      125902           0
</event>
<event>
      5   9999  3.19816E-02  2.54339E+02 -1.00000E+00  1.07976E-01
      21    -1     0     0   512   501  0.000000000E+00  0.000000000E+00  7.450326328E+02  7.450326328E+02  0.000000000E+00  0.00000E+00  9.000E+00
      21    -1     0     0   501   502  0.000000000E+00  0.000000000E+00 -1.802110119E+03  1.802110119E+03  0.000000000E+00  0.00000E+00  9.000E+00
      25     1     1     2     0     0 -2.207545634E+02 -7.166382618E+01 -1.663538243E+03  1.684295926E+03  1.250000000E+02  0.00000E+00  9.000E+00
      25     1     1     2     0     0  3.939353841E+01 -1.066522509E+02 -3.521557660E+01  1.726026950E+02  1.250000000E+02  0.00000E+00  9.000E+00
      21     1     1     2   512   502  1.813610250E+02  1.783160771E+02  6.416763327E+02  6.902441312E+02  0.000000000E+00  0.00000E+00  9.000E+00
#rwgt            1           1   2.6563632844001952E-002           7      125938           0
</event>
<event>
      5   9999  3.19816E-02  3.08763E+01 -1.00000E+00  1.52176E-01
      21    -1     0     0   511   501  0.000000000E+00  0.000000000E+00  9.557929968E+02  9.557929968E+02  0.000000000E+00  0.00000E+00  9.000E+00
      21    -1     0     0   501   502  0.000000000E+00  0.000000000E+00 -9.931306241E+02  9.931306241E+02  0.000000000E+00  0.00000E+00  9.000E+00
      25     1     1     2     0     0 -4.065298989E+02  5.926801084E+02 -6.597285845E+02  9.835665076E+02  1.250000000E+02  0.00000E+00  9.000E+00
      25     1     1     2     0     0  3.767752018E+02 -5.844336308E+02  5.883939336E+02  9.194316955E+02  1.250000000E+02  0.00000E+00  9.000E+00
      21     1     1     2   511   502  2.975469706E+01 -8.246477640E+00  3.399702358E+01  4.592541783E+01  9.536743164E-07  0.00000E+00  9.000E+00
#rwgt            1           1   3.9335033239406972E-002           7      125982           0
</event>
<event>
      5   9999  3.19816E-02  1.80486E+01 -1.00000E+00  1.70134E-01
      21    -1     0     0   512   501  0.000000000E+00  0.000000000E+00  1.941743613E+02  1.941743613E+02  0.000000000E+00  0.00000E+00  9.000E+00
      21    -1     0     0   501   502  0.000000000E+00  0.000000000E+00 -2.668336708E+02  2.668336708E+02  0.000000000E+00  0.00000E+00  9.000E+00
      25     1     1     2     0     0 -5.364934769E+01 -1.592085919E+02 -1.205591076E+02  2.416301444E+02  1.250000000E+02  0.00000E+00  9.000E+00
      25     1     1     2     0     0  4.828558831E+01  1.419754353E+02  3.834770470E+01  1.989574545E+02  1.250000000E+02  0.00000E+00  9.000E+00
      21     1     1     2   512   502  5.363759379E+00  1.723315663E+01  9.552093409E+00  2.042043316E+01  1.192092896E-07  0.00000E+00  9.000E+00
#rwgt            1           1   2.5164066809259148E-002           7      126203           0
</event>
<event>
      5   9999  3.19816E-02  2.43756E+02 -1.00000E+00  1.08607E-01
      21    -1     0     0   502   501  0.000000000E+00  0.000000000E+00  2.245309023E+03  2.245309023E+03  0.000000000E+00  0.00000E+00  9.000E+00
      21    -1     0     0   511   502  0.000000000E+00  0.000000000E+00 -3.797022168E+02  3.797022168E+02  0.000000000E+00  0.00000E+00  9.000E+00
      25     1     1     2     0     0 -3.276903055E+02  3.383343740E+02  1.285453655E+03  1.374724403E+03  1.250000000E+02  0.00000E+00  9.000E+00
      25     1     1     2     0     0  4.419845373E+02 -1.230350862E+02  7.943446478E+02  9.257950007E+02  1.250000000E+02  0.00000E+00  9.000E+00
      21     1     1     2   511   501 -1.142942318E+02 -2.152992878E+02 -2.141914964E+02  3.244918364E+02  3.814697266E-06  0.00000E+00  9.000E+00
#rwgt            1           1   4.0212924629693510E-002           7      126343           0
</event>
<event>
      5   9999  3.19816E-02  2.89304E+01 -1.00000E+00  1.54143E-01
      21    -1     0     0   502   512  0.000000000E+00  0.000000000E+00  3.270672194E+02  3.270672194E+02  0.000000000E+00  0.00000E+00  9.000E+00
      21    -1     0     0   501   502  0.000000000E+00  0.000000000E+00 -1.238674096E+03  1.238674096E+03  0.000000000E+00  0.00000E+00  9.000E+00
      25     1     1     2     0     0 -1.154686453E+02 -3.032489015E+02 -3.535637700E+00  3.477504925E+02  1.250000000E+02  0.00000E+00  9.000E+00
      25     1     1     2     0     0  9.433673322E+01  2.834901126E+02 -1.036719369E+03  1.086129878E+03  1.250000000E+02  0.00000E+00  9.000E+00
      21     1     1     2   501   512  2.113191207E+01  1.975878893E+01  1.286481297E+02  1.318609447E+02  0.000000000E+00  0.00000E+00  9.000E+00
#rwgt            1           1   2.7285304850753010E-002           7      126505           0
</event>
<event>
      5   9999  3.19816E-02  4.19096E+01 -1.00000E+00  1.43595E-01
      21    -1     0     0   502   501  0.000000000E+00  0.000000000E+00  1.342976388E+02  1.342976388E+02  0.000000000E+00  0.00000E+00  9.000E+00
      21    -1     0     0   511   502  0.000000000E+00  0.000000000E+00 -1.423004673E+03  1.423004673E+03  0.000000000E+00  0.00000E+00  9.000E+00
      25     1     1     2     0     0  3.483434344E+02 -8.225648380E+01 -2.962509799E+02  4.811433471E+02  1.250000000E+02  0.00000E+00  9.000E+00
      25     1     1     2     0     0 -3.466586242E+02  4.038074113E+01 -8.424290114E+02  9.203882035E+02  1.250000000E+02  0.00000E+00  9.000E+00
      21     1     1     2   511   501 -1.684810243E+00  4.187574267E+01 -1.500270428E+02  1.557707610E+02  1.907348633E-06  0.00000E+00  9.000E+00
#rwgt            1           1   2.7055292673857027E-002           7      126724           0
</event>
<event>
      5   9999  3.19816E-02  4.67202E+01 -1.00000E+00  1.40778E-01
      21    -1     0     0   502   512  0.000000000E+00  0.000000000E+00  3.364081557E+02  3.364081557E+02  0.000000000E+00  0.00000E+00  9.000E+00
      21    -1     0     0   501   502  0.000000000E+00  0.000000000E+00 -2.511937665E+02  2.511937665E+02  0.000000000E+00  0.00000E+00  9.000E+00
      25     1     1     2     0     0 -1.638170577E+02  9.921449515E+01 -3.801714534E+01  2.318401341E+02  1.250000000E+02  0.00000E+00  9.000E+00
      25     1     1     2     0     0  1.201609846E+02 -8.257354025E+01 -3.106837196E+01  1.945438138E+02  1.250000000E+02  0.00000E+00  9.000E+00
      21     1     1     2   501   512  4.365607313E+01 -1.664095490E+01  1.542999065E+02  1.612179743E+02  3.814697266E-06  0.00000E+00  9.000E+00
#rwgt            1           1   2.7751889580968282E-002           7      126839           0
</event>
<event>
      5   9999  3.19816E-02  4.40720E+02 -1.00000E+00  1.00434E-01
      21    -1     0     0   502   501  0.000000000E+00  0.000000000E+00  2.114931274E+02  2.114931274E+02  0.000000000E+00  0.00000E+00  9.000E+00
       2    -1     0     0   501     0  0.000000000E+00  0.000000000E+00 -1.621408821E+03  1.621408821E+03  0.000000000E+00  0.00000E+00  9.000E+00
      25     1     1     2     0     0  1.845893592E+02  1.805127065E+02 -3.145994505E+02  4.257415683E+02  1.250000000E+02  0.00000E+00  9.000E+00
      25     1     1     2     0     0  2.516620422E+02 -1.179097864E+02 -8.495414190E+02  9.025420344E+02  1.250000000E+02  0.00000E+00  9.000E+00
       2     1     1     2   502     0 -4.362514014E+02 -6.260292011E+01 -2.457748243E+02  5.046183460E+02  2.697398305E-06  0.00000E+00  9.000E+00
#rwgt            1           1   3.4319737928628032E-002           7      126905           0
</event>
<event>
      5   9999  3.19816E-02  5.97609E+01 -1.00000E+00  1.34796E-01
      21    -1     0     0   511   501  0.000000000E+00  0.000000000E+00  8.439459187E+01  8.439459187E+01  0.000000000E+00  0.00000E+00  9.000E+00
      21    -1     0     0   501   502  0.000000000E+00  0.000000000E+00 -9.613066513E+02  9.613066513E+02  0.000000000E+00  0.00000E+00  9.000E+00
      25     1     1     2     0     0 -1.928644020E+02  8.079371285E+00 -6.004589086E+02  6.429913333E+02  1.250000000E+02  0.00000E+00  9.000E+00
      25     1     1     2     0     0  1.610511407E+02 -5.866868265E+01 -2.688479099E+02  3.424670538E+02  1.250000000E+02  0.00000E+00  9.000E+00
      21     1     1     2   511   502  3.181326125E+01  5.058931137E+01 -7.605240861E+00  6.024285605E+01  1.108710482E-06  0.00000E+00  9.000E+00
#rwgt            2          11   2.0000086408996612E-003           7      127075           0
</event>
<event>
      5   9999  3.19816E-02  3.25692E+01 -1.00000E+00  1.50602E-01
      21    -1     0     0   512   501  0.000000000E+00  0.000000000E+00  1.880192477E+02  1.880192477E+02  0.000000000E+00  0.00000E+00  9.000E+00
      21    -1     0     0   501   502  0.000000000E+00  0.000000000E+00 -4.664686117E+02  4.664686117E+02  0.000000000E+00  0.00000E+00  9.000E+00
      25     1     1     2     0     0  4.384434308E+01  7.398428575E+01  7.288984384E+01  1.683268555E+02  1.250000000E+02  0.00000E+00  9.000E+00
      25     1     1     2     0     0 -7.375897569E+01 -6.110525198E+01 -3.987050544E+02  4.286781528E+02  1.250000000E+02  0.00000E+00  9.000E+00
      21     1     1     2   512   502  2.991463261E+01 -1.287903377E+01  4.736584652E+01  5.748285111E+01  9.536743164E-07  0.00000E+00  9.000E+00
#rwgt            1           1   2.6143052950915291E-002           7      127110           0
</event>
<event>
      5   9999  3.19816E-02  2.69476E+01 -1.00000E+00  1.56349E-01
      21    -1     0     0   502   501  0.000000000E+00  0.000000000E+00  1.490187648E+03  1.490187648E+03  0.000000000E+00  0.00000E+00  9.000E+00
      21    -1     0     0   511   502  0.000000000E+00  0.000000000E+00 -1.762866554E+03  1.762866554E+03  0.000000000E+00  0.00000E+00  9.000E+00
      25     1     1     2     0     0 -6.722437525E+02 -9.512213595E+02 -7.079866919E+02  1.368796513E+03  1.250000000E+02  0.00000E+00  9.000E+00
      25     1     1     2     0     0  6.877963006E+02  9.292146833E+02  8.677963202E+02  1.450930437E+03  1.250000000E+02  0.00000E+00  9.000E+00
      21     1     1     2   511   501 -1.555254802E+01  2.200667614E+01 -4.324885338E+02  4.333272521E+02  5.394796609E-06  0.00000E+00  9.000E+00
#rwgt            1           1   5.2349540925991429E-002           7      127218           0
</event>
<event>
      5   9999  3.19816E-02  6.70113E+01 -1.00000E+00  1.32188E-01
      21    -1     0     0   502   501  0.000000000E+00  0.000000000E+00  5.229862394E+02  5.229862394E+02  0.000000000E+00  0.00000E+00  9.000E+00
      21    -1     0     0   501   512  0.000000000E+00  0.000000000E+00 -5.142037001E+02  5.142037001E+02  0.000000000E+00  0.00000E+00  9.000E+00
      25     1     1     2     0     0 -3.843951619E+02  8.376924588E+01 -1.948044983E+02  4.564545099E+02  1.250000000E+02  0.00000E+00  9.000E+00
      25     1     1     2     0     0  3.422280721E+02 -1.358504171E+02  2.799514740E+02  4.791379937E+02  1.250000000E+02  0.00000E+00  9.000E+00
      21     1     1     2   502   512  4.216708977E+01  5.208117123E+01 -7.636443637E+01  1.015974360E+02  1.348699152E-06  0.00000E+00  9.000E+00
#rwgt            1           1   2.8538874284132754E-002           7      127446           0
</event>
<event>
      5   9999  3.19816E-02  3.14589E+01 -1.00000E+00  1.51621E-01
      21    -1     0     0   502   501  0.000000000E+00  0.000000000E+00  8.132198648E+01  8.132198648E+01  0.000000000E+00  0.00000E+00  9.000E+00
       2    -1     0     0   501     0  0.000000000E+00  0.000000000E+00 -1.285559104E+03  1.285559104E+03  0.000000000E+00  0.00000E+00  9.000E+00
      25     1     1     2     0     0  1.030932460E+01  2.094786178E+02 -4.718021844E+02  5.312342936E+02  1.250000000E+02  0.00000E+00  9.000E+00
      25     1     1     2     0     0 -3.586982257E+01 -2.278177624E+02 -2.859170429E+02  3.880220773E+02  1.250000000E+02  0.00000E+00  9.000E+00
       2     1     1     2   502     0  2.556049797E+01  1.833914462E+01 -4.465178907E+02  4.476247200E+02  5.394796609E-06  0.00000E+00  9.000E+00
#rwgt            1           1   2.8968827498719665E-002           7      127556           0
</event>
<event>
      5   9999  3.19816E-02  3.39235E+01 -1.00000E+00  1.49422E-01
      21    -1     0     0   511   501  0.000000000E+00  0.000000000E+00  3.003075880E+02  3.003075880E+02  0.000000000E+00  0.00000E+00  9.000E+00
      21    -1     0     0   501   502  0.000000000E+00  0.000000000E+00 -4.134725240E+02  4.134725240E+02  0.000000000E+00  0.00000E+00  9.000E+00
      25     1     1     2     0     0  3.590349270E+00  2.118858504E+02  8.726923031E+01  2.610544441E+02  1.250000000E+02  0.00000E+00  9.000E+00
      25     1     1     2     0     0  8.544831104E+00 -1.802071257E+02 -2.860980072E+02  3.605893676E+02  1.250000000E+02  0.00000E+00  9.000E+00
      21     1     1     2   511   502 -1.213518037E+01 -3.167872469E+01  8.566384087E+01  9.213630031E+01  0.000000000E+00  0.00000E+00  9.000E+00
#rwgt            1           1   2.9557508705760491E-002           7      127674           0
</event>
<event>
      5   9999  3.19816E-02  5.71912E+01 -1.00000E+00  1.35826E-01
       2    -1     0     0   502     0  0.000000000E+00  0.000000000E+00  1.867908111E+02  1.867908111E+02  0.000000000E+00  0.00000E+00  9.000E+00
      21    -1     0     0   501   502  0.000000000E+00  0.000000000E+00 -9.772563238E+02  9.772563238E+02  0.000000000E+00  0.00000E+00  9.000E+00
      25     1     1     2     0     0  2.311286820E+02 -2.797769203E+02 -2.233211452E+02  4.440641020E+02  1.250000000E+02  0.00000E+00  9.000E+00
      25     1     1     2     0     0 -1.809846738E+02  3.072798486E+02 -5.330205318E+02  6.533852193E+02  1.250000000E+02  0.00000E+00  9.000E+00
       2     1     1     2   501     0 -5.014400814E+01 -2.750292831E+01 -3.412383565E+01  6.659781361E+01  1.261592536E-06  0.00000E+00  9.000E+00
#rwgt            1           1   2.7148911146457268E-002           7      127858           0
</event>
<event>
      5   9999  3.19816E-02  1.63392E+01 -1.00000E+00  1.73955E-01
      21    -1     0     0   511   501  0.000000000E+00  0.000000000E+00  4.901809909E+02  4.901809909E+02  0.000000000E+00  0.00000E+00  9.000E+00
      21    -1     0     0   501   502  0.000000000E+00  0.000000000E+00 -2.340772556E+02  2.340772556E+02  0.000000000E+00  0.00000E+00  9.000E+00
      25     1     1     2     0     0  1.933860502E+02 -1.073138008E+02  2.541000991E+02  3.593136188E+02  1.250000000E+02  0.00000E+00  9.000E+00
      25     1     1     2     0     0 -2.077831843E+02  9.958778561E+01 -8.565382941E+01  2.757773689E+02  1.250000000E+02  0.00000E+00  9.000E+00
      21     1     1     2   511   502  1.439713407E+01  7.726015227E+00  8.765746557E+01  8.916725885E+01  9.536743164E-07  0.00000E+00  9.000E+00
#rwgt            1           1   2.5207699678186223E-002           7      127933           0
</event>
<event>
      5   9999  3.19816E-02  5.63571E+01 -1.00000E+00  1.36173E-01
      21    -1     0     0   502   501  0.000000000E+00  0.000000000E+00  7.136274929E+01  7.136274929E+01  0.000000000E+00  0.00000E+00  9.000E+00
      21    -1     0     0   501   512  0.000000000E+00  0.000000000E+00 -1.650700149E+03  1.650700149E+03  0.000000000E+00  0.00000E+00  9.000E+00
      25     1     1     2     0     0 -2.790366919E+02  1.150315249E+02 -5.557132974E+02  6.446208157E+02  1.250000000E+02  0.00000E+00  9.000E+00
      25     1     1     2     0     0  2.253412433E+02 -9.791654141E+01 -7.767171019E+02  8.241849195E+02  1.250000000E+02  0.00000E+00  9.000E+00
      21     1     1     2   502   512  5.369544854E+01 -1.711498346E+01 -2.469070006E+02  2.532571634E+02  3.814697266E-06  0.00000E+00  9.000E+00
#rwgt            1           1   3.5280229743333121E-002           7      128107           0
</event>
<event>
      5   9999  3.19816E-02  6.91524E+00 -1.00000E+00  2.16304E-01
      21    -1     0     0   511   501  0.000000000E+00  0.000000000E+00  2.091963870E+02  2.091963870E+02  0.000000000E+00  0.00000E+00  9.000E+00
      21    -1     0     0   501   502  0.000000000E+00  0.000000000E+00 -8.909072171E+02  8.909072171E+02  0.000000000E+00  0.00000E+00  9.000E+00
      25     1     1     2     0     0 -3.990965075E+02  7.711567351E+01 -2.916868919E+02  5.156850708E+02  1.250000000E+02  0.00000E+00  9.000E+00
      25     1     1     2     0     0  4.008821131E+02 -8.379640887E+01 -3.854341344E+02  5.761187193E+02  1.250000000E+02  0.00000E+00  9.000E+00
      21     1     1     2   511   502 -1.785605612E+00  6.680735362E+00 -4.589803808E+00  8.299813936E+00  5.960464478E-08  0.00000E+00  9.000E+00
#rwgt            1           1   2.8133468518550163E-002           7      128196           0
</event>
<event>
      5   9999  3.19816E-02  5.09422E+02 -1.00000E+00  9.86222E-02
      21    -1     0     0   502   501  0.000000000E+00  0.000000000E+00  5.594292260E+02  5.594292260E+02  0.000000000E+00  0.00000E+00  9.000E+00
       1    -1     0     0   501     0  0.000000000E+00  0.000000000E+00 -2.062485165E+03  2.062485165E+03  0.000000000E+00  0.00000E+00  9.000E+00
      25     1     1     2     0     0 -1.595259402E+02  1.089108688E+02  3.618016320E+02  4.287604504E+02  1.250000000E+02  0.00000E+00  9.000E+00
      25     1     1     2     0     0 -3.228421127E+02  5.489300777E+01 -1.123177475E+02  3.680768241E+02  1.250000000E+02  0.00000E+00  9.000E+00
       1     1     1     2   502     0  4.823680529E+02 -1.638038766E+02 -1.752539824E+03  1.825077117E+03  2.157918644E-05  0.00000E+00  9.000E+00
#rwgt            2          12   1.9154328200332207E-003           7      128668           0
</event>
<event>
      5   9999  3.19816E-02  4.93536E+01 -1.00000E+00  1.39399E-01
      21    -1     0     0   511   501  0.000000000E+00  0.000000000E+00  2.014531682E+02  2.014531682E+02  0.000000000E+00  0.00000E+00  9.000E+00
      21    -1     0     0   501   502  0.000000000E+00  0.000000000E+00 -2.205183453E+02  2.205183453E+02  0.000000000E+00  0.00000E+00  9.000E+00
      25     1     1     2     0     0  2.871849049E+01  3.602257304E+01  1.672523012E+01  1.342650766E+02  1.250000000E+02  0.00000E+00  9.000E+00
      25     1     1     2     0     0 -5.871842772E+01  3.166487623E+00 -1.246468196E+02  1.860637257E+02  1.250000000E+02  0.00000E+00  9.000E+00
      21     1     1     2   511   502  2.999993722E+01 -3.918906066E+01  8.885641246E+01  1.016427112E+02  1.907348633E-06  0.00000E+00  9.000E+00
#rwgt            1           1   5.4868342861996072E-002           7      128702           0
</event>
<event>
      5   9999  3.19816E-02  8.63098E+01 -1.00000E+00  1.26774E-01
      21    -1     0     0   512   501  0.000000000E+00  0.000000000E+00  2.252031366E+03  2.252031366E+03  0.000000000E+00  0.00000E+00  9.000E+00
      21    -1     0     0   501   502  0.000000000E+00  0.000000000E+00 -4.274556351E+02  4.274556351E+02  0.000000000E+00  0.00000E+00  9.000E+00
      25     1     1     2     0     0  5.573618523E+02 -4.331727657E+02  1.024925328E+03  1.250754895E+03  1.250000000E+02  0.00000E+00  9.000E+00
      25     1     1     2     0     0 -6.334555061E+02  4.739053050E+02  2.035067327E+02  8.263728618E+02  1.250000000E+02  0.00000E+00  9.000E+00
      21     1     1     2   512   502  7.609365384E+01 -4.073253935E+01  5.961436695E+02  6.023592439E+02  0.000000000E+00  0.00000E+00  9.000E+00
#rwgt            1           1   2.9043157102038017E-002           7      128776           0
</event>
<event>
      5   9999  3.19816E-02  2.03668E+02 -1.00000E+00  1.11362E-01
       1    -1     0     0   502     0  0.000000000E+00  0.000000000E+00  1.865768878E+02  1.865768878E+02  0.000000000E+00  0.00000E+00  9.000E+00
      21    -1     0     0   501   502  0.000000000E+00  0.000000000E+00 -2.298197346E+03  2.298197346E+03  0.000000000E+00  0.00000E+00  9.000E+00
      25     1     1     2     0     0  2.787685258E+01 -1.054793132E+02 -4.402011511E+02  4.704307153E+02  1.250000000E+02  0.00000E+00  9.000E+00
      25     1     1     2     0     0 -9.461385581E+01  2.979023934E+02 -1.760247504E+03  1.792147844E+03  1.250000000E+02  0.00000E+00  9.000E+00
       1     1     1     2   501     0  6.673700323E+01 -1.924230803E+02  8.882819699E+01  2.221956750E+02  1.907348633E-06  0.00000E+00  9.000E+00
#rwgt            1           1   8.1238495434012778E-002           7      128871           0
</event>
<event>
      5   9999  3.19816E-02  1.32134E+02 -1.00000E+00  1.18619E-01
      21    -1     0     0   502   501  0.000000000E+00  0.000000000E+00  5.641475278E+02  5.641475278E+02  0.000000000E+00  0.00000E+00  9.000E+00
       2    -1     0     0   501     0  0.000000000E+00  0.000000000E+00 -2.146754616E+03  2.146754616E+03  0.000000000E+00  0.00000E+00  9.000E+00
      25     1     1     2     0     0  1.223094359E+02  7.991378781E+02 -5.978809307E+02  1.013246048E+03  1.250000000E+02  0.00000E+00  9.000E+00
      25     1     1     2     0     0 -2.064876335E+01 -7.147308980E+02 -2.231429463E+01  7.262159154E+02  1.250000000E+02  0.00000E+00  9.000E+00
       2     1     1     2   502     0 -1.016606726E+02 -8.440698005E+01 -9.624118624E+02  9.714401801E+02  1.868812365E-05  0.00000E+00  9.000E+00
#rwgt            1           1   2.9339394040515849E-002           7      128914           0
</event>
<event>
      5   9999  3.19816E-02  9.15150E+01 -1.00000E+00  1.25585E-01
       2    -1     0     0   502     0  0.000000000E+00  0.000000000E+00  1.307623092E+03  1.307623092E+03  0.000000000E+00  0.00000E+00  9.000E+00
      21    -1     0     0   501   502  0.000000000E+00  0.000000000E+00 -1.783573596E+03  1.783573596E+03  0.000000000E+00  0.00000E+00  9.000E+00
      25     1     1     2     0     0 -3.523072601E+01 -2.039733301E+02 -1.684947244E+03  1.702209899E+03  1.250000000E+02  0.00000E+00  9.000E+00
      25     1     1     2     0     0  6.812219547E+01  2.893732980E+02  2.078629931E+02  3.836789843E+02  1.250000000E+02  0.00000E+00  9.000E+00
       2     1     1     2   501     0 -3.289146946E+01 -8.539996791E+01  1.001133747E+03  1.005307805E+03  1.078959322E-05  0.00000E+00  9.000E+00
#rwgt            1           1   3.0812644964333221E-002           7      128991           0
</event>
<event>
      5   9999  3.19816E-02  5.58122E+01 -1.00000E+00  1.36404E-01
      21    -1     0     0   502   511  0.000000000E+00  0.000000000E+00  2.446076598E+02  2.446076598E+02  0.000000000E+00  0.00000E+00  9.000E+00
      21    -1     0     0   501   502  0.000000000E+00  0.000000000E+00 -2.914270563E+03  2.914270563E+03  0.000000000E+00  0.00000E+00  9.000E+00
      25     1     1     2     0     0 -3.297800155E+02 -4.807122083E+02 -1.205238307E+03  1.344642504E+03  1.250000000E+02  0.00000E+00  9.000E+00
      25     1     1     2     0     0  3.124091818E+02  5.337523437E+02 -1.571527892E+03  1.693462718E+03  1.250000000E+02  0.00000E+00  9.000E+00
      21     1     1     2   501   511  1.737083374E+01 -5.304013540E+01  1.071032959E+02  1.207730012E+02  1.907348633E-06  0.00000E+00  9.000E+00
#rwgt            1           1   6.6600813685185334E-002           7      129107           0
</event>
<event>
      5   9999  3.19816E-02  6.86274E+01 -1.00000E+00  1.31658E-01
      21    -1     0     0   502   501  0.000000000E+00  0.000000000E+00  3.310890178E+02  3.310890178E+02  0.000000000E+00  0.00000E+00  9.000E+00
      21    -1     0     0   501   512  0.000000000E+00  0.000000000E+00 -1.216766381E+03  1.216766381E+03  0.000000000E+00  0.00000E+00  9.000E+00
      25     1     1     2     0     0  2.106756363E+02 -6.266967468E+01  2.561649686E+02  3.599405548E+02  1.250000000E+02  0.00000E+00  9.000E+00
      25     1     1     2     0     0 -2.165569096E+02 -5.705257547E+00 -7.641892800E+02  8.040769246E+02  1.250000000E+02  0.00000E+00  9.000E+00
      21     1     1     2   502   512  5.881273297E+00  6.837493223E+01 -3.776530518E+02  3.838379192E+02  7.629394531E-06  0.00000E+00  9.000E+00
#rwgt            1           1   2.9530675960264277E-002           7      129255           0
</event>
<event>
      5   9999  3.19816E-02  4.85872E+01 -1.00000E+00  1.39789E-01
      21    -1     0     0   502   501  0.000000000E+00  0.000000000E+00  3.145028636E+02  3.145028636E+02  0.000000000E+00  0.00000E+00  9.000E+00
      21    -1     0     0   511   502  0.000000000E+00  0.000000000E+00 -3.420061675E+02  3.420061675E+02  0.000000000E+00  0.00000E+00  9.000E+00
      25     1     1     2     0     0 -1.290738116E+02 -1.782947469E+02  1.273773013E+02  2.833708568E+02  1.250000000E+02  0.00000E+00  9.000E+00
      25     1     1     2     0     0  1.740775000E+02  1.966082719E+02 -1.302791938E+02  3.186776693E+02  1.250000000E+02  0.00000E+00  9.000E+00
      21     1     1     2   511   501 -4.500368837E+01 -1.831352502E+01 -2.460141135E+01  5.446050501E+01  5.840038640E-07  0.00000E+00  9.000E+00
#rwgt            1           1   2.7758641475471808E-002           7      129362           0
</event>
<event>
      5   9999  3.19816E-02  3.49041E+01 -1.00000E+00  1.48609E-01
      21    -1     0     0   502   501  0.000000000E+00  0.000000000E+00  2.805577611E+02  2.805577611E+02  0.000000000E+00  0.00000E+00  9.000E+00
      21    -1     0     0   512   502  0.000000000E+00  0.000000000E+00 -1.973177013E+02  1.973177013E+02  0.000000000E+00  0.00000E+00  9.000E+00
      25     1     1     2     0     0  1.521527889E+02  4.004765465E+01  2.446618910E+01  2.024299390E+02  1.250000000E+02  0.00000E+00  9.000E+00
      25     1     1     2     0     0 -1.553493933E+02 -7.480508222E+01  8.750050687E+01  2.302402506E+02  1.250000000E+02  0.00000E+00  9.000E+00
      21     1     1     2   512   501  3.196604357E+00  3.475742757E+01 -2.872663614E+01  4.520527264E+01  8.920806376E-07  0.00000E+00  9.000E+00
#rwgt            1           1   2.9296412341222280E-002           7      129466           0
</event>
<event>
      5   9999  3.19816E-02  4.72846E+01 -1.00000E+00  1.40473E-01
      21    -1     0     0   502   501  0.000000000E+00  0.000000000E+00  1.983974161E+03  1.983974161E+03  0.000000000E+00  0.00000E+00  9.000E+00
      21    -1     0     0   511   502  0.000000000E+00  0.000000000E+00 -3.726132031E+01  3.726132031E+01  0.000000000E+00  0.00000E+00  9.000E+00
      25     1     1     2     0     0  9.358411839E+01  4.242153419E+01  7.810865525E+02  7.976708445E+02  1.250000000E+02  0.00000E+00  9.000E+00
      25     1     1     2     0     0 -1.309264498E+02 -1.341491689E+01  1.162054718E+03  1.176145340E+03  1.250000000E+02  0.00000E+00  9.000E+00
      21     1     1     2   511   501  3.734233140E+01 -2.900661730E+01  3.571570837E+00  4.741929649E+01  9.821210535E-07  0.00000E+00  9.000E+00
#rwgt            1           1   6.5327948204398800E-002           7      129556           0
</event>
<event>
      5   9999  3.19816E-02  2.86701E+02 -1.00000E+00  1.06236E-01
      21    -1     0     0   502   512  0.000000000E+00  0.000000000E+00  1.103584601E+03  1.103584601E+03  0.000000000E+00  0.00000E+00  9.000E+00
      21    -1     0     0   501   502  0.000000000E+00  0.000000000E+00 -4.298365862E+02  4.298365862E+02  0.000000000E+00  0.00000E+00  9.000E+00
      25     1     1     2     0     0 -3.288804961E+02  1.622881336E+02 -1.413274268E+02  4.124297038E+02  1.250000000E+02  0.00000E+00  9.000E+00
      25     1     1     2     0     0  1.503039919E+02 -3.865817622E+02  2.855865718E+02  5.188655306E+02  1.250000000E+02  0.00000E+00  9.000E+00
      21     1     1     2   501   512  1.785765042E+02  2.242936286E+02  5.294888699E+02  6.021259527E+02  7.629394531E-06  0.00000E+00  9.000E+00
#rwgt            2          11   2.4445373907821645E-003           7      129648           0
</event>
<event>
      5   9999  3.19816E-02  4.11971E+01 -1.00000E+00  1.44050E-01
      21    -1     0     0   502   501  0.000000000E+00  0.000000000E+00  4.437436340E+02  4.437436340E+02  0.000000000E+00  0.00000E+00  9.000E+00
      21    -1     0     0   511   502  0.000000000E+00  0.000000000E+00 -9.595377622E+01  9.595377622E+01  0.000000000E+00  0.00000E+00  9.000E+00
      25     1     1     2     0     0  8.339768778E+01  8.743162574E+01  6.283574259E+01  1.848588490E+02  1.250000000E+02  0.00000E+00  9.000E+00
      25     1     1     2     0     0 -4.412362631E+01 -7.499173192E+01  2.718533421E+02  3.116085587E+02  1.250000000E+02  0.00000E+00  9.000E+00
      21     1     1     2   511   501 -3.927406147E+01 -1.243989382E+01  1.310077311E+01  4.323000253E+01  6.529361695E-07  0.00000E+00  9.000E+00
#rwgt            1           1   2.4971178597264766E-002           7      129668           0
</event>
<event>
      5   9999  3.19816E-02  5.88097E+01 -1.00000E+00  1.35170E-01
      21    -1     0     0   502   501  0.000000000E+00  0.000000000E+00  6.182977658E+01  6.182977658E+01  0.000000000E+00  0.00000E+00  9.000E+00
       2    -1     0     0   501     0  0.000000000E+00  0.000000000E+00 -1.718474419E+03  1.718474419E+03  0.000000000E+00  0.00000E+00  9.000E+00
      25     1     1     2     0     0 -8.857866025E+01  1.640570628E+02 -4.160040746E+02  4.726999990E+02  1.250000000E+02  0.00000E+00  9.000E+00
      25     1     1     2     0     0  7.077567786E+01 -2.201073998E+02 -5.021613460E+02  5.667869806E+02  1.250000000E+02  0.00000E+00  9.000E+00
       2     1     1     2   502     0  1.780298240E+01  5.605033693E+01 -7.384792223E+02  7.408172164E+02  0.000000000E+00  0.00000E+00  9.000E+00
#rwgt            1           1   2.7262199330633965E-002           7      129746           0
</event>
<event>
      5   9999  3.19816E-02  6.15172E+01 -1.00000E+00  1.34126E-01
      21    -1     0     0   502   501  0.000000000E+00  0.000000000E+00  1.139190701E+03  1.139190701E+03  0.000000000E+00  0.00000E+00  9.000E+00
      21    -1     0     0   511   502  0.000000000E+00  0.000000000E+00 -2.352671574E+02  2.352671574E+02  0.000000000E+00  0.00000E+00  9.000E+00
      25     1     1     2     0     0 -2.823873570E+02  2.356478531E+02  8.193539093E+02  9.067735984E+02  1.250000000E+02  0.00000E+00  9.000E+00
      25     1     1     2     0     0  3.211053313E+02 -1.878432438E+02  9.846785756E+01  4.046166544E+02  1.250000000E+02  0.00000E+00  9.000E+00
      21     1     1     2   511   501 -3.871797437E+01 -4.780460926E+01 -1.389822370E+01  6.306760522E+01  1.685873940E-07  0.00000E+00  9.000E+00
#rwgt            1           1   3.0647383732577537E-002           7      129823           0
</event>
<event>
      5   9999  3.19816E-02  3.18518E+02 -1.00000E+00  1.04754E-01
      21    -1     0     0   502   501  0.000000000E+00  0.000000000E+00  3.871738280E+03  3.871738280E+03  0.000000000E+00  0.00000E+00  9.000E+00
      -3    -1     0     0     0   502  0.000000000E+00  0.000000000E+00 -7.429540739E+01  7.429540739E+01  0.000000000E+00  0.00000E+00  9.000E+00
      25     1     1     2     0     0 -4.280209708E+01 -1.191882674E+02  1.667201819E+03  1.676670739E+03  1.250000000E+02  0.00000E+00  9.000E+00
      25     1     1     2     0     0  3.284634031E+02  2.600824511E+02  9.311201322E+02  1.028659705E+03  1.250000000E+02  0.00000E+00  9.000E+00
      -3     1     1     2     0   501 -2.856613061E+02 -1.408941837E+02  1.199120921E+03  1.240703243E+03  2.157918644E-05  0.00000E+00  9.000E+00
#rwgt            2           8   9.3182468345749332E-006           7      129920           0
</event>
<event>
      5   9999  3.19816E-02  1.59523E+02 -1.00000E+00  1.15344E-01
      21    -1     0     0   502   501  0.000000000E+00  0.000000000E+00  2.262077959E+03  2.262077959E+03  0.000000000E+00  0.00000E+00  9.000E+00
      21    -1     0     0   511   502  0.000000000E+00  0.000000000E+00 -5.384032970E+02  5.384032970E+02  0.000000000E+00  0.00000E+00  9.000E+00
      25     1     1     2     0     0  1.936845278E+02 -1.917205108E+02 -2.345790806E+02  3.806872674E+02  1.250000000E+02  0.00000E+00  9.000E+00
      25     1     1     2     0     0 -1.625136960E+02  3.481681559E+02  2.140091794E+03  2.177900285E+03  1.250000000E+02  0.00000E+00  9.000E+00
      21     1     1     2   511   501 -3.117083175E+01 -1.564476451E+02 -1.818380517E+02  2.418937028E+02  0.000000000E+00  0.00000E+00  9.000E+00
#rwgt            1           1   3.5418976914161557E-002           7      129954           0
</event>
<event>
      5   9999  3.19816E-02  2.44396E+01 -1.00000E+00  1.59492E-01
      21    -1     0     0   502   501  0.000000000E+00  0.000000000E+00  2.492797006E+02  2.492797006E+02  0.000000000E+00  0.00000E+00  9.000E+00
      21    -1     0     0   501   512  0.000000000E+00  0.000000000E+00 -3.551637359E+02  3.551637359E+02  0.000000000E+00  0.00000E+00  9.000E+00
      25     1     1     2     0     0 -2.432383619E+01  1.009791100E+02  1.954279237E+02  2.541761260E+02  1.250000000E+02  0.00000E+00  9.000E+00
      25     1     1     2     0     0  3.696614141E+01 -8.006337082E+01 -2.443751955E+02  2.883069114E+02  1.250000000E+02  0.00000E+00  9.000E+00
      21     1     1     2   502   512 -1.264230522E+01 -2.091573914E+01 -5.693676353E+01  6.196039918E+01  6.743495762E-07  0.00000E+00  9.000E+00
#rwgt            1           1   2.7550687871526872E-002           7      130051           0
</event>
<event>
      5   9999  3.19816E-02  1.78419E+02 -1.00000E+00  1.13484E-01
      21    -1     0     0   511   501  0.000000000E+00  0.000000000E+00  2.781679747E+02  2.781679747E+02  0.000000000E+00  0.00000E+00  9.000E+00
      21    -1     0     0   501   502  0.000000000E+00  0.000000000E+00 -2.960110706E+02  2.960110706E+02  0.000000000E+00  0.00000E+00  9.000E+00
      25     1     1     2     0     0  1.038905030E+02  1.430206545E+02 -5.640000978E+01  2.237277482E+02  1.250000000E+02  0.00000E+00  9.000E+00
      25     1     1     2     0     0  3.741669845E+01 -3.409048297E+01 -5.888758211E+01  1.471560997E+02  1.250000000E+02  0.00000E+00  9.000E+00
      21     1     1     2   511   502 -1.413072015E+02 -1.089301715E+02  9.744449603E+01  2.032951973E+02  3.015782986E-06  0.00000E+00  9.000E+00
#rwgt            1           1   4.9322943229211165E-002           7      130226           0
</event>
<event>
      5   9999  3.19816E-02  2.95129E+01 -1.00000E+00  1.53535E-01
      21    -1     0     0   502   512  0.000000000E+00  0.000000000E+00  8.493227047E+02  8.493227047E+02  0.000000000E+00  0.00000E+00  9.000E+00
      21    -1     0     0   501   502  0.000000000E+00  0.000000000E+00 -1.576936273E+02  1.576936273E+02  0.000000000E+00  0.00000E+00  9.000E+00
      25     1     1     2     0     0  2.602368611E+02  7.607710046E+01  9.719811984E+01  3.139799732E+02  1.250000000E+02  0.00000E+00  9.000E+00
      25     1     1     2     0     0 -2.896301024E+02 -7.342222368E+01  5.656455490E+02  6.518100231E+02  1.250000000E+02  0.00000E+00  9.000E+00
      21     1     1     2   501   512  2.939324127E+01 -2.654876775E+00  2.878540854E+01  4.122633561E+01  4.768371582E-07  0.00000E+00  9.000E+00
#rwgt            1           1   2.7964736848902130E-002           7      130303           0
</event>
<event>
      5   9999  3.19816E-02  4.23653E+01 -1.00000E+00  1.43310E-01
      -2    -1     0     0     0   501  0.000000000E+00  0.000000000E+00  6.849932207E+02  6.849932207E+02  0.000000000E+00  0.00000E+00  9.000E+00
      21    -1     0     0   501   502  0.000000000E+00  0.000000000E+00 -1.653118968E+03  1.653118968E+03  0.000000000E+00  0.00000E+00  9.000E+00
      25     1     1     2     0     0 -3.674848415E+02 -3.403386525E+02 -3.074592049E+02  6.008591097E+02  1.250000000E+02  0.00000E+00  9.000E+00
      25     1     1     2     0     0  3.855022080E+02  3.786817377E+02 -1.133816086E+03  1.262210651E+03  1.250000000E+02  0.00000E+00  9.000E+00
      -2     1     1     2     0   502 -1.801736652E+01 -3.834308516E+01  4.731495436E+02  4.750424279E+02  1.078959322E-05  0.00000E+00  9.000E+00
#rwgt            1           1   2.9375819617937723E-002           7      130452           0
</event>
<event>
      5   9999  3.19816E-02  9.10639E+01 -1.00000E+00  1.25684E-01
      21    -1     0     0   511   501  0.000000000E+00  0.000000000E+00  2.111219019E+02  2.111219019E+02  0.000000000E+00  0.00000E+00  9.000E+00
      21    -1     0     0   501   502  0.000000000E+00  0.000000000E+00 -2.869190767E+03  2.869190767E+03  0.000000000E+00  0.00000E+00  9.000E+00
      25     1     1     2     0     0  3.029804901E+02  4.378356537E+02 -4.775232544E+02  7.260514413E+02  1.250000000E+02  0.00000E+00  9.000E+00
      25     1     1     2     0     0 -2.919780595E+02 -5.282324634E+02 -2.177599765E+03  2.263149677E+03  1.250000000E+02  0.00000E+00  9.000E+00
      21     1     1     2   511   502 -1.100243057E+01  9.039680967E+01 -2.945845717E+00  9.111155077E+01  2.116594422E-06  0.00000E+00  9.000E+00
#rwgt            2          11   1.5110718847727364E-002           7      130600           0
</event>
<event>
      5   9999  3.19816E-02  1.21161E+02 -1.00000E+00  1.20191E-01
      21    -1     0     0   512   501  0.000000000E+00  0.000000000E+00  1.675668639E+02  1.675668639E+02  0.000000000E+00  0.00000E+00  9.000E+00
      21    -1     0     0   501   502  0.000000000E+00  0.000000000E+00 -9.436572797E+02  9.436572797E+02  0.000000000E+00  0.00000E+00  9.000E+00
      25     1     1     2     0     0 -1.412100032E+02 -2.894869040E+02 -4.472195792E+02  5.651312101E+02  1.250000000E+02  0.00000E+00  9.000E+00
      25     1     1     2     0     0  2.305209217E+01  2.626783731E+02 -3.059141133E+02  4.227762663E+02  1.250000000E+02  0.00000E+00  9.000E+00
      21     1     1     2   512   502  1.181579110E+02  2.680853093E+01 -2.295672335E+01  1.233166672E+02  2.407909617E-06  0.00000E+00  9.000E+00
#rwgt            2          11   3.5118396777923415E-003           7      130770           0
</event>
<event>
      5   9999  3.19816E-02  2.58822E+01 -1.00000E+00  1.57631E-01
      21    -1     0     0   502   501  0.000000000E+00  0.000000000E+00  3.884262067E+01  3.884262067E+01  0.000000000E+00  0.00000E+00  9.000E+00
      21    -1     0     0   511   502  0.000000000E+00  0.000000000E+00 -3.237832571E+03  3.237832571E+03  0.000000000E+00  0.00000E+00  9.000E+00
      25     1     1     2     0     0  2.207714175E+02  1.467726082E+02 -7.657206368E+02  8.198995737E+02  1.250000000E+02  0.00000E+00  9.000E+00
      25     1     1     2     0     0 -2.306196547E+02 -1.707079071E+02 -2.224783021E+03  2.246688921E+03  1.250000000E+02  0.00000E+00  9.000E+00
      21     1     1     2   511   501  9.848237155E+00  2.393529883E+01 -2.084862919E+02  2.100866969E+02  2.697398305E-06  0.00000E+00  9.000E+00
#rwgt            1           1   3.3680412383700092E-002           7      130805           0
</event>
<event>
      5   9999  3.19816E-02  3.82037E+01 -1.00000E+00  1.46089E-01
      -1    -1     0     0     0   501  0.000000000E+00  0.000000000E+00  8.743038526E+01  8.743038526E+01  0.000000000E+00  0.00000E+00  9.000E+00
      21    -1     0     0   501   502  0.000000000E+00  0.000000000E+00 -1.804189643E+03  1.804189643E+03  0.000000000E+00  0.00000E+00  9.000E+00
      25     1     1     2     0     0 -2.246859658E+02  6.962737652E+01 -3.446569349E+02  4.355974720E+02  1.250000000E+02  0.00000E+00  9.000E+00
      25     1     1     2     0     0  1.868164878E+02 -7.467002214E+01 -1.392646834E+03  1.412645113E+03  1.250000000E+02  0.00000E+00  9.000E+00
      -1     1     1     2     0   502  3.786947800E+01  5.042645620E+00  2.054451092E+01  4.337744308E+01  8.920806376E-07  0.00000E+00  9.000E+00
#rwgt            1           1   3.2013695497746603E-002           7      130933           0
</event>
<event>
      5   9999  3.19816E-02  3.03381E+01 -1.00000E+00  1.52703E-01
      21    -1     0     0   502   501  0.000000000E+00  0.000000000E+00  7.140185147E+02  7.140185147E+02  0.000000000E+00  0.00000E+00  9.000E+00
      21    -1     0     0   511   502  0.000000000E+00  0.000000000E+00 -1.311752950E+02  1.311752950E+02  0.000000000E+00  0.00000E+00  9.000E+00
      25     1     1     2     0     0 -1.727801552E+02 -3.316551573E+00  5.465491919E+02  5.866898676E+02  1.250000000E+02  0.00000E+00  9.000E+00
      25     1     1     2     0     0  1.835638888E+02  3.167337568E+01  2.342624020E+01  2.255497566E+02  1.250000000E+02  0.00000E+00  9.000E+00
      21     1     1     2   511   501 -1.078373360E+01 -2.835682411E+01  1.286778764E+01  3.295418550E+01  6.078504936E-07  0.00000E+00  9.000E+00
#rwgt            1           1   2.7749861750670402E-002           7      131024           0
</event>
<event>
      5   9999  3.19816E-02  1.90825E+02 -1.00000E+00  1.12396E-01
      21    -1     0     0   502   501  0.000000000E+00  0.000000000E+00  9.541158998E+01  9.541158998E+01  0.000000000E+00  0.00000E+00  9.000E+00
      21    -1     0     0   501   512  0.000000000E+00  0.000000000E+00 -1.927782629E+03  1.927782629E+03  0.000000000E+00  0.00000E+00  9.000E+00
      25     1     1     2     0     0  1.214386359E+02 -9.555737187E+01 -7.494697824E+02  7.753763656E+02  1.250000000E+02  0.00000E+00  9.000E+00
      25     1     1     2     0     0  3.558252592E+01  2.039942027E+02 -1.272641877E+02  2.733146984E+02  1.250000000E+02  0.00000E+00  9.000E+00
      21     1     1     2   502   512 -1.570211618E+02 -1.084368308E+02 -9.556370686E+02  9.745031547E+02  1.868812365E-05  0.00000E+00  9.000E+00
#rwgt            1           1   3.0109907246897088E-002           7      131196           0
</event>
<event>
      5   9999  3.19816E-02  1.64081E+02 -1.00000E+00  1.14870E-01
      21    -1     0     0   502   501  0.000000000E+00  0.000000000E+00  7.215217349E+02  7.215217349E+02  0.000000000E+00  0.00000E+00  9.000E+00
       2    -1     0     0   501     0  0.000000000E+00  0.000000000E+00 -1.464541766E+02  1.464541766E+02  0.000000000E+00  0.00000E+00  9.000E+00
      25     1     1     2     0     0 -8.145063530E+00  9.544619958E+01  3.141985950E+02  3.514570759E+02  1.250000000E+02  0.00000E+00  9.000E+00
      25     1     1     2     0     0  1.679904648E+02 -1.324878955E+02  2.501324391E+02  3.520867448E+02  1.250000000E+02  0.00000E+00  9.000E+00
       2     1     1     2   502     0 -1.598454013E+02  3.704169588E+01  1.073652408E+01  1.644320909E+02  1.955177720E-06  0.00000E+00  9.000E+00
#rwgt            1           1   3.3823858902673934E-002           7      131244           0
</event>
<event>
      5   9999  3.19816E-02  2.06127E+02 -1.00000E+00  1.11173E-01
      21    -1     0     0   502   501  0.000000000E+00  0.000000000E+00  2.548052610E+02  2.548052610E+02  0.000000000E+00  0.00000E+00  9.000E+00
      21    -1     0     0   511   502  0.000000000E+00  0.000000000E+00 -7.712215050E+02  7.712215050E+02  0.000000000E+00  0.00000E+00  9.000E+00
      25     1     1     2     0     0  1.533583291E+02  3.349375182E+01 -1.464306645E+02  2.484100401E+02  1.250000000E+02  0.00000E+00  9.000E+00
      25     1     1     2     0     0 -1.016065191E+01 -1.817591542E+02  1.162048196E+02  2.495359475E+02  1.250000000E+02  0.00000E+00  9.000E+00
      21     1     1     2   511   501 -1.431976772E+02  1.482654024E+02 -4.861903990E+02  5.280807783E+02  9.344061824E-06  0.00000E+00  9.000E+00
#rwgt            1           1   2.7597614916061379E-002           7      131297           0
</event>
<event>
      5   9999  3.19816E-02  1.77542E+01 -1.00000E+00  1.70753E-01
      21    -1     0     0   502   512  0.000000000E+00  0.000000000E+00  6.518722605E+02  6.518722605E+02  0.000000000E+00  0.00000E+00  9.000E+00
      21    -1     0     0   501   502  0.000000000E+00  0.000000000E+00 -1.564451310E+02  1.564451310E+02  0.000000000E+00  0.00000E+00  9.000E+00
      25     1     1     2     0     0 -2.146752485E+02 -6.433632194E+01  2.163408276E+02  3.356381657E+02  1.250000000E+02  0.00000E+00  9.000E+00
      25     1     1     2     0     0  2.285883441E+02  7.536530931E+01  9.444877295E+01  2.871900618E+02  1.250000000E+02  0.00000E+00  9.000E+00
      21     1     1     2   501   512 -1.391309557E+01 -1.102898737E+01  1.846375290E+02  1.854891639E+02  0.000000000E+00  0.00000E+00  9.000E+00
#rwgt            1           1   3.4546907824385333E-002           7      131350           0
</event>
<event>
      5   9999  3.19816E-02  1.23711E+02 -1.00000E+00  1.19809E-01
      21    -1     0     0   502   501  0.000000000E+00  0.000000000E+00  1.511823209E+03  1.511823209E+03  0.000000000E+00  0.00000E+00  9.000E+00
      21    -1     0     0   501   511  0.000000000E+00  0.000000000E+00 -6.376235045E+02  6.376235045E+02  0.000000000E+00  0.00000E+00  9.000E+00
      25     1     1     2     0     0 -8.284402346E+02  3.314285215E+02  2.647094500E+02  9.390709133E+02  1.250000000E+02  0.00000E+00  9.000E+00
      25     1     1     2     0     0  8.702468513E+02 -2.149953443E+02  6.008372770E+02  1.086362285E+03  1.250000000E+02  0.00000E+00  9.000E+00
      21     1     1     2   502   511 -4.180661670E+01 -1.164331772E+02  8.652977168E+00  1.240135153E+02  2.068203875E-06  0.00000E+00  9.000E+00
#rwgt            1           1   2.7338006581738301E-002           7      131483           0
</event>
<event>
      5   9999  3.19816E-02  9.90991E+01 -1.00000E+00  1.24005E-01
      21    -1     0     0   502   501  0.000000000E+00  0.000000000E+00  6.255895149E+02  6.255895149E+02  0.000000000E+00  0.00000E+00  9.000E+00
      21    -1     0     0   512   502  0.000000000E+00  0.000000000E+00 -1.189967492E+03  1.189967492E+03  0.000000000E+00  0.00000E+00  9.000E+00
      25     1     1     2     0     0 -2.853095599E+02 -1.122368755E+02 -4.168264462E+02  5.323231607E+02  1.250000000E+02  0.00000E+00  9.000E+00
      25     1     1     2     0     0  3.774160552E+02  7.567151306E+01  4.914206706E+02  6.366225979E+02  1.250000000E+02  0.00000E+00  9.000E+00
      21     1     1     2   512   501 -9.210649527E+01  3.656536244E+01 -6.389722020E+02  6.466112488E+02  7.629394531E-06  0.00000E+00  9.000E+00
#rwgt            1           1   2.2081813329076286E-002           7      131610           0
</event>
<event>
      5   9999  3.19816E-02  3.45241E+01 -1.00000E+00  1.48920E-01
      21    -1     0     0   502   501  0.000000000E+00  0.000000000E+00  3.712058393E+02  3.712058393E+02  0.000000000E+00  0.00000E+00  9.000E+00
      21    -1     0     0   501   511  0.000000000E+00  0.000000000E+00 -1.819673989E+03  1.819673989E+03  0.000000000E+00  0.00000E+00  9.000E+00
      25     1     1     2     0     0  3.690019621E+02  4.414312929E+02 -5.969373293E+01  5.917874417E+02  1.250000000E+02  0.00000E+00  9.000E+00
      25     1     1     2     0     0 -3.804781554E+02 -4.739921406E+02 -8.153185346E+02  1.024598209E+03  1.250000000E+02  0.00000E+00  9.000E+00
      21     1     1     2   502   511  1.147619328E+01  3.256084770E+01 -5.734558821E+02  5.744941779E+02  7.629394531E-06  0.00000E+00  9.000E+00
#rwgt            1           1   3.1170658759183890E-002           7      131728           0
</event>
<event>
      5   9999  3.19816E-02  1.55389E+02 -1.00000E+00  1.15789E-01
      21    -1     0     0   502   501  0.000000000E+00  0.000000000E+00  1.126519777E+03  1.126519777E+03  0.000000000E+00  0.00000E+00  9.000E+00
      21    -1     0     0   501   512  0.000000000E+00  0.000000000E+00 -2.439668812E+02  2.439668812E+02  0.000000000E+00  0.00000E+00  9.000E+00
      25     1     1     2     0     0  1.447763213E+02  3.190977126E+02  7.592677837E+02  8.455152871E+02  1.250000000E+02  0.00000E+00  9.000E+00
      25     1     1     2     0     0 -2.512314750E+02 -2.059036900E+02  4.490683182E+01  3.509347619E+02  1.250000000E+02  0.00000E+00  9.000E+00
      21     1     1     2   502   512  1.064551537E+02 -1.131940226E+02  7.837828037E+01  1.740366092E+02  3.162979880E-06  0.00000E+00  9.000E+00
#rwgt            1           1   2.9484917871933792E-002           7      131910           0
</event>
<event>
      5   9999  3.19816E-02  9.74970E+01 -1.00000E+00  1.24325E-01
       2    -1     0     0   502     0  0.000000000E+00  0.000000000E+00  7.199662366E+02  7.199662366E+02  0.000000000E+00  0.00000E+00  9.000E+00
      21    -1     0     0   501   502  0.000000000E+00  0.000000000E+00 -2.452972292E+02  2.452972292E+02  0.000000000E+00  0.00000E+00  9.000E+00
      25     1     1     2     0     0 -1.903065947E+02  3.981355399E+01 -9.622538566E+01  2.503718114E+02  1.250000000E+02  0.00000E+00  9.000E+00
      25     1     1     2     0     0  2.634975850E+02 -1.042243500E+02  3.181875431E+02  4.440292839E+02  1.250000000E+02  0.00000E+00  9.000E+00
       2     1     1     2   501     0 -7.319099022E+01  6.441079603E+01  2.527068500E+02  2.708623705E+02  2.697398305E-06  0.00000E+00  9.000E+00
#rwgt            2          18   2.6224292050030558E-004           7      132331           0
</event>
<event>
      5   9999  3.19816E-02  3.65732E+01 -1.00000E+00  1.47294E-01
      21    -1     0     0   502   501  0.000000000E+00  0.000000000E+00  5.183379879E+02  5.183379879E+02  0.000000000E+00  0.00000E+00  9.000E+00
      21    -1     0     0   511   502  0.000000000E+00  0.000000000E+00 -2.195462199E+02  2.195462199E+02  0.000000000E+00  0.00000E+00  9.000E+00
      25     1     1     2     0     0 -2.749692307E+02 -8.085560503E+01  2.242666487E+02  3.847937583E+02  1.250000000E+02  0.00000E+00  9.000E+00
      25     1     1     2     0     0  2.548295289E+02  5.032701708E+01  1.036555951E+02  3.063337719E+02  1.250000000E+02  0.00000E+00  9.000E+00
      21     1     1     2   511   501  2.013970180E+01  3.052858795E+01 -2.913047582E+01  4.675667752E+01  1.066240300E-06  0.00000E+00  9.000E+00
#rwgt            1           1   2.8211566008920500E-002           7      132350           0
</event>
<event>
      5   9999  3.19816E-02  1.03209E+02 -1.00000E+00  1.23214E-01
      21    -1     0     0   502   501  0.000000000E+00  0.000000000E+00  8.795767662E+02  8.795767662E+02  0.000000000E+00  0.00000E+00  9.000E+00
      21    -1     0     0   501   512  0.000000000E+00  0.000000000E+00 -6.639015323E+02  6.639015323E+02  0.000000000E+00  0.00000E+00  9.000E+00
      25     1     1     2     0     0  6.097670992E+02  1.123194345E+02  4.569832934E+02  7.803142323E+02  1.250000000E+02  0.00000E+00  9.000E+00
      25     1     1     2     0     0 -5.384989189E+02 -1.869722534E+02 -1.062298736E+02  5.931690276E+02  1.250000000E+02  0.00000E+00  9.000E+00
      21     1     1     2   502   512 -7.126818030E+01  7.465281893E+01 -1.350781859E+02  1.699950387E+02  0.000000000E+00  0.00000E+00  9.000E+00
#rwgt            1           1   2.9648054899976250E-002           7      132529           0
</event>
<event>
      5   9999  3.19816E-02  1.37285E+02 -1.00000E+00  1.17939E-01
      21    -1     0     0   502   501  0.000000000E+00  0.000000000E+00  4.269336328E+02  4.269336328E+02  0.000000000E+00  0.00000E+00  9.000E+00
       2    -1     0     0   501     0  0.000000000E+00  0.000000000E+00 -1.936195290E+03  1.936195290E+03  0.000000000E+00  0.00000E+00  9.000E+00
      25     1     1     2     0     0  4.755439676E+02  3.908298391E+02 -5.473885283E+02  8.331561853E+02  1.250000000E+02  0.00000E+00  9.000E+00
      25     1     1     2     0     0 -5.708905989E+02 -2.920564531E+02 -1.044458809E+02  6.616245081E+02  1.250000000E+02  0.00000E+00  9.000E+00
       2     1     1     2   502     0  9.534663130E+01 -9.877338593E+01 -8.574272484E+02  8.683482298E+02  1.525878906E-05  0.00000E+00  9.000E+00
#rwgt            1           1   3.0938882224416975E-002           7      132632           0
</event>
<event>
      5   9999  3.19816E-02  1.78313E+02 -1.00000E+00  1.13493E-01
      21    -1     0     0   511   501  0.000000000E+00  0.000000000E+00  1.134756640E+03  1.134756640E+03  0.000000000E+00  0.00000E+00  9.000E+00
      21    -1     0     0   501   502  0.000000000E+00  0.000000000E+00 -3.017202330E+02  3.017202330E+02  0.000000000E+00  0.00000E+00  9.000E+00
      25     1     1     2     0     0 -1.374050052E+00  3.829855298E+02  3.780254495E+02  5.524563734E+02  1.250000000E+02  0.00000E+00  9.000E+00
      25     1     1     2     0     0 -1.398563629E+02 -4.918404555E+02  1.801147747E+02  5.563570508E+02  1.250000000E+02  0.00000E+00  9.000E+00
      21     1     1     2   511   502  1.412304129E+02  1.088549258E+02  2.748961828E+02  3.276634488E+02  6.607249480E-06  0.00000E+00  9.000E+00
#rwgt            2          11   3.6377029742629364E-003           7      133091           0
</event>
<event>
      5   9999  3.19816E-02  1.26547E+02 -1.00000E+00  1.19397E-01
      21    -1     0     0   502   501  0.000000000E+00  0.000000000E+00  3.242236139E+02  3.242236139E+02  0.000000000E+00  0.00000E+00  9.000E+00
      21    -1     0     0   512   502  0.000000000E+00  0.000000000E+00 -5.969196230E+02  5.969196230E+02  0.000000000E+00  0.00000E+00  9.000E+00
      25     1     1     2     0     0 -1.709570936E+02  1.623900846E+02 -3.176534381E+02  4.148801926E+02  1.250000000E+02  0.00000E+00  9.000E+00
      25     1     1     2     0     0  1.453609807E+02 -3.845898780E+01  2.173814179E+02  2.923843178E+02  1.250000000E+02  0.00000E+00  9.000E+00
      21     1     1     2   512   501  2.559611283E+01 -1.239310968E+02 -1.724239889E+02  2.138787266E+02  3.814697266E-06  0.00000E+00  9.000E+00
#rwgt            1           1   2.8046207762909291E-002           7      133111           0
</event>
<event>
      5   9999  3.19816E-02  1.72476E+01 -1.00000E+00  1.71855E-01
      21    -1     0     0   502   501  0.000000000E+00  0.000000000E+00  2.022797523E+02  2.022797523E+02  0.000000000E+00  0.00000E+00  9.000E+00
      21    -1     0     0   501   511  0.000000000E+00  0.000000000E+00 -8.193284875E+02  8.193284875E+02  0.000000000E+00  0.00000E+00  9.000E+00
      25     1     1     2     0     0  9.207188483E+01 -3.606897102E+02 -3.405923354E+02  5.198100018E+02  1.250000000E+02  0.00000E+00  9.000E+00
      25     1     1     2     0     0 -7.709914807E+01  3.692511394E+02 -2.476932819E+02  4.682602316E+02  1.250000000E+02  0.00000E+00  9.000E+00
      21     1     1     2   502   511 -1.497273675E+01 -8.561429229E+00 -2.876311799E+01  3.353800639E+01  4.768371582E-07  0.00000E+00  9.000E+00
#rwgt            1           1   3.0865921789030734E-002           7      133166           0
</event>
<event>
      5   9999  3.19816E-02  3.86254E+02 -1.00000E+00  1.02145E-01
      -1    -1     0     0     0   501  0.000000000E+00  0.000000000E+00  2.801790337E+02  2.801790337E+02  0.000000000E+00  0.00000E+00  9.000E+00
      21    -1     0     0   501   502  0.000000000E+00  0.000000000E+00 -1.015786652E+03  1.015786652E+03  0.000000000E+00  0.00000E+00  9.000E+00
      25     1     1     2     0     0  3.198832435E+02 -2.045158480E+02 -3.101895054E+02  5.059590406E+02  1.250000000E+02  0.00000E+00  9.000E+00
      25     1     1     2     0     0 -1.857672221E+02 -1.577062547E+02 -2.272890474E+02  3.559017205E+02  1.250000000E+02  0.00000E+00  9.000E+00
      -1     1     1     2     0   502 -1.341160214E+02  3.622221027E+02 -1.981290655E+02  4.341049245E+02  7.629394531E-06  0.00000E+00  9.000E+00
#rwgt            1           1   2.8410447239419535E-002           7      133355           0
</event>
<event>
      5   9999  3.19816E-02  2.22355E+02 -1.00000E+00  1.09998E-01
      21    -1     0     0   502   511  0.000000000E+00  0.000000000E+00  5.076630146E+02  5.076630146E+02  0.000000000E+00  0.00000E+00  9.000E+00
      21    -1     0     0   501   502  0.000000000E+00  0.000000000E+00 -4.932169322E+02  4.932169322E+02  0.000000000E+00  0.00000E+00  9.000E+00
      25     1     1     2     0     0 -2.097682878E+02 -1.841827128E+02 -3.046551466E+02  4.317010130E+02  1.250000000E+02  0.00000E+00  9.000E+00
      25     1     1     2     0     0 -1.136545684E+01  2.074558966E+02  1.192428194E+02  2.702054267E+02  1.250000000E+02  0.00000E+00  9.000E+00
      21     1     1     2   501   511  2.211337446E+02 -2.327318377E+01  1.998584095E+02  2.989735071E+02  3.814697266E-06  0.00000E+00  9.000E+00
#rwgt            1           1   2.7414963120883547E-002           7      133405           0
</event>
<event>
      5   9999  3.19816E-02  2.35742E+01 -1.00000E+00  1.60685E-01
      21    -1     0     0   502   512  0.000000000E+00  0.000000000E+00  7.933009128E+01  7.933009128E+01  0.000000000E+00  0.00000E+00  9.000E+00
      21    -1     0     0   501   502  0.000000000E+00  0.000000000E+00 -1.396431069E+03  1.396431069E+03  0.000000000E+00  0.00000E+00  9.000E+00
      25     1     1     2     0     0 -2.690148129E+02 -3.840925312E+01 -6.660533620E+02  7.301344543E+02  1.250000000E+02  0.00000E+00  9.000E+00
      25     1     1     2     0     0  2.667379262E+02  6.187326561E+01 -6.557994222E+02  7.215783425E+02  1.250000000E+02  0.00000E+00  9.000E+00
      21     1     1     2   501   512  2.276886748E+00 -2.346401250E+01  4.751806920E+00  2.404836304E+01  1.057877502E-06  0.00000E+00  9.000E+00
#rwgt            1           1   3.1351931548469374E-002           7      133483           0
</event>
<event>
      5   9999  3.19816E-02  1.14854E+02 -1.00000E+00  1.21182E-01
      21    -1     0     0   502   501  0.000000000E+00  0.000000000E+00  3.621599277E+02  3.621599277E+02  0.000000000E+00  0.00000E+00  9.000E+00
      21    -1     0     0   501   511  0.000000000E+00  0.000000000E+00 -6.416572778E+02  6.416572778E+02  0.000000000E+00  0.00000E+00  9.000E+00
      25     1     1     2     0     0  2.747711414E+02  3.409645482E+02 -2.698361749E+02  5.293321873E+02  1.250000000E+02  0.00000E+00  9.000E+00
      25     1     1     2     0     0 -2.036281292E+02 -2.507972260E+02  4.127228154E+01  3.488438974E+02  1.250000000E+02  0.00000E+00  9.000E+00
      21     1     1     2   502   511 -7.114301221E+01 -9.016732221E+01 -5.093345679E+01  1.256411207E+02  6.743495762E-07  0.00000E+00  9.000E+00
#rwgt            1           1   3.0738168456376475E-002           7      133637           0
</event>
<event>
      5   9999  3.19816E-02  9.82245E+01 -1.00000E+00  1.24179E-01
      21    -1     0     0   502   512  0.000000000E+00  0.000000000E+00  1.746645310E+02  1.746645310E+02  0.000000000E+00  0.00000E+00  9.000E+00
      21    -1     0     0   501   502  0.000000000E+00  0.000000000E+00 -5.170552361E+02  5.170552361E+02  0.000000000E+00  0.00000E+00  9.000E+00
      25     1     1     2     0     0 -6.204867686E+01  1.704182345E+02 -3.337686374E+02  3.998986325E+02  1.250000000E+02  0.00000E+00  9.000E+00
      25     1     1     2     0     0  9.455182672E+01 -7.772733063E+01  4.399060748E+01  1.803933464E+02  1.250000000E+02  0.00000E+00  9.000E+00
      21     1     1     2   501   512 -3.250314986E+01 -9.269090388E+01 -5.261267517E+01  1.114277883E+02  2.336015456E-06  0.00000E+00  9.000E+00
#rwgt            1           1   2.8895703796926187E-002           7      133721           0
</event>
<event>
      5   9999  3.19816E-02  6.89672E+00 -1.00000E+00  2.16470E-01
      21    -1     0     0   502   501  0.000000000E+00  0.000000000E+00  1.498717744E+03  1.498717744E+03  0.000000000E+00  0.00000E+00  9.000E+00
      21    -1     0     0   511   502  0.000000000E+00  0.000000000E+00 -6.742783678E+01  6.742783678E+01  0.000000000E+00  0.00000E+00  9.000E+00
      25     1     1     2     0     0 -2.074834855E+02  9.537434645E+01  1.158401829E+03  1.187293334E+03  1.250000000E+02  0.00000E+00  9.000E+00
      25     1     1     2     0     0  2.030402785E+02 -9.009962678E+01  2.701959428E+02  3.714487110E+02  1.250000000E+02  0.00000E+00  9.000E+00
      21     1     1     2   511   501  4.443207000E+00 -5.274719678E+00  2.692135688E+00  7.403536364E+00  9.424321831E-08  0.00000E+00  9.000E+00
#rwgt            1           1   2.9481161519248185E-002           7      133800           0
</event>
<event>
      5   9999  3.19816E-02  8.47518E+01 -1.00000E+00  1.27148E-01
      21    -1     0     0   502   512  0.000000000E+00  0.000000000E+00  5.877834469E+02  5.877834469E+02  0.000000000E+00  0.00000E+00  9.000E+00
      21    -1     0     0   501   502  0.000000000E+00  0.000000000E+00 -9.160553486E+02  9.160553486E+02  0.000000000E+00  0.00000E+00  9.000E+00
      25     1     1     2     0     0  1.782668037E+01 -2.624562728E+01  1.353072399E+01  1.296715234E+02  1.250000000E+02  0.00000E+00  9.000E+00
      25     1     1     2     0     0 -2.426816196E+00 -5.709533625E+01 -8.489413992E+02  8.599955035E+02  1.250000000E+02  0.00000E+00  9.000E+00
      21     1     1     2   501   512 -1.539986418E+01  8.334096352E+01  5.071387735E+02  5.141717686E+02  7.629394531E-06  0.00000E+00  9.000E+00
#rwgt            1           1   2.9182375854373620E-002           7      134097           0
</event>
<event>
      5   9999  3.19816E-02  8.67865E+01 -1.00000E+00  1.26661E-01
      21    -1     0     0   511   501  0.000000000E+00  0.000000000E+00  7.556495747E+02  7.556495747E+02  0.000000000E+00  0.00000E+00  9.000E+00
      21    -1     0     0   501   502  0.000000000E+00  0.000000000E+00 -1.776050959E+03  1.776050959E+03  0.000000000E+00  0.00000E+00  9.000E+00
      25     1     1     2     0     0  7.830673002E+02  6.250371311E+02 -8.166046007E+02  1.298589190E+03  1.250000000E+02  0.00000E+00  9.000E+00
      25     1     1     2     0     0 -8.483313858E+02 -5.678314403E+02 -3.298618691E+02  1.080061358E+03  1.250000000E+02  0.00000E+00  9.000E+00
      21     1     1     2   511   502  6.526408561E+01 -5.720569082E+01  1.260650858E+02  1.530499846E+02  1.907348633E-06  0.00000E+00  9.000E+00
#rwgt            1           1   3.2916314194933537E-002           7      134176           0
</event>
<event>
      5   9999  3.19816E-02  1.37541E+01 -1.00000E+00  1.81007E-01
      21    -1     0     0   502   501  0.000000000E+00  0.000000000E+00  1.119841202E+03  1.119841202E+03  0.000000000E+00  0.00000E+00  9.000E+00
      21    -1     0     0   512   502  0.000000000E+00  0.000000000E+00 -4.664015765E+02  4.664015765E+02  0.000000000E+00  0.00000E+00  9.000E+00
      25     1     1     2     0     0 -1.444120576E+02 -1.568536423E+02  9.902774615E+02  1.020652908E+03  1.250000000E+02  0.00000E+00  9.000E+00
      25     1     1     2     0     0  1.354846134E+02  1.463906235E+02 -7.035803824E+00  2.355011628E+02  1.250000000E+02  0.00000E+00  9.000E+00
      21     1     1     2   512   501  8.927444168E+00  1.046301884E+01 -3.298020327E+02  3.300887074E+02  5.394796609E-06  0.00000E+00  9.000E+00
#rwgt            1           1   2.6563960438116090E-002           7      134292           0
</event>
<event>
      5   9999  3.19816E-02  2.97926E+01 -1.00000E+00  1.53249E-01
      21    -1     0     0   502   501  0.000000000E+00  0.000000000E+00  2.084763457E+02  2.084763457E+02  0.000000000E+00  0.00000E+00  9.000E+00
      21    -1     0     0   501   511  0.000000000E+00  0.000000000E+00 -2.320943082E+02  2.320943082E+02  0.000000000E+00  0.00000E+00  9.000E+00
      25     1     1     2     0     0  9.677703279E+01  1.201160588E+02  7.305087171E+01  2.115539920E+02  1.250000000E+02  0.00000E+00  9.000E+00
      25     1     1     2     0     0 -8.669605065E+01 -9.208090194E+01 -8.310230349E+01  1.962806423E+02  1.250000000E+02  0.00000E+00  9.000E+00
      21     1     1     2   502   511 -1.008098215E+01 -2.803515689E+01 -1.356653077E+01  3.273601961E+01  6.307962682E-07  0.00000E+00  9.000E+00
#rwgt            1           1   2.9806040297890385E-002           7      134511           0
</event>
<event>
      5   9999  3.19816E-02  8.08222E+01 -1.00000E+00  1.28135E-01
      21    -1     0     0   512   501  0.000000000E+00  0.000000000E+00  2.778192575E+03  2.778192575E+03  0.000000000E+00  0.00000E+00  9.000E+00
      21    -1     0     0   501   502  0.000000000E+00  0.000000000E+00 -3.456930381E+02  3.456930381E+02  0.000000000E+00  0.00000E+00  9.000E+00
      25     1     1     2     0     0 -1.102814328E+02 -1.967487674E+02 -2.792236850E+02  3.800828043E+02  1.250000000E+02  0.00000E+00  9.000E+00
      25     1     1     2     0     0  1.491867606E+02  2.675908579E+02  1.958397873E+03  1.986154270E+03  1.250000000E+02  0.00000E+00  9.000E+00
      21     1     1     2   512   502 -3.890532772E+01 -7.084209049E+01  7.533253495E+02  7.576485389E+02  1.078959322E-05  0.00000E+00  9.000E+00
#rwgt            1           1   3.5481234161750641E-002           7      134640           0
</event>
<event>
      5   9999  3.19816E-02  3.13110E+01 -1.00000E+00  1.51761E-01
       2    -1     0     0   502     0  0.000000000E+00  0.000000000E+00  2.403657031E+03  2.403657031E+03  0.000000000E+00  0.00000E+00  9.000E+00
      21    -1     0     0   501   502  0.000000000E+00  0.000000000E+00 -3.137009959E+02  3.137009959E+02  0.000000000E+00  0.00000E+00  9.000E+00
      25     1     1     2     0     0  4.366174736E+02  3.584551265E+02  1.776809912E+03  1.868636765E+03  1.250000000E+02  0.00000E+00  9.000E+00
      25     1     1     2     0     0 -4.074072049E+02 -3.697308206E+02  4.416282560E+02  7.164789088E+02  1.250000000E+02  0.00000E+00  9.000E+00
       2     1     1     2   501     0 -2.921026869E+01  1.127569407E+01 -1.284821336E+02  1.322423523E+02  3.303624740E-06  0.00000E+00  9.000E+00
#rwgt            1           1   3.3694173398181759E-002           7      134737           0
</event>
<event>
      5   9999  3.19816E-02  5.25475E+01 -1.00000E+00  1.37855E-01
      21    -1     0     0   502   511  0.000000000E+00  0.000000000E+00  1.660103988E+02  1.660103988E+02  0.000000000E+00  0.00000E+00  9.000E+00
      21    -1     0     0   501   502  0.000000000E+00  0.000000000E+00 -2.464611400E+02  2.464611400E+02  0.000000000E+00  0.00000E+00  9.000E+00
      25     1     1     2     0     0  5.002994636E+01 -5.766730139E+01  3.878493194E+01  1.515182633E+02  1.250000000E+02  0.00000E+00  9.000E+00
      25     1     1     2     0     0 -5.899704840E+01  1.094440630E+02 -1.094098437E+02  2.074949844E+02  1.250000000E+02  0.00000E+00  9.000E+00
      21     1     1     2   501   511  8.967102033E+00 -5.177676160E+01 -9.825829458E+00  5.345829108E+01  5.840038640E-07  0.00000E+00  9.000E+00
#rwgt            1           1   2.3932991911056755E-002           7      134869           0
</event>
<event>
      5   9999  3.19816E-02  6.89022E+01 -1.00000E+00  1.31569E-01
      21    -1     0     0   502   501  0.000000000E+00  0.000000000E+00  5.346925791E+01  5.346925791E+01  0.000000000E+00  0.00000E+00  9.000E+00
      21    -1     0     0   501   512  0.000000000E+00  0.000000000E+00 -1.013213422E+03  1.013213422E+03  0.000000000E+00  0.00000E+00  9.000E+00
      25     1     1     2     0     0  1.167021326E+02 -3.260151657E+01 -2.457416999E+02  3.011581473E+02  1.250000000E+02  0.00000E+00  9.000E+00
      25     1     1     2     0     0 -1.266686516E+02  1.007791054E+02 -4.843328255E+02  5.257420102E+02  1.250000000E+02  0.00000E+00  9.000E+00
      21     1     1     2   502   512  9.966519036E+00 -6.817758880E+01 -2.296696382E+02  2.397825220E+02  0.000000000E+00  0.00000E+00  9.000E+00
#rwgt            1           1   2.8169687558197098E-002           7      134965           0
</event>
<event>
      5   9999  3.19816E-02  2.62484E+01 -1.00000E+00  1.57182E-01
      21    -1     0     0   511   501  0.000000000E+00  0.000000000E+00  1.400581745E+02  1.400581745E+02  0.000000000E+00  0.00000E+00  9.000E+00
      21    -1     0     0   501   502  0.000000000E+00  0.000000000E+00 -6.680638686E+02  6.680638686E+02  0.000000000E+00  0.00000E+00  9.000E+00
      25     1     1     2     0     0 -1.538507902E+02  3.104383353E+01 -7.499754052E+00  2.007860343E+02  1.250000000E+02  0.00000E+00  9.000E+00
      25     1     1     2     0     0  1.279807421E+02 -3.548438094E+01 -5.429731038E+02  5.727853028E+02  1.250000000E+02  0.00000E+00  9.000E+00
      21     1     1     2   511   502  2.587004806E+01  4.440547411E+00  2.246716372E+01  3.455070612E+01  6.743495762E-07  0.00000E+00  9.000E+00
#rwgt            1           1   2.4532734873931532E-002           7      135057           0
</event>
<event>
      5   9999  3.19816E-02  8.27631E+01 -1.00000E+00  1.27640E-01
      21    -1     0     0   502   501  0.000000000E+00  0.000000000E+00  3.811059348E+02  3.811059348E+02  0.000000000E+00  0.00000E+00  9.000E+00
      21    -1     0     0   512   502  0.000000000E+00  0.000000000E+00 -1.793490995E+02  1.793490995E+02  0.000000000E+00  0.00000E+00  9.000E+00
      25     1     1     2     0     0  1.003918882E+02  2.304153890E+01 -7.347379660E+01  1.778562411E+02  1.250000000E+02  0.00000E+00  9.000E+00
      25     1     1     2     0     0 -4.985997790E+01  4.250431932E+01  2.636266412E+02  2.990261535E+02  1.250000000E+02  0.00000E+00  9.000E+00
      21     1     1     2   512   501 -5.053191026E+01 -6.554585822E+01  1.160399074E+01  8.357263957E+01  1.677423391E-06  0.00000E+00  9.000E+00
#rwgt            2          11   2.8390281757359947E-003           7      135419           0
</event>
<event>
      5   9999  3.19816E-02  4.03644E+01 -1.00000E+00  1.44596E-01
      21    -1     0     0   511   501  0.000000000E+00  0.000000000E+00  2.993720553E+02  2.993720553E+02  0.000000000E+00  0.00000E+00  9.000E+00
      21    -1     0     0   501   502  0.000000000E+00  0.000000000E+00 -1.139019434E+03  1.139019434E+03  0.000000000E+00  0.00000E+00  9.000E+00
      25     1     1     2     0     0  6.951953754E+01  7.146553444E+01 -1.082642056E+03  1.094385266E+03  1.250000000E+02  0.00000E+00  9.000E+00
      25     1     1     2     0     0 -9.231659362E+01 -3.815523885E+01  8.549853065E+01  1.814198844E+02  1.250000000E+02  0.00000E+00  9.000E+00
      21     1     1     2   511   502  2.279705608E+01 -3.331029559E+01  1.574961465E+02  1.625863393E+02  1.907348633E-06  0.00000E+00  9.000E+00
#rwgt            1           1   2.0443089748995984E-002           7      135484           0
</event>
<event>
      5   9999  3.19816E-02  9.41295E+01 -1.00000E+00  1.25021E-01
      21    -1     0     0   502   501  0.000000000E+00  0.000000000E+00  7.297552297E+01  7.297552297E+01  0.000000000E+00  0.00000E+00  9.000E+00
      21    -1     0     0   501   512  0.000000000E+00  0.000000000E+00 -1.345778024E+03  1.345778024E+03  0.000000000E+00  0.00000E+00  9.000E+00
      25     1     1     2     0     0 -2.200338506E+02 -1.637684371E+01 -5.573604214E+02  6.123387426E+02  1.250000000E+02  0.00000E+00  9.000E+00
      25     1     1     2     0     0  1.777369081E+02  1.004680986E+02 -3.183372991E+02  3.983062683E+02  1.250000000E+02  0.00000E+00  9.000E+00
      21     1     1     2   502   512  4.229694249E+01 -8.409125491E+01 -3.971047809E+02  4.081085365E+02  5.394796609E-06  0.00000E+00  9.000E+00
#rwgt            1           1   2.7533749711033468E-002           7      135577           0
</event>
<event>
      5   9999  3.19816E-02  4.94007E+01 -1.00000E+00  1.39375E-01
      21    -1     0     0   511   501  0.000000000E+00  0.000000000E+00  1.156798099E+03  1.156798099E+03  0.000000000E+00  0.00000E+00  9.000E+00
      21    -1     0     0   501   502  0.000000000E+00  0.000000000E+00 -1.369656322E+02  1.369656322E+02  0.000000000E+00  0.00000E+00  9.000E+00
      25     1     1     2     0     0 -1.402227914E+02  9.533347038E+01  8.084120224E+01  2.256351076E+02  1.250000000E+02  0.00000E+00  9.000E+00
      25     1     1     2     0     0  9.231863167E+01 -8.326633506E+01  5.776732806E+01  1.855210945E+02  1.250000000E+02  0.00000E+00  9.000E+00
      21     1     1     2   511   502  4.790415973E+01 -1.206713532E+01  8.812239361E+02  8.826075288E+02  1.078959322E-05  0.00000E+00  9.000E+00
#rwgt            2          11   1.3715228092394465E-003           7      135664           0
</event>
<event>
      5   9999  3.19816E-02  3.74673E+01 -1.00000E+00  1.46624E-01
      21    -1     0     0   502   501  0.000000000E+00  0.000000000E+00  4.643766016E+02  4.643766016E+02  0.000000000E+00  0.00000E+00  9.000E+00
      21    -1     0     0   512   502  0.000000000E+00  0.000000000E+00 -4.614345616E+02  4.614345616E+02  0.000000000E+00  0.00000E+00  9.000E+00
      25     1     1     2     0     0 -3.193462268E+02  2.637822238E+02 -9.017228768E+01  4.419492229E+02  1.250000000E+02  0.00000E+00  9.000E+00
      25     1     1     2     0     0  2.901397534E+02 -2.872508707E+02  1.126626545E+02  4.416016451E+02  1.250000000E+02  0.00000E+00  9.000E+00
      21     1     1     2   512   501  2.920647333E+01  2.346864690E+01 -1.954832682E+01  4.226029523E+01  5.331201500E-07  0.00000E+00  9.000E+00
#rwgt            1           1   2.4901305805288945E-002           7      135684           0
</event>
<event>
      5   9999  3.19816E-02  2.23074E+01 -1.00000E+00  1.62549E-01
      21    -1     0     0   511   501  0.000000000E+00  0.000000000E+00  1.016553762E+02  1.016553762E+02  0.000000000E+00  0.00000E+00  9.000E+00
      21    -1     0     0   501   502  0.000000000E+00  0.000000000E+00 -5.697263285E+02  5.697263285E+02  0.000000000E+00  0.00000E+00  9.000E+00
      25     1     1     2     0     0 -1.393946603E+02 -4.365672620E+01 -3.880491481E+02  4.330634162E+02  1.250000000E+02  0.00000E+00  9.000E+00
      25     1     1     2     0     0  1.555466879E+02  2.827061496E+01 -6.648329653E+01  2.122240055E+02  1.250000000E+02  0.00000E+00  9.000E+00
      21     1     1     2   511   502 -1.615202761E+01  1.538611124E+01 -1.353850770E+01  2.609428301E+01  4.129530925E-07  0.00000E+00  9.000E+00
#rwgt            1           1   2.0855943728793576E-002           7      135829           0
</event>
<event>
      5   9999  3.19816E-02  1.40641E+01 -1.00000E+00  1.80061E-01
       2    -1     0     0   502     0  0.000000000E+00  0.000000000E+00  1.601220827E+03  1.601220827E+03  0.000000000E+00  0.00000E+00  9.000E+00
      21    -1     0     0   501   502  0.000000000E+00  0.000000000E+00 -7.643665197E+01  7.643665197E+01  0.000000000E+00  0.00000E+00  9.000E+00
      25     1     1     2     0     0 -1.086672766E+02  1.124600359E+02  5.627499963E+02  5.973009250E+02  1.250000000E+02  0.00000E+00  9.000E+00
      25     1     1     2     0     0  9.602625436E+01 -1.186247300E+02  1.055141008E+02  2.237210173E+02  1.250000000E+02  0.00000E+00  9.000E+00
       2     1     1     2   501     0  1.264102219E+01  6.164694098E+00  8.565200783E+02  8.566355371E+02  0.000000000E+00  0.00000E+00  9.000E+00
#rwgt            1           1   2.4534681971152470E-002           7      135955           0
</event>
<event>
      5   9999  3.19816E-02  1.11766E+02 -1.00000E+00  1.21693E-01
      21    -1     0     0   502   511  0.000000000E+00  0.000000000E+00  3.194091167E+02  3.194091167E+02  0.000000000E+00  0.00000E+00  9.000E+00
      21    -1     0     0   501   502  0.000000000E+00  0.000000000E+00 -6.457604175E+02  6.457604175E+02  0.000000000E+00  0.00000E+00  9.000E+00
      25     1     1     2     0     0 -1.698503834E+01 -1.426548050E+02 -3.463797465E+01  1.935553518E+02  1.250000000E+02  0.00000E+00  9.000E+00
      25     1     1     2     0     0 -7.012703308E+01  2.126774349E+02 -4.848317655E+02  5.484854902E+02  1.250000000E+02  0.00000E+00  9.000E+00
      21     1     1     2   501   511  8.711207141E+01 -7.002262989E+01  1.931184394E+02  2.231286923E+02  3.814697266E-06  0.00000E+00  9.000E+00
#rwgt            1           1   2.7053011059115385E-002           7      136138           0
</event>
<event>
      5   9999  3.19816E-02  6.71336E+01 -1.00000E+00  1.32147E-01
      21    -1     0     0   502   501  0.000000000E+00  0.000000000E+00  5.444901835E+02  5.444901835E+02  0.000000000E+00  0.00000E+00  9.000E+00
      21    -1     0     0   512   502  0.000000000E+00  0.000000000E+00 -5.414888105E+02  5.414888105E+02  0.000000000E+00  0.00000E+00  9.000E+00
      25     1     1     2     0     0 -1.265089762E+02 -2.106948563E+02  2.783518177E+02  3.917927742E+02  1.250000000E+02  0.00000E+00  9.000E+00
      25     1     1     2     0     0  7.328882681E+01  1.697738002E+02  1.465267559E+02  2.670009093E+02  1.250000000E+02  0.00000E+00  9.000E+00
      21     1     1     2   512   501  5.322014937E+01  4.092105612E+01 -4.218772006E+02  4.271853105E+02  0.000000000E+00  0.00000E+00  9.000E+00
#rwgt            1           1   2.8692909353005121E-002           7      136180           0
</event>
<event>
      5   9999  3.19816E-02  8.53321E+01 -1.00000E+00  1.27008E-01
      21    -1     0     0   502   501  0.000000000E+00  0.000000000E+00  4.554757612E+02  4.554757612E+02  0.000000000E+00  0.00000E+00  9.000E+00
      21    -1     0     0   511   502  0.000000000E+00  0.000000000E+00 -4.238891137E+02  4.238891137E+02  0.000000000E+00  0.00000E+00  9.000E+00
      25     1     1     2     0     0  2.328155159E+02 -2.128188796E+02  6.869485016E+01  3.461775880E+02  1.250000000E+02  0.00000E+00  9.000E+00
      25     1     1     2     0     0 -2.906155114E+02  2.755941149E+02  3.561049941E+01  4.210731519E+02  1.250000000E+02  0.00000E+00  9.000E+00
      21     1     1     2   511   501  5.779999544E+01 -6.277523528E+01 -7.271870209E+01  1.121141350E+02  1.348699152E-06  0.00000E+00  9.000E+00
#rwgt            1           1   2.7140927199891210E-002           7      136276           0
</event>
<event>
      5   9999  3.19816E-02  1.23427E+02 -1.00000E+00  1.19851E-01
      21    -1     0     0   502   501  0.000000000E+00  0.000000000E+00  1.098365725E+03  1.098365725E+03  0.000000000E+00  0.00000E+00  9.000E+00
       2    -1     0     0   501     0  0.000000000E+00  0.000000000E+00 -6.817347592E+02  6.817347592E+02  0.000000000E+00  0.00000E+00  9.000E+00
      25     1     1     2     0     0  4.064543614E+02 -6.105636321E+02  1.430993951E+02  7.576909222E+02  1.250000000E+02  0.00000E+00  9.000E+00
      25     1     1     2     0     0 -4.429271361E+02  7.284791655E+02  2.420511909E+02  8.950307936E+02  1.250000000E+02  0.00000E+00  9.000E+00
       2     1     1     2   502     0  3.647277473E+01 -1.179155335E+02  3.148038000E+01  1.273787684E+02  2.185142372E-06  0.00000E+00  9.000E+00
#rwgt            1           1   3.3535965947260965E-002           7      136347           0
</event>
<event>
      5   9999  3.19816E-02  5.10311E+01 -1.00000E+00  1.38572E-01
      21    -1     0     0   502   511  0.000000000E+00  0.000000000E+00  3.874198147E+02  3.874198147E+02  0.000000000E+00  0.00000E+00  9.000E+00
      21    -1     0     0   501   502  0.000000000E+00  0.000000000E+00 -6.854539766E+02  6.854539766E+02  0.000000000E+00  0.00000E+00  9.000E+00
      25     1     1     2     0     0 -5.037460025E+01 -1.439521904E+02 -4.708609353E+02  5.104849204E+02  1.250000000E+02  0.00000E+00  9.000E+00
      25     1     1     2     0     0  1.014052583E+02  1.437428961E+02 -1.322317712E+02  2.530914615E+02  1.250000000E+02  0.00000E+00  9.000E+00
      21     1     1     2   501   511 -5.103065808E+01  2.092943580E-01  3.050585446E+02  3.092974095E+02  5.394796609E-06  0.00000E+00  9.000E+00
#rwgt            1           1   2.5690966504483156E-002           7      136424           0
</event>
<event>
      5   9999  3.19816E-02  1.00562E+02 -1.00000E+00  1.23719E-01
       1    -1     0     0   502     0  0.000000000E+00  0.000000000E+00  1.490302380E+03  1.490302380E+03  0.000000000E+00  0.00000E+00  9.000E+00
      21    -1     0     0   501   502  0.000000000E+00  0.000000000E+00 -2.873744582E+02  2.873744582E+02  0.000000000E+00  0.00000E+00  9.000E+00
      25     1     1     2     0     0  3.105444684E+02 -5.103252668E+02  7.037742275E+02  9.315540285E+02  1.250000000E+02  0.00000E+00  9.000E+00
      25     1     1     2     0     0 -2.099843617E+02  5.108769266E+02  3.483888728E+02  6.648973401E+02  1.250000000E+02  0.00000E+00  9.000E+00
       1     1     1     2   501     0 -1.005601066E+02 -5.516597124E-01  1.507648220E+02  1.812254698E+02  3.303624740E-06  0.00000E+00  9.000E+00
#rwgt            1           1   3.1322573759493447E-002           7      136483           0
</event>
<event>
      5   9999  3.19816E-02  9.21219E+00 -1.00000E+00  1.99969E-01
      21    -1     0     0   502   511  0.000000000E+00  0.000000000E+00  7.087717561E+02  7.087717561E+02  0.000000000E+00  0.00000E+00  9.000E+00
      21    -1     0     0   501   502  0.000000000E+00  0.000000000E+00 -2.088572089E+02  2.088572089E+02  0.000000000E+00  0.00000E+00  9.000E+00
      25     1     1     2     0     0  1.690384436E+02 -2.306403910E+02  8.922194942E+01  3.245836435E+02  1.250000000E+02  0.00000E+00  9.000E+00
      25     1     1     2     0     0 -1.650787907E+02  2.223226047E+02  1.622363003E+02  3.444182992E+02  1.250000000E+02  0.00000E+00  9.000E+00
      21     1     1     2   501   511 -3.959652867E+00  8.317786284E+00  2.484562975E+02  2.486270222E+02  4.672030912E-06  0.00000E+00  9.000E+00
#rwgt            1           1   3.0634982344671945E-002           7      136562           0
</event>
<event>
      5   9999  3.19816E-02  8.01067E+01 -1.00000E+00  1.28321E-01
      21    -1     0     0   512   501  0.000000000E+00  0.000000000E+00  2.898869726E+02  2.898869726E+02  0.000000000E+00  0.00000E+00  9.000E+00
      21    -1     0     0   501   502  0.000000000E+00  0.000000000E+00 -2.260859428E+02  2.260859428E+02  0.000000000E+00  0.00000E+00  9.000E+00
      25     1     1     2     0     0 -2.820772844E+01  1.912931277E+02  6.448139250E+01  2.391058063E+02  1.250000000E+02  0.00000E+00  9.000E+00
      25     1     1     2     0     0  3.297333116E+01 -1.113282802E+02 -5.594796686E+01  1.795449847E+02  1.250000000E+02  0.00000E+00  9.000E+00
      21     1     1     2   512   502 -4.765602727E+00 -7.996484753E+01  5.526760418E+01  9.732212432E+01  1.348699152E-06  0.00000E+00  9.000E+00
#rwgt            1           1   2.7947891801418493E-002           7      136821           0
</event>
<event>
      5   9999  3.19816E-02  1.16616E+02 -1.00000E+00  1.20898E-01
      21    -1     0     0   502   511  0.000000000E+00  0.000000000E+00  2.441503108E+02  2.441503108E+02  0.000000000E+00  0.00000E+00  9.000E+00
      21    -1     0     0   501   502  0.000000000E+00  0.000000000E+00 -2.922570870E+03  2.922570870E+03  0.000000000E+00  0.00000E+00  9.000E+00
      25     1     1     2     0     0 -4.593488244E+02  1.240460477E+02 -8.467039348E+02  9.792452796E+02  1.250000000E+02  0.00000E+00  9.000E+00
      25     1     1     2     0     0  5.746706194E+02 -1.067222749E+02 -1.938989660E+03  2.029024856E+03  1.250000000E+02  0.00000E+00  9.000E+00
      21     1     1     2   501   511 -1.153217950E+02 -1.732377281E+01  1.072730356E+02  1.584510450E+02  5.878843310E-06  0.00000E+00  9.000E+00
#rwgt            1           1   6.9135902956688505E-002           7      136899           0
</event>
<event>
      5   9999  3.19816E-02  1.59455E+02 -1.00000E+00  1.15351E-01
      21    -1     0     0   502   501  0.000000000E+00  0.000000000E+00  2.511040341E+02  2.511040341E+02  0.000000000E+00  0.00000E+00  9.000E+00
       1    -1     0     0   501     0  0.000000000E+00  0.000000000E+00 -8.209176085E+02  8.209176085E+02  0.000000000E+00  0.00000E+00  9.000E+00
      25     1     1     2     0     0 -2.048099797E+02 -5.338250065E+01  1.355793795E+02  2.807197665E+02  1.250000000E+02  0.00000E+00  9.000E+00
      25     1     1     2     0     0  5.115219623E+01  9.598750152E+01 -5.250502671E+02  5.505750908E+02  1.250000000E+02  0.00000E+00  9.000E+00
       1     1     1     2   502     0  1.536577834E+02 -4.260500087E+01 -1.803426868E+02  2.407267854E+02  1.907348633E-06  0.00000E+00  9.000E+00
#rwgt            2          12   1.9036053891119081E-004           7      136960           0
</event>
<event>
      5   9999  3.19816E-02  9.11362E+01 -1.00000E+00  1.25668E-01
      21    -1     0     0   502   511  0.000000000E+00  0.000000000E+00  8.402477553E+02  8.402477553E+02  0.000000000E+00  0.00000E+00  9.000E+00
      21    -1     0     0   501   502  0.000000000E+00  0.000000000E+00 -1.545163460E+03  1.545163460E+03  0.000000000E+00  0.00000E+00  9.000E+00
      25     1     1     2     0     0 -3.863033981E+02  6.996455957E+02 -1.062901154E+03  1.335708852E+03  1.250000000E+02  0.00000E+00  9.000E+00
      25     1     1     2     0     0  3.851359883E+02 -7.907742848E+02  3.599051244E+02  9.585459809E+02  1.250000000E+02  0.00000E+00  9.000E+00
      21     1     1     2   501   511  1.167409821E+00  9.112868911E+01 -1.919675028E+00  9.115638199E+01  1.038387501E-06  0.00000E+00  9.000E+00
#rwgt            1           1   3.2353543424382077E-002           7      136994           0
</event>
<event>
      5   9999  3.19816E-02  5.90651E+02 -1.00000E+00  9.68389E-02
      21    -1     0     0   512   501  0.000000000E+00  0.000000000E+00  9.049576521E+02  9.049576521E+02  0.000000000E+00  0.00000E+00  9.000E+00
      21    -1     0     0   501   502  0.000000000E+00  0.000000000E+00 -1.007578194E+03  1.007578194E+03  0.000000000E+00  0.00000E+00  9.000E+00
      25     1     1     2     0     0 -2.750247838E+02  4.786725230E+02 -5.983558390E+02  8.236629930E+02  1.250000000E+02  0.00000E+00  9.000E+00
      25     1     1     2     0     0  2.737397516E+02  1.119769387E+02  5.266807436E+00  3.211308544E+02  1.250000000E+02  0.00000E+00  9.000E+00
      21     1     1     2   512   502  1.285032142E+00 -5.906494617E+02  4.904684893E+02  7.677419990E+02  2.018548058E-05  0.00000E+00  9.000E+00
#rwgt            1           1   2.9009274050638755E-002           7      137146           0
</event>
<event>
      5   9999  3.19816E-02  2.07641E+02 -1.00000E+00  1.11058E-01
       2    -1     0     0   502     0  0.000000000E+00  0.000000000E+00  3.530053771E+03  3.530053771E+03  0.000000000E+00  0.00000E+00  9.000E+00
      21    -1     0     0   501   502  0.000000000E+00  0.000000000E+00 -5.782814445E+01  5.782814445E+01  0.000000000E+00  0.00000E+00  9.000E+00
      25     1     1     2     0     0 -2.438594371E+02 -4.307898887E+01  2.191435403E+03  2.208922214E+03  1.250000000E+02  0.00000E+00  9.000E+00
      25     1     1     2     0     0  1.034376719E+02  1.960384857E+02  9.864904758E+02  1.018783048E+03  1.250000000E+02  0.00000E+00  9.000E+00
       2     1     1     2   501     0  1.404217651E+02 -1.529594969E+02  2.942997475E+02  3.601766527E+02  1.009274029E-05  0.00000E+00  9.000E+00
#rwgt            1           1   2.5472868765131221E-002           7      137174           0
</event>
<event>
      5   9999  3.19816E-02  5.32193E+01 -1.00000E+00  1.37547E-01
      21    -1     0     0   502   501  0.000000000E+00  0.000000000E+00  9.079568741E+01  9.079568741E+01  0.000000000E+00  0.00000E+00  9.000E+00
       1    -1     0     0   501     0  0.000000000E+00  0.000000000E+00 -1.486487455E+03  1.486487455E+03  0.000000000E+00  0.00000E+00  9.000E+00
      25     1     1     2     0     0  4.082041878E+01 -5.538620631E+01 -8.522241919E+02  8.640862294E+02  1.250000000E+02  0.00000E+00  9.000E+00
      25     1     1     2     0     0 -8.291833919E+01  8.794471092E+01 -6.922680478E+00  1.740190985E+02  1.250000000E+02  0.00000E+00  9.000E+00
       1     1     1     2   502     0  4.209792041E+01 -3.255850461E+01 -5.365448950E+02  5.391778144E+02  7.629394531E-06  0.00000E+00  9.000E+00
#rwgt            1           1   2.6987999942126677E-002           7      137201           0
</event>
<event>
      5   9999  3.19816E-02  6.28513E+01 -1.00000E+00  1.33635E-01
       3    -1     0     0   502     0  0.000000000E+00  0.000000000E+00  1.394310877E+03  1.394310877E+03  0.000000000E+00  0.00000E+00  9.000E+00
      21    -1     0     0   501   502  0.000000000E+00  0.000000000E+00 -2.835098638E+02  2.835098638E+02  0.000000000E+00  0.00000E+00  9.000E+00
      25     1     1     2     0     0 -2.272844941E+02  7.324022833E+01  3.478325615E+02  4.400396154E+02  1.250000000E+02  0.00000E+00  9.000E+00
      25     1     1     2     0     0  1.871617292E+02 -1.216183648E+02 -1.671192587E+02  3.055722274E+02  1.250000000E+02  0.00000E+00  9.000E+00
       3     1     1     2   501     0  4.012276491E+01  4.837813647E+01  9.300877103E+02  9.322088979E+02  0.000000000E+00  0.00000E+00  9.000E+00
#rwgt            1           1   3.0246895277991192E-002           7      137291           0
</event>
<event>
      5   9999  3.19816E-02  1.91832E+02 -1.00000E+00  1.12311E-01
       2    -1     0     0   502     0  0.000000000E+00  0.000000000E+00  3.102795490E+03  3.102795490E+03  0.000000000E+00  0.00000E+00  9.000E+00
      21    -1     0     0   501   502  0.000000000E+00  0.000000000E+00 -5.295372092E+02  5.295372092E+02  0.000000000E+00  0.00000E+00  9.000E+00
      25     1     1     2     0     0  1.006304630E+03 -1.066371331E+01  8.417091788E+02  1.317900628E+03  1.250000000E+02  0.00000E+00  9.000E+00
      25     1     1     2     0     0 -1.167642992E+03  1.144389031E+02  9.650156326E+02  1.524259358E+03  1.250000000E+02  0.00000E+00  9.000E+00
       2     1     1     2   501     0  1.613383618E+02 -1.037751898E+02  7.665334691E+02  7.901727129E+02  1.078959322E-05  0.00000E+00  9.000E+00
#rwgt            2          18   1.7686044414854762E-003           7      137371           0
</event>
<event>
      5   9999  3.19816E-02  3.12150E+01 -1.00000E+00  1.51852E-01
      21    -1     0     0   502   501  0.000000000E+00  0.000000000E+00  2.154812203E+02  2.154812203E+02  0.000000000E+00  0.00000E+00  9.000E+00
      21    -1     0     0   501   511  0.000000000E+00  0.000000000E+00 -2.281697604E+02  2.281697604E+02  0.000000000E+00  0.00000E+00  9.000E+00
      25     1     1     2     0     0  1.132805112E+02  7.142754152E+01  1.935681494E+00  1.832023875E+02  1.250000000E+02  0.00000E+00  9.000E+00
      25     1     1     2     0     0 -1.328217767E+02 -4.708590451E+01  4.453058239E+01  1.935631152E+02  1.250000000E+02  0.00000E+00  9.000E+00
      21     1     1     2   502   511  1.954126549E+01 -2.434163701E+01 -5.915480399E+01  6.688547813E+01  1.168007728E-06  0.00000E+00  9.000E+00
#rwgt            1           1   3.4377980005065652E-002           7      137405           0
</event>
<event>
      5   9999  3.19816E-02  9.06686E+01 -1.00000E+00  1.25772E-01
      21    -1     0     0   502   501  0.000000000E+00  0.000000000E+00  1.634646728E+02  1.634646728E+02  0.000000000E+00  0.00000E+00  9.000E+00
      21    -1     0     0   512   502  0.000000000E+00  0.000000000E+00 -9.647764925E+02  9.647764925E+02  0.000000000E+00  0.00000E+00  9.000E+00
      25     1     1     2     0     0  2.905522819E+02 -2.860913983E+01 -2.061000889E+02  3.786044876E+02  1.250000000E+02  0.00000E+00  9.000E+00
      25     1     1     2     0     0 -2.210607357E+02  8.684765945E+01 -1.765179147E+02  3.212381345E+02  1.250000000E+02  0.00000E+00  9.000E+00
      21     1     1     2   512   501 -6.949154617E+01 -5.823851962E+01 -4.186938162E+02  4.283985432E+02  5.394796609E-06  0.00000E+00  9.000E+00
#rwgt            1           1   2.7295389616034345E-002           7      137489           0
</event>
<event>
      5   9999  3.19816E-02  3.25956E+02 -1.00000E+00  1.04434E-01
       2    -1     0     0   502     0  0.000000000E+00  0.000000000E+00  2.667981355E+03  2.667981355E+03  0.000000000E+00  0.00000E+00  9.000E+00
      21    -1     0     0   501   502  0.000000000E+00  0.000000000E+00 -7.812169325E+02  7.812169325E+02  0.000000000E+00  0.00000E+00  9.000E+00
      25     1     1     2     0     0  3.798477114E+01 -1.752352540E+02  9.310782192E+01  2.375800993E+02  1.250000000E+02  0.00000E+00  9.000E+00
      25     1     1     2     0     0  2.669335503E+02  2.904413094E+02 -6.367790048E+02  7.594222642E+02  1.250000000E+02  0.00000E+00  9.000E+00
       2     1     1     2   501     0 -3.049183214E+02 -1.152060553E+02  2.430435606E+03  2.452195924E+03  3.051757812E-05  0.00000E+00  9.000E+00
#rwgt            1           1   2.8502717100279816E-002           7      137562           0
</event>
<event>
      5   9999  3.21997E-02  1.57748E+01 -1.00000E+00  1.75347E-01
      21    -1     0     0   511   501  0.000000000E+00  0.000000000E+00  1.375249464E+02  1.375249464E+02  0.000000000E+00  0.00000E+00  9.000E+00
      21    -1     0     0   501   502  0.000000000E+00  0.000000000E+00 -8.775618000E+02  8.775618000E+02  0.000000000E+00  0.00000E+00  9.000E+00
      25     1     1     2     0     0  9.127677496E+01 -2.698050399E+02 -2.022334983E+02  3.710115861E+02  1.250000000E+02  0.00000E+00  9.000E+00
      25     1     1     2     0     0 -1.009454046E+02  2.573405739E+02 -5.472292017E+02  6.256987653E+02  1.250000000E+02  0.00000E+00  9.000E+00
      21     1     1     2   511   502  9.668629624E+00  1.246446600E+01  9.425846407E+00  1.837639497E+01  1.685873940E-07  0.00000E+00  9.000E+00
#rwgt            1           1   2.9386332279497419E-002           7      137591           0
</event>
<event>
      5   9999  3.19816E-02  2.69320E+02 -1.00000E+00  1.07137E-01
       2    -1     0     0   502     0  0.000000000E+00  0.000000000E+00  8.334792403E+02  8.334792403E+02  0.000000000E+00  0.00000E+00  9.000E+00
      21    -1     0     0   501   502  0.000000000E+00  0.000000000E+00 -7.115199560E+02  7.115199560E+02  0.000000000E+00  0.00000E+00  9.000E+00
      25     1     1     2     0     0 -6.138433751E+02  3.255209357E+02 -1.876354952E+02  7.304790537E+02  1.250000000E+02  0.00000E+00  9.000E+00
      25     1     1     2     0     0  3.447093085E+02 -3.155236394E+02  2.103620646E+02  5.275005902E+02  1.250000000E+02  0.00000E+00  9.000E+00
       2     1     1     2   501     0  2.691340666E+02 -9.997296333E+00  9.923271498E+01  2.870195524E+02  4.862803949E-06  0.00000E+00  9.000E+00
#rwgt            1           1   2.9922036493418718E-002           7      137838           0
</event>
<event>
      5   9999  3.19816E-02  3.38754E+01 -1.00000E+00  1.49463E-01
      21    -1     0     0   502   501  0.000000000E+00  0.000000000E+00  1.868385701E+03  1.868385701E+03  0.000000000E+00  0.00000E+00  9.000E+00
      21    -1     0     0   501   511  0.000000000E+00  0.000000000E+00 -1.203148308E+03  1.203148308E+03  0.000000000E+00  0.00000E+00  9.000E+00
      25     1     1     2     0     0  1.554965815E+02  3.399079167E+01  5.652560786E+01  2.101302099E+02  1.250000000E+02  0.00000E+00  9.000E+00
      25     1     1     2     0     0 -1.303625803E+02 -5.670261243E+01  1.729637839E+03  1.739965989E+03  1.250000000E+02  0.00000E+00  9.000E+00
      21     1     1     2   502   511 -2.513400122E+01  2.271182076E+01 -1.120926054E+03  1.121437811E+03  1.525878906E-05  0.00000E+00  9.000E+00
#rwgt            1           1   3.4539848481883795E-002           7      137974           0
</event>
<event>
      5   9999  3.19816E-02  2.07451E+02 -1.00000E+00  1.11073E-01
       2    -1     0     0   502     0  0.000000000E+00  0.000000000E+00  1.150009603E+03  1.150009603E+03  0.000000000E+00  0.00000E+00  9.000E+00
      21    -1     0     0   501   502  0.000000000E+00  0.000000000E+00 -2.240076029E+02  2.240076029E+02  0.000000000E+00  0.00000E+00  9.000E+00
      25     1     1     2     0     0  3.998393232E+01 -4.732375694E+02  4.722883647E+02  6.813470565E+02  1.250000000E+02  0.00000E+00  9.000E+00
      25     1     1     2     0     0 -6.063462938E+01  2.668169195E+02  3.474703038E+02  4.595959517E+02  1.250000000E+02  0.00000E+00  9.000E+00
       2     1     1     2   501     0  2.065069706E+01  2.064206499E+02  1.062433313E+02  2.330741973E+02  2.336015456E-06  0.00000E+00  9.000E+00
#rwgt            1           1   2.8074617195428565E-002           7      138076           0
</event>
<event>
      5   9999  3.19816E-02  3.89077E+01 -1.00000E+00  1.45590E-01
      21    -1     0     0   502   501  0.000000000E+00  0.000000000E+00  1.024787340E+02  1.024787340E+02  0.000000000E+00  0.00000E+00  9.000E+00
      21    -1     0     0   501   511  0.000000000E+00  0.000000000E+00 -1.135308187E+03  1.135308187E+03  0.000000000E+00  0.00000E+00  9.000E+00
      25     1     1     2     0     0  3.789821656E+00  1.498462613E+01 -5.663684582E+02  5.802043883E+02  1.250000000E+02  0.00000E+00  9.000E+00
      25     1     1     2     0     0  2.691454970E+01  8.912093686E+00  5.152046213E+01  1.381418706E+02  1.250000000E+02  0.00000E+00  9.000E+00
      21     1     1     2   502   511 -3.070437135E+01 -2.389671982E+01 -5.179814569E+02  5.194406620E+02  0.000000000E+00  0.00000E+00  9.000E+00
#rwgt            1           1   2.8059794130401747E-002           7      138156           0
</event>
<event>
      5   9999  3.19816E-02  5.53793E+01 -1.00000E+00  1.36590E-01
      21    -1     0     0   502   501  0.000000000E+00  0.000000000E+00  3.947614788E+01  3.947614788E+01  0.000000000E+00  0.00000E+00  9.000E+00
      21    -1     0     0   501   512  0.000000000E+00  0.000000000E+00 -3.399759043E+03  3.399759043E+03  0.000000000E+00  0.00000E+00  9.000E+00
      25     1     1     2     0     0 -8.193522382E+00 -1.009364366E+02 -1.510098449E+02  2.206451253E+02  1.250000000E+02  0.00000E+00  9.000E+00
      25     1     1     2     0     0 -3.525343215E+01  1.352762720E+02 -2.300205221E+03  2.307836981E+03  1.250000000E+02  0.00000E+00  9.000E+00
      21     1     1     2   502   512  4.344695454E+01 -3.433983539E+01 -9.090678291E+02  9.107530841E+02  1.868812365E-05  0.00000E+00  9.000E+00
#rwgt            1           1   6.2449505614907405E-002           7      138332           0
</event>
<event>
      5   9999  3.19816E-02  1.35912E+02 -1.00000E+00  1.18117E-01
       1    -1     0     0   502     0  0.000000000E+00  0.000000000E+00  9.082183583E+02  9.082183583E+02  0.000000000E+00  0.00000E+00  9.000E+00
      21    -1     0     0   501   502  0.000000000E+00  0.000000000E+00 -2.535130169E+02  2.535130169E+02  0.000000000E+00  0.00000E+00  9.000E+00
      25     1     1     2     0     0  1.389012782E+02 -1.978332057E+02  5.587775629E+02  6.215214454E+02  1.250000000E+02  0.00000E+00  9.000E+00
      25     1     1     2     0     0 -1.057505220E+01  1.530629571E+02 -1.573087238E+02  2.528065172E+02  1.250000000E+02  0.00000E+00  9.000E+00
       1     1     1     2   501     0 -1.283262260E+02  4.477024856E+01  2.532365023E+02  2.874034125E+02  2.697398305E-06  0.00000E+00  9.000E+00
#rwgt            1           1   2.9698642906960230E-002           7      138421           0
</event>
<event>
      5   9999  3.19816E-02  6.60441E+01 -1.00000E+00  1.32513E-01
      -5    -1     0     0     0   501  0.000000000E+00  0.000000000E+00  1.770069004E+03  1.770069004E+03  0.000000000E+00  0.00000E+00  9.000E+00
      21    -1     0     0   501   502  0.000000000E+00  0.000000000E+00 -3.736233737E+02  3.736233737E+02  0.000000000E+00  0.00000E+00  9.000E+00
      25     1     1     2     0     0  4.305379278E+02 -5.964601460E+02  3.915761430E+02  8.426651107E+02  1.250000000E+02  0.00000E+00  9.000E+00
      25     1     1     2     0     0 -4.024646293E+02  5.366796355E+02  6.580502433E+02  9.479757020E+02  1.250000000E+02  0.00000E+00  9.000E+00
      -5     1     1     2     0   502 -2.807329848E+01  5.978051057E+01  3.468192444E+02  3.530515654E+02  0.000000000E+00  0.00000E+00  9.000E+00
#rwgt            1           1   2.8715904720245121E-002           7      138468           0
</event>
<event>
      5   9999  3.19816E-02  4.81088E+01 -1.00000E+00  1.40038E-01
      21    -1     0     0   502   501  0.000000000E+00  0.000000000E+00  1.114326383E+03  1.114326383E+03  0.000000000E+00  0.00000E+00  9.000E+00
      21    -1     0     0   511   502  0.000000000E+00  0.000000000E+00 -4.725185481E+01  4.725185481E+01  0.000000000E+00  0.00000E+00  9.000E+00
      25     1     1     2     0     0  1.067625264E+02 -1.059915414E+02  6.852070641E+02  7.125771289E+02  1.250000000E+02  0.00000E+00  9.000E+00
      25     1     1     2     0     0 -1.246447745E+02  6.132967232E+01  3.207766542E+02  3.712415795E+02  1.250000000E+02  0.00000E+00  9.000E+00
      21     1     1     2   511   501  1.788224811E+01  4.466186907E+01  6.109080971E+01  7.775952917E+01  1.507891493E-06  0.00000E+00  9.000E+00
#rwgt            1           1   3.0082062260389224E-002           7      138602           0
</event>
<event>
      5   9999  3.19816E-02  1.11914E+02 -1.00000E+00  1.21668E-01
      21    -1     0     0   502   501  0.000000000E+00  0.000000000E+00  4.023231875E+02  4.023231875E+02  0.000000000E+00  0.00000E+00  9.000E+00
      21    -1     0     0   512   502  0.000000000E+00  0.000000000E+00 -4.144702053E+02  4.144702053E+02  0.000000000E+00  0.00000E+00  9.000E+00
      25     1     1     2     0     0 -1.775926724E+02  1.991758074E+02 -2.153933120E+01  2.954642150E+02  1.250000000E+02  0.00000E+00  9.000E+00
      25     1     1     2     0     0  2.688189874E+02 -2.640026024E+02  5.444478817E+01  4.006872309E+02  1.250000000E+02  0.00000E+00  9.000E+00
      21     1     1     2   512   501 -9.122631498E+01  6.482679491E+01 -4.505247481E+01  1.206419470E+02  1.719260824E-06  0.00000E+00  9.000E+00
#rwgt            1           1   2.7682327654858736E-002           7      138696           0
</event>
<event>
      5   9999  3.19816E-02  4.89732E+01 -1.00000E+00  1.39592E-01
       1    -1     0     0   502     0  0.000000000E+00  0.000000000E+00  9.886614486E+02  9.886614486E+02  0.000000000E+00  0.00000E+00  9.000E+00
      21    -1     0     0   501   502  0.000000000E+00  0.000000000E+00 -4.130879991E+02  4.130879991E+02  0.000000000E+00  0.00000E+00  9.000E+00
      25     1     1     2     0     0 -8.054205890E+01  7.646053283E+01 -3.720359985E+02  4.078835870E+02  1.250000000E+02  0.00000E+00  9.000E+00
      25     1     1     2     0     0  9.873490447E+01 -3.099195393E+01  2.737882116E+02  3.182672892E+02  1.250000000E+02  0.00000E+00  9.000E+00
       1     1     1     2   501     0 -1.819284557E+01 -4.546857890E+01  6.738212364E+02  6.755985716E+02  7.629394531E-06  0.00000E+00  9.000E+00
#rwgt            1           1   2.9155631853208918E-002           7      138761           0
</event>
<event>
      5   9999  3.19816E-02  1.28563E+02 -1.00000E+00  1.19111E-01
      21    -1     0     0   511   501  0.000000000E+00  0.000000000E+00  6.922657356E+02  6.922657356E+02  0.000000000E+00  0.00000E+00  9.000E+00
      21    -1     0     0   501   502  0.000000000E+00  0.000000000E+00 -1.416431864E+02  1.416431864E+02  0.000000000E+00  0.00000E+00  9.000E+00
      25     1     1     2     0     0 -4.833369592E+01  5.246905000E+01 -3.237039689E+01  1.475194562E+02  1.250000000E+02  0.00000E+00  9.000E+00
      25     1     1     2     0     0  9.323215677E+01  6.799879127E+01  1.261182766E+02  2.117708440E+02  1.250000000E+02  0.00000E+00  9.000E+00
      21     1     1     2   511   502 -4.489846085E+01 -1.204678413E+02  4.568746694E+02  4.746186218E+02  5.394796609E-06  0.00000E+00  9.000E+00
#rwgt            2          11   5.5704902300938875E-003           7      138924           0
</event>
<event>
      5   9999  3.19816E-02  9.35570E+01 -1.00000E+00  1.25143E-01
      21    -1     0     0   502   501  0.000000000E+00  0.000000000E+00  4.095228917E+02  4.095228917E+02  0.000000000E+00  0.00000E+00  9.000E+00
      21    -1     0     0   512   502  0.000000000E+00  0.000000000E+00 -4.552948152E+02  4.552948152E+02  0.000000000E+00  0.00000E+00  9.000E+00
      25     1     1     2     0     0 -5.587362395E+01  3.341234534E+02 -1.261540092E+02  3.824920627E+02  1.250000000E+02  0.00000E+00  9.000E+00
      25     1     1     2     0     0  1.335716732E+02 -2.820089092E+02  1.475995545E+02  3.671253808E+02  1.250000000E+02  0.00000E+00  9.000E+00
      21     1     1     2   512   501 -7.769804921E+01 -5.211454423E+01 -6.721746878E+01  1.152002634E+02  1.907348633E-06  0.00000E+00  9.000E+00
#rwgt            1           1   2.9055610700490730E-002           7      138944           0
</event>
<event>
      5   9999  3.19816E-02  2.12488E+02 -1.00000E+00  1.10699E-01
      21    -1     0     0   502   501  0.000000000E+00  0.000000000E+00  4.031199827E+02  4.031199827E+02  0.000000000E+00  0.00000E+00  9.000E+00
      -1    -1     0     0     0   502  0.000000000E+00  0.000000000E+00 -4.837711492E+02  4.837711492E+02  0.000000000E+00  0.00000E+00  9.000E+00
      25     1     1     2     0     0 -5.063078923E+01  1.575747803E+02  1.413450174E+02  2.509914384E+02  1.250000000E+02  0.00000E+00  9.000E+00
      25     1     1     2     0     0 -1.274256640E+02 -2.735368954E+02  2.707586589E+00  3.266375117E+02  1.250000000E+02  0.00000E+00  9.000E+00
      -1     1     1     2     0   501  1.780564532E+02  1.159621152E+02 -2.247037705E+02  3.092621819E+02  3.814697266E-06  0.00000E+00  9.000E+00
#rwgt            1           1   3.0492156246286321E-002           7      139024           0
</event>
<event>
      5   9999  3.19816E-02  5.74594E+00 -1.00000E+00  2.28430E-01
      -3    -1     0     0     0   501  0.000000000E+00  0.000000000E+00  3.472114152E+02  3.472114152E+02  0.000000000E+00  0.00000E+00  9.000E+00
      21    -1     0     0   501   502  0.000000000E+00  0.000000000E+00 -2.851098644E+02  2.851098644E+02  0.000000000E+00  0.00000E+00  9.000E+00
      25     1     1     2     0     0 -3.057493871E+01 -1.045713037E+02  5.722565020E+01  1.754131109E+02  1.250000000E+02  0.00000E+00  9.000E+00
      25     1     1     2     0     0  3.422909762E+01  1.001370110E+02 -1.962992219E+02  2.556510055E+02  1.250000000E+02  0.00000E+00  9.000E+00
      -3     1     1     2     0   502 -3.654158914E+00  4.434292657E+00  2.011751225E+02  2.012571632E+02  2.697398305E-06  0.00000E+00  9.000E+00
#rwgt            1           1   2.2959278605741283E-002           7      139137           0
</event>
<event>
      5   9999  3.19816E-02  1.44692E+01 -1.00000E+00  1.78870E-01
      21    -1     0     0   502   501  0.000000000E+00  0.000000000E+00  5.595004727E+02  5.595004727E+02  0.000000000E+00  0.00000E+00  9.000E+00
      21    -1     0     0   501   511  0.000000000E+00  0.000000000E+00 -9.681345150E+01  9.681345150E+01  0.000000000E+00  0.00000E+00  9.000E+00
      25     1     1     2     0     0 -7.561379655E+01  1.324431936E+02  9.074948449E+01  2.170693776E+02  1.250000000E+02  0.00000E+00  9.000E+00
      25     1     1     2     0     0  7.254985760E+01 -1.465842496E+02  3.715567680E+02  4.247703567E+02  1.250000000E+02  0.00000E+00  9.000E+00
      21     1     1     2   502   511  3.063938952E+00  1.414105605E+01  3.807686688E-01  1.447418989E+01  1.793563830E-07  0.00000E+00  9.000E+00
#rwgt            1           1   2.9008808321938716E-002           7      139396           0
</event>
<event>
      5   9999  3.19816E-02  1.08667E+02 -1.00000E+00  1.22226E-01
      21    -1     0     0   502   501  0.000000000E+00  0.000000000E+00  1.980450096E+03  1.980450096E+03  0.000000000E+00  0.00000E+00  9.000E+00
      21    -1     0     0   512   502  0.000000000E+00  0.000000000E+00 -4.402513030E+02  4.402513030E+02  0.000000000E+00  0.00000E+00  9.000E+00
      25     1     1     2     0     0 -3.749059348E+02 -4.056334775E+02  1.352704402E+03  1.466467585E+03  1.250000000E+02  0.00000E+00  9.000E+00
      25     1     1     2     0     0  2.664073956E+02  3.995911895E+02  4.501388529E+02  6.699970194E+02  1.250000000E+02  0.00000E+00  9.000E+00
      21     1     1     2   512   501  1.084985392E+02  6.042287928E+00 -2.626444618E+02  2.842367949E+02  5.394796609E-06  0.00000E+00  9.000E+00
#rwgt            1           1   2.8365800455198310E-002           7      139587           0
</event>
<event>
      5   9999  3.19816E-02  8.24183E+01 -1.00000E+00  1.27727E-01
      21    -1     0     0   502   501  0.000000000E+00  0.000000000E+00  4.588431852E+02  4.588431852E+02  0.000000000E+00  0.00000E+00  9.000E+00
      21    -1     0     0   501   511  0.000000000E+00  0.000000000E+00 -1.171188779E+02  1.171188779E+02  0.000000000E+00  0.00000E+00  9.000E+00
      25     1     1     2     0     0 -9.183209093E+00 -4.330828819E+01  1.410393277E+01  1.333561400E+02  1.250000000E+02  0.00000E+00  9.000E+00
      25     1     1     2     0     0 -1.824265935E+01  1.210295695E+02  3.134669853E+02  3.589812003E+02  1.250000000E+02  0.00000E+00  9.000E+00
      21     1     1     2   502   511  2.742586844E+01 -7.772128130E+01  1.415338926E+01  8.362472274E+01  2.354194839E-06  0.00000E+00  9.000E+00
#rwgt            1           1   3.0687904168859227E-002           7      139653           0
</event>
<event>
      5   9999  3.19816E-02  1.46595E+01 -1.00000E+00  1.78328E-01
      21    -1     0     0   502   512  0.000000000E+00  0.000000000E+00  6.647923475E+02  6.647923475E+02  0.000000000E+00  0.00000E+00  9.000E+00
      21    -1     0     0   501   502  0.000000000E+00  0.000000000E+00 -2.734469621E+02  2.734469621E+02  0.000000000E+00  0.00000E+00  9.000E+00
      25     1     1     2     0     0 -3.271841594E+02  5.643085633E+01  7.571786177E+01  3.627562684E+02  1.250000000E+02  0.00000E+00  9.000E+00
      25     1     1     2     0     0  3.398407815E+02 -4.903419768E+01  1.278381249E+02  3.871223263E+02  1.250000000E+02  0.00000E+00  9.000E+00
      21     1     1     2   501   512 -1.265662216E+01 -7.396658645E+00  1.877893988E+02  1.883607150E+02  0.000000000E+00  0.00000E+00  9.000E+00
#rwgt            1           1   2.8660859603532825E-002           7      139717           0
</event>
<event>
      5   9999  3.19816E-02  4.05597E+01 -1.00000E+00  1.44467E-01
      21    -1     0     0   511   501  0.000000000E+00  0.000000000E+00  1.300976523E+03  1.300976523E+03  0.000000000E+00  0.00000E+00  9.000E+00
      21    -1     0     0   501   502  0.000000000E+00  0.000000000E+00 -1.090136877E+02  1.090136877E+02  0.000000000E+00  0.00000E+00  9.000E+00
      25     1     1     2     0     0 -1.181462140E+02 -4.087974628E+01  1.009917585E+02  2.036025953E+02  1.250000000E+02  0.00000E+00  9.000E+00
      25     1     1     2     0     0  1.585325298E+02  4.462552814E+01  1.292956913E+02  2.438572873E+02  1.250000000E+02  0.00000E+00  9.000E+00
      21     1     1     2   511   502 -4.038631582E+01 -3.745781852E+00  9.616753855E+02  9.625303281E+02  1.868812365E-05  0.00000E+00  9.000E+00
#rwgt            1           1   2.6451870373156449E-002           7      139922           0
</event>
<event>
      5   9999  3.19816E-02  8.05901E+01 -1.00000E+00  1.28195E-01
      21    -1     0     0   502   501  0.000000000E+00  0.000000000E+00  2.198627748E+02  2.198627748E+02  0.000000000E+00  0.00000E+00  9.000E+00
       2    -1     0     0   501     0  0.000000000E+00  0.000000000E+00 -1.002404660E+03  1.002404660E+03  0.000000000E+00  0.00000E+00  9.000E+00
      25     1     1     2     0     0 -1.165032520E+02 -2.038795163E+01  1.590280175E+02  2.343151439E+02  1.250000000E+02  0.00000E+00  9.000E+00
      25     1     1     2     0     0  4.137219790E+01  4.954415449E+01 -2.150620916E+02  2.569882979E+02  1.250000000E+02  0.00000E+00  9.000E+00
       2     1     1     2   502     0  7.513105411E+01 -2.915620285E+01 -7.265078107E+02  7.309639926E+02  1.078959322E-05  0.00000E+00  9.000E+00
#rwgt            1           1   3.5261053549713206E-002           7      140014           0
</event>
<event>
      5   9999  3.19816E-02  8.75384E+01 -1.00000E+00  1.26485E-01
      21    -1     0     0   511   501  0.000000000E+00  0.000000000E+00  9.071625203E+02  9.071625203E+02  0.000000000E+00  0.00000E+00  9.000E+00
      21    -1     0     0   501   502  0.000000000E+00  0.000000000E+00 -8.328635016E+02  8.328635016E+02  0.000000000E+00  0.00000E+00  9.000E+00
      25     1     1     2     0     0  6.746861527E+02 -2.446854790E+02 -4.268360145E+02  8.443259866E+02  1.250000000E+02  0.00000E+00  9.000E+00
      25     1     1     2     0     0 -5.873890764E+02  2.511809409E+02  4.695687562E+02  8.026441359E+02  1.250000000E+02  0.00000E+00  9.000E+00
      21     1     1     2   511   502 -8.729707637E+01 -6.495461914E+00  3.156627701E+01  9.305589940E+01  2.185142372E-06  0.00000E+00  9.000E+00
#rwgt            2          11   9.1763298365771708E-003           7      140133           0
</event>
<event>
      5   9999  3.19816E-02  1.57929E+02 -1.00000E+00  1.15514E-01
      21    -1     0     0   512   501  0.000000000E+00  0.000000000E+00  6.565146418E+02  6.565146418E+02  0.000000000E+00  0.00000E+00  9.000E+00
      21    -1     0     0   501   502  0.000000000E+00  0.000000000E+00 -3.470061338E+02  3.470061338E+02  0.000000000E+00  0.00000E+00  9.000E+00
      25     1     1     2     0     0  2.752153622E+02 -1.716050843E+02  2.883252021E+01  3.487808980E+02  1.250000000E+02  0.00000E+00  9.000E+00
      25     1     1     2     0     0 -2.534641301E+02  3.280293100E+02  1.922804780E+02  4.737552909E+02  1.250000000E+02  0.00000E+00  9.000E+00
      21     1     1     2   512   502 -2.175123217E+01 -1.564242257E+02  8.839550976E+01  1.809845868E+02  3.814697266E-06  0.00000E+00  9.000E+00
#rwgt            2          11   3.8191458960694182E-003           7      140333           0
</event>
<event>
      5   9999  3.19816E-02  1.50496E+02 -1.00000E+00  1.16337E-01
      21    -1     0     0   502   501  0.000000000E+00  0.000000000E+00  3.671516359E+02  3.671516359E+02  0.000000000E+00  0.00000E+00  9.000E+00
      21    -1     0     0   511   502  0.000000000E+00  0.000000000E+00 -1.399606434E+03  1.399606434E+03  0.000000000E+00  0.00000E+00  9.000E+00
      25     1     1     2     0     0 -2.721817523E+02  4.799155380E+02 -3.743328481E+02  6.783449794E+02  1.250000000E+02  0.00000E+00  9.000E+00
      25     1     1     2     0     0  3.707036949E+02 -5.936799389E+02 -4.941342813E+02  8.658353119E+02  1.250000000E+02  0.00000E+00  9.000E+00
      21     1     1     2   511   501 -9.852194257E+01  1.137644009E+02 -1.639876689E+02  2.225777789E+02  4.264961200E-06  0.00000E+00  9.000E+00
#rwgt            1           1   3.1443005680794736E-002           7      140353           0
</event>
<event>
      5   9999  3.19816E-02  1.52702E+02 -1.00000E+00  1.16087E-01
      21    -1     0     0   502   501  0.000000000E+00  0.000000000E+00  1.391465022E+03  1.391465022E+03  0.000000000E+00  0.00000E+00  9.000E+00
      21    -1     0     0   512   502  0.000000000E+00  0.000000000E+00 -4.038388588E+02  4.038388588E+02  0.000000000E+00  0.00000E+00  9.000E+00
      25     1     1     2     0     0  3.445149836E+02  1.814486100E+02  9.884288335E+02  1.069687212E+03  1.250000000E+02  0.00000E+00  9.000E+00
      25     1     1     2     0     0 -4.966588401E+02 -1.683997529E+02 -9.322424676E+01  5.471236062E+02  1.250000000E+02  0.00000E+00  9.000E+00
      21     1     1     2   512   501  1.521438566E+02 -1.304885705E+01  9.242157667E+01  1.784930632E+02  3.303624740E-06  0.00000E+00  9.000E+00
#rwgt            1           1   3.1955271932011010E-002           7      140428           0
</event>
<event>
      5   9999  3.19816E-02  5.19598E+01 -1.00000E+00  1.38129E-01
      21    -1     0     0   502   501  0.000000000E+00  0.000000000E+00  5.327899158E+02  5.327899158E+02  0.000000000E+00  0.00000E+00  9.000E+00
      21    -1     0     0   501   511  0.000000000E+00  0.000000000E+00 -1.057401457E+03  1.057401457E+03  0.000000000E+00  0.00000E+00  9.000E+00
      25     1     1     2     0     0  4.090002382E+02 -3.930640579E+02  1.778165466E+02  6.074736807E+02  1.250000000E+02  0.00000E+00  9.000E+00
      25     1     1     2     0     0 -4.400574954E+02  4.347206457E+02 -6.160484353E+02  8.819145728E+02  1.250000000E+02  0.00000E+00  9.000E+00
      21     1     1     2   502   511  3.105725723E+01 -4.165658777E+01 -8.637965251E+01  1.008031195E+02  9.536743164E-07  0.00000E+00  9.000E+00
#rwgt            1           1   2.8106665058982079E-002           7      140538           0
</event>
<event>
      5   9999  3.19816E-02  1.13882E+02 -1.00000E+00  1.21341E-01
      21    -1     0     0   512   501  0.000000000E+00  0.000000000E+00  1.328445180E+03  1.328445180E+03  0.000000000E+00  0.00000E+00  9.000E+00
      21    -1     0     0   501   502  0.000000000E+00  0.000000000E+00 -2.457948279E+02  2.457948279E+02  0.000000000E+00  0.00000E+00  9.000E+00
      25     1     1     2     0     0 -2.060523916E+00  1.329491059E+02 -1.899790242E+02  2.634326103E+02  1.250000000E+02  0.00000E+00  9.000E+00
      25     1     1     2     0     0 -1.084033109E+02 -1.052573535E+02  6.992023414E+02  7.261813152E+02  1.250000000E+02  0.00000E+00  9.000E+00
      21     1     1     2   512   502  1.104638348E+02 -2.769175245E+01  5.734270344E+02  5.846260820E+02  0.000000000E+00  0.00000E+00  9.000E+00
#rwgt            1           1   2.7814129036618753E-002           7      140708           0
</event>
<event>
      5   9999  3.19816E-02  1.95710E+01 -1.00000E+00  1.67150E-01
      21    -1     0     0   511   501  0.000000000E+00  0.000000000E+00  1.779534959E+02  1.779534959E+02  0.000000000E+00  0.00000E+00  9.000E+00
      21    -1     0     0   501   502  0.000000000E+00  0.000000000E+00 -6.419764334E+02  6.419764334E+02  0.000000000E+00  0.00000E+00  9.000E+00
      25     1     1     2     0     0  1.011303820E+02 -2.526171797E+02 -2.130277432E+02  3.674896094E+02  1.250000000E+02  0.00000E+00  9.000E+00
      25     1     1     2     0     0 -1.203357460E+02  2.563825329E+02 -2.800215980E+02  4.174323780E+02  1.250000000E+02  0.00000E+00  9.000E+00
      21     1     1     2   511   502  1.920536391E+01 -3.765353187E+00  2.902640361E+01  3.500794187E+01  6.743495762E-07  0.00000E+00  9.000E+00
#rwgt            1           1   2.6542376104168552E-002           7      140784           0
</event>
<event>
      5   9999  3.19816E-02  1.20271E+02 -1.00000E+00  1.20327E-01
      21    -1     0     0   502   512  0.000000000E+00  0.000000000E+00  1.264231856E+03  1.264231856E+03  0.000000000E+00  0.00000E+00  9.000E+00
      21    -1     0     0   501   502  0.000000000E+00  0.000000000E+00 -1.644235013E+03  1.644235013E+03  0.000000000E+00  0.00000E+00  9.000E+00
      25     1     1     2     0     0 -6.587612760E+02  2.801988237E+02 -1.001057952E+03  1.237020542E+03  1.250000000E+02  0.00000E+00  9.000E+00
      25     1     1     2     0     0  5.387280192E+02 -2.877570475E+02 -3.350860102E+02  7.077708890E+02  1.250000000E+02  0.00000E+00  9.000E+00
      21     1     1     2   501   512  1.200332568E+02  7.558223835E+00  9.561408050E+02  9.636754373E+02  0.000000000E+00  0.00000E+00  9.000E+00
#rwgt            1           1   2.3571285636391465E-002           7      140940           0
</event>
<event>
      5   9999  3.19816E-02  4.58152E+01 -1.00000E+00  1.41277E-01
      21    -1     0     0   502   501  0.000000000E+00  0.000000000E+00  1.556269064E+02  1.556269064E+02  0.000000000E+00  0.00000E+00  9.000E+00
      21    -1     0     0   511   502  0.000000000E+00  0.000000000E+00 -8.141105836E+02  8.141105836E+02  0.000000000E+00  0.00000E+00  9.000E+00
      25     1     1     2     0     0  4.585354712E+01 -1.968945590E+02  5.606082376E+00  2.377529039E+02  1.250000000E+02  0.00000E+00  9.000E+00
      25     1     1     2     0     0 -8.936749774E+01  2.112323033E+02 -5.831121381E+02  6.389447560E+02  1.250000000E+02  0.00000E+00  9.000E+00
      21     1     1     2   511   501  4.351395061E+01 -1.433774429E+01 -8.097762147E+01  9.303983012E+01  1.651812370E-06  0.00000E+00  9.000E+00
#rwgt            1           1   3.5787499647376105E-002           7      140994           0
</event>
<event>
      5   9999  3.19816E-02  1.39337E+02 -1.00000E+00  1.17677E-01
      21    -1     0     0   502   501  0.000000000E+00  0.000000000E+00  1.189895860E+03  1.189895860E+03  0.000000000E+00  0.00000E+00  9.000E+00
      21    -1     0     0   512   502  0.000000000E+00  0.000000000E+00 -2.562409177E+02  2.562409177E+02  0.000000000E+00  0.00000E+00  9.000E+00
      25     1     1     2     0     0 -6.076047380E+01 -2.895198372E+02  3.527410302E+02  4.770375307E+02  1.250000000E+02  0.00000E+00  9.000E+00
      25     1     1     2     0     0  6.240613346E+01  4.288470400E+02  6.670973891E+02  8.052628364E+02  1.250000000E+02  0.00000E+00  9.000E+00
      21     1     1     2   512   501 -1.645659658E+00 -1.393272027E+02 -8.618347716E+01  1.638364103E+02  2.861022949E-06  0.00000E+00  9.000E+00
#rwgt            1           1   2.9233861844288601E-002           7      141084           0
</event>
<event>
      5   9999  3.19816E-02  1.94097E+02 -1.00000E+00  1.12124E-01
      21    -1     0     0   502   511  0.000000000E+00  0.000000000E+00  3.615662942E+02  3.615662942E+02  0.000000000E+00  0.00000E+00  9.000E+00
      21    -1     0     0   501   502  0.000000000E+00  0.000000000E+00 -5.289536047E+02  5.289536047E+02  0.000000000E+00  0.00000E+00  9.000E+00
      25     1     1     2     0     0  1.030496847E+02  1.864583390E+02 -3.944882440E+02  4.654373474E+02  1.250000000E+02  0.00000E+00  9.000E+00
      25     1     1     2     0     0 -1.344765934E+01 -1.428074490E+01  2.530249579E-01  1.265300092E+02  1.250000000E+02  0.00000E+00  9.000E+00
      21     1     1     2   501   511 -8.960202541E+01 -1.721775941E+02  2.268479086E+02  2.985525423E+02  6.607249480E-06  0.00000E+00  9.000E+00
#rwgt            2          11   4.4549754563674724E-003           7      141191           0
</event>
<event>
      5   9999  3.19816E-02  2.57763E+02 -1.00000E+00  1.07778E-01
      21    -1     0     0   502   512  0.000000000E+00  0.000000000E+00  1.480227473E+03  1.480227473E+03  0.000000000E+00  0.00000E+00  9.000E+00
      21    -1     0     0   501   502  0.000000000E+00  0.000000000E+00 -1.836034928E+02  1.836034928E+02  0.000000000E+00  0.00000E+00  9.000E+00
      25     1     1     2     0     0  2.759778617E+02 -6.727766087E+01  1.253239850E+02  3.346956305E+02  1.250000000E+02  0.00000E+00  9.000E+00
      25     1     1     2     0     0 -1.535634863E+02 -1.595623149E+02  1.980241140E+02  3.223048656E+02  1.250000000E+02  0.00000E+00  9.000E+00
      21     1     1     2   501   512 -1.224143755E+02  2.268399757E+02  9.732758815E+02  1.006830470E+03  1.868812365E-05  0.00000E+00  9.000E+00
#rwgt            2          11   2.0013484228888238E-003           7      141271           0
</event>
<event>
      5   9999  3.19816E-02  1.98854E+02 -1.00000E+00  1.11739E-01
      21    -1     0     0   502   501  0.000000000E+00  0.000000000E+00  1.422848272E+02  1.422848272E+02  0.000000000E+00  0.00000E+00  9.000E+00
       2    -1     0     0   501     0  0.000000000E+00  0.000000000E+00 -5.731675063E+02  5.731675063E+02  0.000000000E+00  0.00000E+00  9.000E+00
      25     1     1     2     0     0 -5.170218439E+01  1.283796245E+02 -1.071415746E+02  2.150784993E+02  1.250000000E+02  0.00000E+00  9.000E+00
      25     1     1     2     0     0 -9.440278123E+01  6.514256507E+00 -5.517803235E+01  1.662045002E+02  1.250000000E+02  0.00000E+00  9.000E+00
       2     1     1     2   502     0  1.461049656E+02 -1.348938810E+02 -2.685630721E+02  3.341693340E+02  0.000000000E+00  0.00000E+00  9.000E+00
#rwgt            1           1   2.3208560747016060E-002           7      141291           0
</event>
<event>
      5   9999  3.19816E-02  1.36273E+01 -1.00000E+00  1.81402E-01
      21    -1     0     0   502   511  0.000000000E+00  0.000000000E+00  1.325040685E+02  1.325040685E+02  0.000000000E+00  0.00000E+00  9.000E+00
      21    -1     0     0   501   502  0.000000000E+00  0.000000000E+00 -6.868305630E+02  6.868305630E+02  0.000000000E+00  0.00000E+00  9.000E+00
      25     1     1     2     0     0  1.349411985E+02 -2.211519885E+02 -2.280777510E+02  3.670991550E+02  1.250000000E+02  0.00000E+00  9.000E+00
      25     1     1     2     0     0 -1.473931736E+02  2.156155590E+02 -3.290662003E+02  4.383199529E+02  1.250000000E+02  0.00000E+00  9.000E+00
      21     1     1     2   501   511  1.245197512E+01  5.536429506E+00  2.817456802E+00  1.391552366E+01  1.632340424E-07  0.00000E+00  9.000E+00
#rwgt            1           1   3.1380899519002671E-002           7      141330           0
</event>
<event>
      5   9999  3.19816E-02  3.68388E+01 -1.00000E+00  1.47093E-01
      21    -1     0     0   502   501  0.000000000E+00  0.000000000E+00  9.078409809E+02  9.078409809E+02  0.000000000E+00  0.00000E+00  9.000E+00
      21    -1     0     0   512   502  0.000000000E+00  0.000000000E+00 -8.498381690E+01  8.498381690E+01  0.000000000E+00  0.00000E+00  9.000E+00
      25     1     1     2     0     0 -2.711035538E+01 -1.747028147E+02  5.998222639E+02  6.377050989E+02  1.250000000E+02  0.00000E+00  9.000E+00
      25     1     1     2     0     0  5.795185316E+01  1.948497744E+02  2.022765403E+02  3.128348616E+02  1.250000000E+02  0.00000E+00  9.000E+00
      21     1     1     2   512   501 -3.084149778E+01 -2.014695971E+01  2.075835988E+01  4.228483742E+01  2.384185791E-07  0.00000E+00  9.000E+00
#rwgt            1           1   3.4451658439383040E-002           7      141499           0
</event>
<event>
      5   9999  3.19816E-02  2.96100E+01 -1.00000E+00  1.53436E-01
      21    -1     0     0   502   501  0.000000000E+00  0.000000000E+00  2.183292124E+02  2.183292124E+02  0.000000000E+00  0.00000E+00  9.000E+00
      21    -1     0     0   501   511  0.000000000E+00  0.000000000E+00 -1.273632441E+03  1.273632441E+03  0.000000000E+00  0.00000E+00  9.000E+00
      25     1     1     2     0     0 -3.696633604E+02 -1.040582631E+02 -2.343449151E+02  4.669278974E+02  1.250000000E+02  0.00000E+00  9.000E+00
      25     1     1     2     0     0  3.403526184E+02  1.082575275E+02 -2.504842234E+02  4.537917399E+02  1.250000000E+02  0.00000E+00  9.000E+00
      21     1     1     2   502   511  2.931074201E+01 -4.199264459E+00 -5.704740904E+02  5.712420163E+02  1.078959322E-05  0.00000E+00  9.000E+00
#rwgt            1           1   2.0970025038192681E-002           7      141655           0
</event>
<event>
      5   9999  3.19816E-02  4.67928E+01 -1.00000E+00  1.40738E-01
      21    -1     0     0   502   501  0.000000000E+00  0.000000000E+00  2.306108532E+02  2.306108532E+02  0.000000000E+00  0.00000E+00  9.000E+00
       2    -1     0     0   501     0  0.000000000E+00  0.000000000E+00 -1.485040015E+03  1.485040015E+03  0.000000000E+00  0.00000E+00  9.000E+00
      25     1     1     2     0     0  3.714288781E+02 -2.198811391E+02 -8.250267158E+01  4.568794345E+02  1.250000000E+02  0.00000E+00  9.000E+00
      25     1     1     2     0     0 -3.398419740E+02  1.853581955E+02 -1.101532472E+03  1.174244018E+03  1.250000000E+02  0.00000E+00  9.000E+00
       2     1     1     2   502     0 -3.158690413E+01  3.452294360E+01 -7.039401832E+01  8.452741545E+01  9.536743164E-07  0.00000E+00  9.000E+00
#rwgt            1           1   2.3650678748525670E-002           7      141745           0
</event>
<event>
      5   9999  3.19816E-02  2.31941E+01 -1.00000E+00  1.61229E-01
      21    -1     0     0   502   501  0.000000000E+00  0.000000000E+00  7.916374806E+01  7.916374806E+01  0.000000000E+00  0.00000E+00  9.000E+00
      21    -1     0     0   501   511  0.000000000E+00  0.000000000E+00 -1.652921267E+03  1.652921267E+03  0.000000000E+00  0.00000E+00  9.000E+00
      25     1     1     2     0     0  1.877674899E+02  1.479955042E+02 -2.610371306E+02  3.753993648E+02  1.250000000E+02  0.00000E+00  9.000E+00
      25     1     1     2     0     0 -2.095990172E+02 -1.401627764E+02 -8.923682649E+02  9.356941125E+02  1.250000000E+02  0.00000E+00  9.000E+00
      21     1     1     2   502   511  2.183152723E+01 -7.832727769E+00 -4.203521230E+02  4.209915373E+02  5.394796609E-06  0.00000E+00  9.000E+00
#rwgt            1           1   3.4061351198950193E-002           7      141915           0
</event>
<event>
      5   9999  3.19816E-02  5.21952E+02 -1.00000E+00  9.83248E-02
       2    -1     0     0   502     0  0.000000000E+00  0.000000000E+00  4.479694256E+02  4.479694256E+02  0.000000000E+00  0.00000E+00  9.000E+00
      21    -1     0     0   501   502  0.000000000E+00  0.000000000E+00 -2.185931108E+03  2.185931108E+03  0.000000000E+00  0.00000E+00  9.000E+00
      25     1     1     2     0     0  9.555654533E+01  1.757491568E+02 -1.121650466E+03  1.146186541E+03  1.250000000E+02  0.00000E+00  9.000E+00
      25     1     1     2     0     0 -3.077780713E+02  3.011109088E+02 -8.142192914E+02  9.295015734E+02  1.250000000E+02  0.00000E+00  9.000E+00
       2     1     1     2   501     0  2.122215260E+02 -4.768600655E+02  1.979080752E+02  5.582124187E+02  7.629394531E-06  0.00000E+00  9.000E+00
#rwgt            2          18   1.4104927373042946E-003           7      142132           0
</event>
<event>
      5   9999  3.19816E-02  1.30309E+02 -1.00000E+00  1.18868E-01
      21    -1     0     0   502   501  0.000000000E+00  0.000000000E+00  2.757346780E+02  2.757346780E+02  0.000000000E+00  0.00000E+00  9.000E+00
      21    -1     0     0   501   511  0.000000000E+00  0.000000000E+00 -1.054429830E+03  1.054429830E+03  0.000000000E+00  0.00000E+00  9.000E+00
      25     1     1     2     0     0 -4.515832053E+02 -8.789625443E-01 -3.109159110E+02  5.623360806E+02  1.250000000E+02  0.00000E+00  9.000E+00
      25     1     1     2     0     0  3.554344836E+02  8.883263617E+01 -1.342100269E+02  4.097099471E+02  1.250000000E+02  0.00000E+00  9.000E+00
      21     1     1     2   502   511  9.614872162E+01 -8.795367362E+01 -3.335692143E+02  3.581184805E+02  3.814697266E-06  0.00000E+00  9.000E+00
#rwgt            1           1   2.8785718881279294E-002           7      142151           0
</event>
<event>
      5   9999  3.19816E-02  1.20500E+01 -1.00000E+00  1.86839E-01
      21    -1     0     0   502   501  0.000000000E+00  0.000000000E+00  2.845966230E+02  2.845966230E+02  0.000000000E+00  0.00000E+00  9.000E+00
      21    -1     0     0   501   512  0.000000000E+00  0.000000000E+00 -3.229682326E+02  3.229682326E+02  0.000000000E+00  0.00000E+00  9.000E+00
      25     1     1     2     0     0  3.075139845E+01 -2.572811619E+02  4.778289907E+01  2.916289598E+02  1.250000000E+02  0.00000E+00  9.000E+00
      25     1     1     2     0     0 -3.833240074E+01  2.479147334E+02 -5.927352681E+01  2.864776413E+02  1.250000000E+02  0.00000E+00  9.000E+00
      21     1     1     2   502   512  7.581002292E+00  9.366428475E+00 -2.688098184E+01  2.945825458E+01  0.000000000E+00  0.00000E+00  9.000E+00
#rwgt            1           1   3.1660714719585897E-002           7      142208           0
</event>
<event>
      5   9999  3.19816E-02  2.09438E+02 -1.00000E+00  1.10924E-01
      21    -1     0     0   502   511  0.000000000E+00  0.000000000E+00  8.367054614E+02  8.367054614E+02  0.000000000E+00  0.00000E+00  9.000E+00
      21    -1     0     0   501   502  0.000000000E+00  0.000000000E+00 -1.033249688E+03  1.033249688E+03  0.000000000E+00  0.00000E+00  9.000E+00
      25     1     1     2     0     0  4.353271052E+02 -2.738827469E+02 -7.152622085E+02  8.898013680E+02  1.250000000E+02  0.00000E+00  9.000E+00
      25     1     1     2     0     0 -5.375543494E+02  9.108803186E+01  1.907028185E+02  5.909773880E+02  1.250000000E+02  0.00000E+00  9.000E+00
      21     1     1     2   501   511  1.022272442E+02  1.827947151E+02  3.280151636E+02  3.891763930E+02  0.000000000E+00  0.00000E+00  9.000E+00
#rwgt            2          11   3.8416299841101502E-003           7      142413           0
</event>
<event>
      5   9999  3.19816E-02  1.24404E+02 -1.00000E+00  1.19708E-01
      21    -1     0     0   502   501  0.000000000E+00  0.000000000E+00  5.367046969E+02  5.367046969E+02  0.000000000E+00  0.00000E+00  9.000E+00
       1    -1     0     0   501     0  0.000000000E+00  0.000000000E+00 -9.582056215E+02  9.582056215E+02  0.000000000E+00  0.00000E+00  9.000E+00
      25     1     1     2     0     0  2.962541052E+02 -4.318018781E-01  1.678853522E+02  3.627356789E+02  1.250000000E+02  0.00000E+00  9.000E+00
      25     1     1     2     0     0 -2.949121563E+02 -1.239650509E+02  1.554636535E+02  3.770072431E+02  1.250000000E+02  0.00000E+00  9.000E+00
       1     1     1     2   502     0 -1.341948859E+00  1.243968528E+02 -7.448499304E+02  7.551673964E+02  1.078959322E-05  0.00000E+00  9.000E+00
#rwgt            1           1   3.0327218566323377E-002           7      142463           0
</event>
<event>
      5   9999  3.19816E-02  5.34620E+01 -1.00000E+00  1.37437E-01
      21    -1     0     0   511   501  0.000000000E+00  0.000000000E+00  3.878926445E+01  3.878926445E+01  0.000000000E+00  0.00000E+00  9.000E+00
      21    -1     0     0   501   502  0.000000000E+00  0.000000000E+00 -1.383161490E+03  1.383161490E+03  0.000000000E+00  0.00000E+00  9.000E+00
      25     1     1     2     0     0 -1.467496573E+02  4.375091264E+01 -5.731993702E+02  6.063267455E+02  1.250000000E+02  0.00000E+00  9.000E+00
      25     1     1     2     0     0  9.529912676E+01 -5.827767194E+01 -7.275768197E+02  7.466399662E+02  1.250000000E+02  0.00000E+00  9.000E+00
      21     1     1     2   511   502  5.145053058E+01  1.452675930E+01 -4.359603574E+01  6.898404283E+01  1.719260824E-06  0.00000E+00  9.000E+00
#rwgt            1           1   3.5054721465910411E-002           7      142538           0
</event>
<event>
      5   9999  3.19816E-02  2.81079E+01 -1.00000E+00  1.55031E-01
      21    -1     0     0   502   512  0.000000000E+00  0.000000000E+00  6.946381335E+02  6.946381335E+02  0.000000000E+00  0.00000E+00  9.000E+00
      21    -1     0     0   501   502  0.000000000E+00  0.000000000E+00 -3.816538905E+02  3.816538905E+02  0.000000000E+00  0.00000E+00  9.000E+00
      25     1     1     2     0     0  3.417956242E+01 -4.773291311E+02  7.751446421E+01  5.006444187E+02  1.250000000E+02  0.00000E+00  9.000E+00
      25     1     1     2     0     0 -5.439738202E+01  4.578023733E+02  1.745595976E+02  5.085647857E+02  1.250000000E+02  0.00000E+00  9.000E+00
      21     1     1     2   501   512  2.021781959E+01  1.952675776E+01  6.091018119E+01  6.708281949E+01  0.000000000E+00  0.00000E+00  9.000E+00
#rwgt            1           1   2.7569330903739957E-002           7      142627           0
</event>
<event>
      5   9999  3.19816E-02  2.83958E+01 -1.00000E+00  1.54716E-01
      21    -1     0     0   502   511  0.000000000E+00  0.000000000E+00  6.169622093E+02  6.169622093E+02  0.000000000E+00  0.00000E+00  9.000E+00
      21    -1     0     0   501   502  0.000000000E+00  0.000000000E+00 -4.558344112E+02  4.558344112E+02  0.000000000E+00  0.00000E+00  9.000E+00
      25     1     1     2     0     0 -6.844634969E+01  3.579551095E+02  2.618278297E+02  4.658278390E+02  1.250000000E+02  0.00000E+00  9.000E+00
      25     1     1     2     0     0  7.768675186E+01 -3.311048153E+02 -2.594806867E+02  4.456689992E+02  1.250000000E+02  0.00000E+00  9.000E+00
      21     1     1     2   501   511 -9.240402169E+00 -2.685029426E+01  1.587806551E+02  1.612997823E+02  1.907348633E-06  0.00000E+00  9.000E+00
#rwgt            1           1   2.7203858551850431E-002           7      142787           0
</event>
<event>
      5   9999  3.19816E-02  5.17033E+01 -1.00000E+00  1.38250E-01
      21    -1     0     0   502   501  0.000000000E+00  0.000000000E+00  1.052492166E+03  1.052492166E+03  0.000000000E+00  0.00000E+00  9.000E+00
       1    -1     0     0   501     0  0.000000000E+00  0.000000000E+00 -2.768388995E+02  2.768388995E+02  0.000000000E+00  0.00000E+00  9.000E+00
      25     1     1     2     0     0  3.227076063E+02  1.174791472E+02  5.349771873E+02  6.478943897E+02  1.250000000E+02  0.00000E+00  9.000E+00
      25     1     1     2     0     0 -2.949189867E+02 -1.610799054E+02  3.862172413E+02  5.269845368E+02  1.250000000E+02  0.00000E+00  9.000E+00
       1     1     1     2   502     0 -2.778861966E+01  4.360075819E+01 -1.455411619E+02  1.544521392E+02  2.697398305E-06  0.00000E+00  9.000E+00
#rwgt            1           1   3.0190901322368048E-002           7      142861           0
</event>
<event>
      5   9999  3.19816E-02  5.56308E+01 -1.00000E+00  1.36482E-01
      21    -1     0     0   502   511  0.000000000E+00  0.000000000E+00  1.193784899E+03  1.193784899E+03  0.000000000E+00  0.00000E+00  9.000E+00
      21    -1     0     0   501   502  0.000000000E+00  0.000000000E+00 -1.622641587E+02  1.622641587E+02  0.000000000E+00  0.00000E+00  9.000E+00
      25     1     1     2     0     0 -4.450130067E+01 -1.091640155E+02 -9.825539453E+01  1.979299639E+02  1.250000000E+02  0.00000E+00  9.000E+00
      25     1     1     2     0     0 -9.490318465E+00  1.225687178E+02  1.020992314E+03  1.035936031E+03  1.250000000E+02  0.00000E+00  9.000E+00
      21     1     1     2   501   511  5.399161913E+01 -1.340470229E+01  1.087838209E+02  1.221830622E+02  1.348699152E-06  0.00000E+00  9.000E+00
#rwgt            1           1   2.9897940174081716E-002           7      142952           0
</event>
<event>
      5   9999  3.19816E-02  1.06494E+02 -1.00000E+00  1.22611E-01
      21    -1     0     0   512   501  0.000000000E+00  0.000000000E+00  5.742687796E+02  5.742687796E+02  0.000000000E+00  0.00000E+00  9.000E+00
      21    -1     0     0   501   502  0.000000000E+00  0.000000000E+00 -2.009429245E+03  2.009429245E+03  0.000000000E+00  0.00000E+00  9.000E+00
      25     1     1     2     0     0  4.422498428E+02  6.869810534E+02 -7.181991071E+02  1.094971620E+03  1.250000000E+02  0.00000E+00  9.000E+00
      25     1     1     2     0     0 -3.537067251E+02 -7.461514370E+02 -9.303679851E+02  1.250223981E+03  1.250000000E+02  0.00000E+00  9.000E+00
      21     1     1     2   512   502 -8.854311775E+01  5.917038353E+01  2.134066266E+02  2.385024240E+02  3.814697266E-06  0.00000E+00  9.000E+00
#rwgt            1           1   2.9379079873093693E-002           7      143050           0
</event>
<event>
      5   9999  3.19816E-02  7.45495E+02 -1.00000E+00  9.41615E-02
      21    -1     0     0   502   501  0.000000000E+00  0.000000000E+00  7.102077921E+02  7.102077921E+02  0.000000000E+00  0.00000E+00  9.000E+00
       2    -1     0     0   501     0  0.000000000E+00  0.000000000E+00 -1.246812632E+03  1.246812632E+03  0.000000000E+00  0.00000E+00  9.000E+00
      25     1     1     2     0     0  4.664606305E+02 -7.700225552E+02 -4.094738008E+02  9.969022264E+02  1.250000000E+02  0.00000E+00  9.000E+00
      25     1     1     2     0     0 -5.924996426E+01  1.455685476E+02 -6.909461401E+01  2.123671962E+02  1.250000000E+02  0.00000E+00  9.000E+00
       2     1     1     2   502     0 -4.072106662E+02  6.244540076E+02 -5.803642553E+01  7.477510020E+02  1.367117995E-05  0.00000E+00  9.000E+00
#rwgt            1           1   2.8452824666342004E-002           7      143157           0
</event>
<event>
      5   9999  3.19816E-02  4.23914E+01 -1.00000E+00  1.43293E-01
      21    -1     0     0   511   501  0.000000000E+00  0.000000000E+00  4.238243430E+02  4.238243430E+02  0.000000000E+00  0.00000E+00  9.000E+00
      21    -1     0     0   501   502  0.000000000E+00  0.000000000E+00 -3.704783855E+02  3.704783855E+02  0.000000000E+00  0.00000E+00  9.000E+00
      25     1     1     2     0     0 -3.334566714E+02 -1.227117005E+02 -3.879348131E+01  3.786574274E+02  1.250000000E+02  0.00000E+00  9.000E+00
      25     1     1     2     0     0  3.030620946E+02  1.522616742E+02  7.137752507E+01  3.684426709E+02  1.250000000E+02  0.00000E+00  9.000E+00
      21     1     1     2   511   502  3.039457675E+01 -2.954997364E+01  2.076191373E+01  4.720263022E+01  7.907449699E-07  0.00000E+00  9.000E+00
#rwgt            1           1   2.6336214363710291E-002           7      143188           0
</event>
<event>
      5   9999  3.19816E-02  5.07827E+01 -1.00000E+00  1.38692E-01
      21    -1     0     0   502   501  0.000000000E+00  0.000000000E+00  3.224700200E+02  3.224700200E+02  0.000000000E+00  0.00000E+00  9.000E+00
      21    -1     0     0   501   512  0.000000000E+00  0.000000000E+00 -1.939789047E+03  1.939789047E+03  0.000000000E+00  0.00000E+00  9.000E+00
      25     1     1     2     0     0  7.280865160E+02  1.117213428E+02 -7.612543877E+02  1.066641869E+03  1.250000000E+02  0.00000E+00  9.000E+00
      25     1     1     2     0     0 -7.525572987E+02 -1.562192444E+02 -7.664833134E+02  1.092642947E+03  1.250000000E+02  0.00000E+00  9.000E+00
      21     1     1     2   502   512  2.447078270E+01  4.449790166E+01 -8.958132553E+01  1.029742509E+02  9.536743164E-07  0.00000E+00  9.000E+00
#rwgt            1           1   2.7715525680604307E-002           7      143329           0
</event>
<event>
      5   9999  3.19816E-02  2.27222E+01 -1.00000E+00  1.61923E-01
      21    -1     0     0   502   511  0.000000000E+00  0.000000000E+00  3.300279728E+02  3.300279728E+02  0.000000000E+00  0.00000E+00  9.000E+00
      21    -1     0     0   501   502  0.000000000E+00  0.000000000E+00 -1.963561691E+02  1.963561691E+02  0.000000000E+00  0.00000E+00  9.000E+00
      25     1     1     2     0     0 -1.536674415E+02 -2.076670748E+01 -9.359339869E+01  2.200674056E+02  1.250000000E+02  0.00000E+00  9.000E+00
      25     1     1     2     0     0  1.325024337E+02  1.249975811E+01  1.995564761E+02  2.704827648E+02  1.250000000E+02  0.00000E+00  9.000E+00
      21     1     1     2   501   511  2.116500777E+01  8.266949375E+00  2.770872620E+01  3.583397150E+01  4.768371582E-07  0.00000E+00  9.000E+00
#rwgt            1           1   2.3542505892832286E-002           7      143447           0
</event>
<event>
      5   9999  3.19816E-02  1.61664E+02 -1.00000E+00  1.15119E-01
      21    -1     0     0   502   512  0.000000000E+00  0.000000000E+00  3.125955530E+02  3.125955530E+02  0.000000000E+00  0.00000E+00  9.000E+00
      21    -1     0     0   501   502  0.000000000E+00  0.000000000E+00 -9.324761791E+02  9.324761791E+02  0.000000000E+00  0.00000E+00  9.000E+00
      25     1     1     2     0     0 -3.720004339E+02  5.330560307E+01 -6.020574729E+02  7.206413885E+02  1.250000000E+02  0.00000E+00  9.000E+00
      25     1     1     2     0     0  2.120241034E+02 -3.000651999E+01 -1.714175851E+02  3.014358972E+02  1.250000000E+02  0.00000E+00  9.000E+00
      21     1     1     2   501   512  1.599763306E+02 -2.329908307E+01  1.535944318E+02  2.229944464E+02  4.672030912E-06  0.00000E+00  9.000E+00
#rwgt            2          11   4.1553633788602197E-003           7      143596           0
</event>
<event>
      5   9999  3.19816E-02  5.22592E+01 -1.00000E+00  1.37989E-01
      21    -1     0     0   511   501  0.000000000E+00  0.000000000E+00  2.661925921E+02  2.661925921E+02  0.000000000E+00  0.00000E+00  9.000E+00
      21    -1     0     0   501   502  0.000000000E+00  0.000000000E+00 -7.540502545E+02  7.540502545E+02  0.000000000E+00  0.00000E+00  9.000E+00
      25     1     1     2     0     0 -2.589840947E+02  1.735477060E+02 -3.403502676E+02  4.781787032E+02  1.250000000E+02  0.00000E+00  9.000E+00
      25     1     1     2     0     0  2.245334888E+02 -2.128437651E+02 -2.567094030E+02  4.210017500E+02  1.250000000E+02  0.00000E+00  9.000E+00
      21     1     1     2   511   502  3.445060587E+01  3.929605908E+01  1.092020082E+02  1.210623934E+02  2.336015456E-06  0.00000E+00  9.000E+00
#rwgt            1           1   2.8243408973183753E-002           7      143616           0
</event>
<event>
      5   9999  3.19816E-02  3.02750E+02 -1.00000E+00  1.05463E-01
       1    -1     0     0   502     0  0.000000000E+00  0.000000000E+00  1.780932213E+03  1.780932213E+03  0.000000000E+00  0.00000E+00  9.000E+00
      21    -1     0     0   501   502  0.000000000E+00  0.000000000E+00 -7.798309126E+02  7.798309126E+02  0.000000000E+00  0.00000E+00  9.000E+00
      25     1     1     2     0     0 -2.480134626E+02 -3.679156142E+02  6.113208977E+01  4.650104399E+02  1.250000000E+02  0.00000E+00  9.000E+00
      25     1     1     2     0     0 -2.518662123E+01  2.374580966E+02 -5.301782621E+02  5.947560031E+02  1.250000000E+02  0.00000E+00  9.000E+00
       1     1     1     2   501     0  2.732000838E+02  1.304575176E+02  1.470147473E+03  1.500996683E+03  0.000000000E+00  0.00000E+00  9.000E+00
#rwgt            2          17   1.5033392267441716E-003           7      143805           0
</event>
<event>
      5   9999  3.19816E-02  5.67415E+02 -1.00000E+00  9.73161E-02
       2    -1     0     0   502     0  0.000000000E+00  0.000000000E+00  2.573789744E+03  2.573789744E+03  0.000000000E+00  0.00000E+00  9.000E+00
      21    -1     0     0   501   502  0.000000000E+00  0.000000000E+00 -2.004795711E+02  2.004795711E+02  0.000000000E+00  0.00000E+00  9.000E+00
      25     1     1     2     0     0 -6.199173585E+02 -2.157127384E+01  1.062325489E+03  1.236496379E+03  1.250000000E+02  0.00000E+00  9.000E+00
      25     1     1     2     0     0  7.411124992E+01  1.766711954E+02  2.862125335E+02  3.663984211E+02  1.250000000E+02  0.00000E+00  9.000E+00
       2     1     1     2   501     0  5.458061086E+02 -1.550999215E+02  1.024772150E+03  1.171374515E+03  1.525878906E-05  0.00000E+00  9.000E+00
#rwgt            1           1   2.7561249611810803E-002           7      143824           0
</event>
<event>
      5   9999  3.19816E-02  4.08282E+01 -1.00000E+00  1.44290E-01
      21    -1     0     0   502   511  0.000000000E+00  0.000000000E+00  1.836653343E+02  1.836653343E+02  0.000000000E+00  0.00000E+00  9.000E+00
      21    -1     0     0   501   502  0.000000000E+00  0.000000000E+00 -6.729022988E+02  6.729022988E+02  0.000000000E+00  0.00000E+00  9.000E+00
      25     1     1     2     0     0  4.557201574E+01 -7.933504414E+01 -5.812731491E+02  6.015599153E+02  1.250000000E+02  0.00000E+00  9.000E+00
      25     1     1     2     0     0 -7.715719489E+01  1.052062787E+02  1.087547817E+02  2.108890617E+02  1.250000000E+02  0.00000E+00  9.000E+00
      21     1     1     2   501   511  3.158517915E+01 -2.587123456E+01 -1.671859716E+01  4.411865604E+01  6.743495762E-07  0.00000E+00  9.000E+00
#rwgt            1           1   2.9545401366501269E-002           7      143872           0
</event>
<event>
      5   9999  3.19816E-02  1.29797E+02 -1.00000E+00  1.18939E-01
      21    -1     0     0   512   501  0.000000000E+00  0.000000000E+00  3.809284157E+02  3.809284157E+02  0.000000000E+00  0.00000E+00  9.000E+00
      21    -1     0     0   501   502  0.000000000E+00  0.000000000E+00 -3.562493824E+02  3.562493824E+02  0.000000000E+00  0.00000E+00  9.000E+00
      25     1     1     2     0     0 -1.214416352E+02  1.222051616E+02 -1.615047107E+02  2.671908379E+02  1.250000000E+02  0.00000E+00  9.000E+00
      25     1     1     2     0     0  1.415931144E+01 -4.914556061E+01 -9.172518461E+01  1.632613908E+02  1.250000000E+02  0.00000E+00  9.000E+00
      21     1     1     2   512   502  1.072823238E+02 -7.305960100E+01  2.779089287E+02  3.067255694E+02  0.000000000E+00  0.00000E+00  9.000E+00
#rwgt            1           1   2.1165932817804056E-002           7      144030           0
</event>
<event>
      5   9999  3.19816E-02  1.78294E+02 -1.00000E+00  1.13495E-01
      21    -1     0     0   502   501  0.000000000E+00  0.000000000E+00  2.399804070E+02  2.399804070E+02  0.000000000E+00  0.00000E+00  9.000E+00
      21    -1     0     0   511   502  0.000000000E+00  0.000000000E+00 -3.302364702E+03  3.302364702E+03  0.000000000E+00  0.00000E+00  9.000E+00
      25     1     1     2     0     0 -1.784879601E+02  9.257171312E+01 -5.788574660E+02  6.254026223E+02  1.250000000E+02  0.00000E+00  9.000E+00
      25     1     1     2     0     0  3.540755937E+02 -6.162600232E+01  4.407522082E+01  3.830599369E+02  1.250000000E+02  0.00000E+00  9.000E+00
      21     1     1     2   511   501 -1.755876336E+02 -3.094571080E+01 -2.527602049E+03  2.533882549E+03  4.315837288E-05  0.00000E+00  9.000E+00
#rwgt            1           1   2.6246296417921876E-002           7      144068           0
</event>
<event>
      5   9999  3.19816E-02  8.85662E+01 -1.00000E+00  1.26247E-01
      21    -1     0     0   502   501  0.000000000E+00  0.000000000E+00  7.952988380E+01  7.952988380E+01  0.000000000E+00  0.00000E+00  9.000E+00
       1    -1     0     0   501     0  0.000000000E+00  0.000000000E+00 -2.189749682E+03  2.189749682E+03  0.000000000E+00  0.00000E+00  9.000E+00
      25     1     1     2     0     0 -3.215737073E+01 -5.265251725E+01 -3.611002055E+01  1.439976307E+02  1.250000000E+02  0.00000E+00  9.000E+00
      25     1     1     2     0     0  1.003029938E+02  1.092223688E+02 -3.602871777E+02  4.091724170E+02  1.250000000E+02  0.00000E+00  9.000E+00
       1     1     1     2   502     0 -6.814562305E+01 -5.656985157E+01 -1.713822600E+03  1.716109518E+03  0.000000000E+00  0.00000E+00  9.000E+00
#rwgt            1           1   3.4337409347375558E-002           7      144114           0
</event>
<event>
      5   9999  3.19816E-02  1.66939E+02 -1.00000E+00  1.14581E-01
      21    -1     0     0   502   501  0.000000000E+00  0.000000000E+00  1.646701032E+02  1.646701032E+02  0.000000000E+00  0.00000E+00  9.000E+00
       1    -1     0     0   501     0  0.000000000E+00  0.000000000E+00 -1.416978949E+03  1.416978949E+03  0.000000000E+00  0.00000E+00  9.000E+00
      25     1     1     2     0     0 -2.169858704E+02  1.106088578E+02 -1.179369374E+02  2.980793662E+02  1.250000000E+02  0.00000E+00  9.000E+00
      25     1     1     2     0     0  3.635163341E+02 -1.905939702E+02 -7.413016399E+02  8.565181305E+02  1.250000000E+02  0.00000E+00  9.000E+00
       1     1     1     2   502     0 -1.465304637E+02  7.998511245E+01 -3.930702683E+02  4.270515552E+02  5.394796609E-06  0.00000E+00  9.000E+00
#rwgt            2          12   3.8494007952707097E-004           7      144166           0
</event>
<event>
      5   9999  3.19816E-02  5.72487E+02 -1.00000E+00  9.72099E-02
      21    -1     0     0   511   501  0.000000000E+00  0.000000000E+00  1.123319354E+03  1.123319354E+03  0.000000000E+00  0.00000E+00  9.000E+00
      21    -1     0     0   501   502  0.000000000E+00  0.000000000E+00 -7.589195134E+02  7.589195134E+02  0.000000000E+00  0.00000E+00  9.000E+00
      25     1     1     2     0     0  8.505324232E+00  2.629704386E+02  2.519362119E+02  3.851267933E+02  1.250000000E+02  0.00000E+00  9.000E+00
      25     1     1     2     0     0  2.018102657E+02 -7.954254813E+02 -1.871997410E+02  8.509393766E+02  1.250000000E+02  0.00000E+00  9.000E+00
      21     1     1     2   511   502 -2.103155900E+02  5.324550427E+02  2.996633699E+02  6.461726976E+02  7.629394531E-06  0.00000E+00  9.000E+00
#rwgt            2          11   1.9595873651808739E-003           7      144290           0
</event>
<event>
      5   9999  3.19816E-02  9.14646E+01 -1.00000E+00  1.25596E-01
      21    -1     0     0   502   501  0.000000000E+00  0.000000000E+00  4.485770799E+02  4.485770799E+02  0.000000000E+00  0.00000E+00  9.000E+00
      21    -1     0     0   501   512  0.000000000E+00  0.000000000E+00 -6.201548481E+02  6.201548481E+02  0.000000000E+00  0.00000E+00  9.000E+00
      25     1     1     2     0     0 -1.252418268E+02  2.932035002E+02 -2.320196819E+02  4.136567908E+02  1.250000000E+02  0.00000E+00  9.000E+00
      25     1     1     2     0     0  8.690593352E+01 -3.762464473E+02  2.270069483E+02  4.650496586E+02  1.250000000E+02  0.00000E+00  9.000E+00
      21     1     1     2   502   512  3.833589329E+01  8.304294706E+01 -1.665650346E+02  1.900254786E+02  1.907348633E-06  0.00000E+00  9.000E+00
#rwgt            1           1   3.1175981427425219E-002           7      144325           0
</event>
<event>
      5   9999  3.19816E-02  1.22595E+02 -1.00000E+00  1.19975E-01
       2    -1     0     0   502     0  0.000000000E+00  0.000000000E+00  5.490800726E+02  5.490800726E+02  0.000000000E+00  0.00000E+00  9.000E+00
      21    -1     0     0   501   502  0.000000000E+00  0.000000000E+00 -4.320223195E+02  4.320223195E+02  0.000000000E+00  0.00000E+00  9.000E+00
      25     1     1     2     0     0 -8.461200472E+01 -2.313447086E+02 -1.208029482E+02  3.014928156E+02  1.250000000E+02  0.00000E+00  9.000E+00
      25     1     1     2     0     0  1.833145214E+02  3.040583749E+02 -3.742388320E+01  3.782608308E+02  1.250000000E+02  0.00000E+00  9.000E+00
       2     1     1     2   501     0 -9.870251665E+01 -7.271366623E+01  2.752845846E+02  3.013487457E+02  3.814697266E-06  0.00000E+00  9.000E+00
#rwgt            1           1   2.7899048254892575E-002           7      144387           0
</event>
<event>
      5   9999  3.19816E-02  4.59244E+01 -1.00000E+00  1.41216E-01
      21    -1     0     0   502   501  0.000000000E+00  0.000000000E+00  5.094613852E+02  5.094613852E+02  0.000000000E+00  0.00000E+00  9.000E+00
      21    -1     0     0   501   511  0.000000000E+00  0.000000000E+00 -9.819455453E+01  9.819455453E+01  0.000000000E+00  0.00000E+00  9.000E+00
      25     1     1     2     0     0  8.602108719E+01  6.431779704E+01  5.920410703E+01  1.751186248E+02  1.250000000E+02  0.00000E+00  9.000E+00
      25     1     1     2     0     0 -1.319274470E+02 -6.560640901E+01  3.280243554E+02  3.807020225E+02  1.250000000E+02  0.00000E+00  9.000E+00
      21     1     1     2   502   511  4.590635983E+01  1.288611969E+00  2.403836816E+01  5.183529239E+01  3.371747881E-07  0.00000E+00  9.000E+00
#rwgt            2          11   2.0329989252592818E-003           7      144485           0
</event>
<event>
      5   9999  3.19816E-02  8.40140E+01 -1.00000E+00  1.27329E-01
      21    -1     0     0   502   501  0.000000000E+00  0.000000000E+00  1.726724102E+03  1.726724102E+03  0.000000000E+00  0.00000E+00  9.000E+00
      21    -1     0     0   512   502  0.000000000E+00  0.000000000E+00 -9.733620061E+01  9.733620061E+01  0.000000000E+00  0.00000E+00  9.000E+00
      25     1     1     2     0     0 -3.321048686E+02  1.231871533E+02  1.000819149E+03  1.068986757E+03  1.250000000E+02  0.00000E+00  9.000E+00
      25     1     1     2     0     0  2.537677731E+02 -1.535458423E+02  5.629564402E+02  6.484746425E+02  1.250000000E+02  0.00000E+00  9.000E+00
      21     1     1     2   512   501  7.833709545E+01  3.035868902E+01  6.561231175E+01  1.065989023E+02  1.348699152E-06  0.00000E+00  9.000E+00
#rwgt            1           1   2.7045323585787515E-002           7      144550           0
</event>
<event>
      5   9999  3.19816E-02  8.71870E+00 -1.00000E+00  2.02903E-01
      21    -1     0     0   511   501  0.000000000E+00  0.000000000E+00  1.306876737E+03  1.306876737E+03  0.000000000E+00  0.00000E+00  9.000E+00
      21    -1     0     0   501   502  0.000000000E+00  0.000000000E+00 -7.372185667E+02  7.372185667E+02  0.000000000E+00  0.00000E+00  9.000E+00
      25     1     1     2     0     0  3.025236405E+01 -1.122640646E+02 -7.195475625E+02  7.395215483E+02  1.250000000E+02  0.00000E+00  9.000E+00
      25     1     1     2     0     0 -2.558811850E+01  1.196302436E+02  9.961352097E+02  1.011373572E+03  1.250000000E+02  0.00000E+00  9.000E+00
      21     1     1     2   511   502 -4.664245554E+00 -7.366178947E+00  2.930705229E+02  2.932001827E+02  0.000000000E+00  0.00000E+00  9.000E+00
#rwgt            1           1   2.3585980617802094E-002           7      144621           0
</event>
<event>
      5   9999  3.19816E-02  4.87811E+01 -1.00000E+00  1.39690E-01
      21    -1     0     0   502   501  0.000000000E+00  0.000000000E+00  1.555841118E+01  1.555841118E+01  0.000000000E+00  0.00000E+00  9.000E+00
      21    -1     0     0   512   502  0.000000000E+00  0.000000000E+00 -1.883732928E+03  1.883732928E+03  0.000000000E+00  0.00000E+00  9.000E+00
      25     1     1     2     0     0 -1.908421273E+01 -5.118231548E+01 -5.661253502E+02  5.823287291E+02  1.250000000E+02  0.00000E+00  9.000E+00
      25     1     1     2     0     0 -2.177761997E+01  7.782643227E+01 -9.785098144E+02  9.897664751E+02  1.250000000E+02  0.00000E+00  9.000E+00
      21     1     1     2   512   501  4.086183270E+01 -2.664411680E+01 -3.235393522E+02  3.271961350E+02  3.814697266E-06  0.00000E+00  9.000E+00
#rwgt            1           1  0.11278102387874715                7      144860           0
</event>
<event>
      5   9999  3.19816E-02  1.15352E+02 -1.00000E+00  1.21101E-01
      21    -1     0     0   502   501  0.000000000E+00  0.000000000E+00  2.533638407E+02  2.533638407E+02  0.000000000E+00  0.00000E+00  9.000E+00
      21    -1     0     0   511   502  0.000000000E+00  0.000000000E+00 -3.866717692E+02  3.866717692E+02  0.000000000E+00  0.00000E+00  9.000E+00
      25     1     1     2     0     0  4.409831206E+01  4.861473420E+01  1.651445325E+02  2.172688890E+02  1.250000000E+02  0.00000E+00  9.000E+00
      25     1     1     2     0     0 -1.239448776E+02  3.463527233E+01 -2.169789296E+02  2.815435857E+02  1.250000000E+02  0.00000E+00  9.000E+00
      21     1     1     2   511   501  7.984656554E+01 -8.325000653E+01 -8.147353141E+01  1.412231353E+02  1.907348633E-06  0.00000E+00  9.000E+00
#rwgt            1           1   2.7161267837233279E-002           7      144940           0
</event>
<event>
      5   9999  3.19816E-02  3.75275E+02 -1.00000E+00  1.02526E-01
      21    -1     0     0   502   501  0.000000000E+00  0.000000000E+00  6.179341355E+02  6.179341355E+02  0.000000000E+00  0.00000E+00  9.000E+00
      21    -1     0     0   512   502  0.000000000E+00  0.000000000E+00 -8.197571592E+02  8.197571592E+02  0.000000000E+00  0.00000E+00  9.000E+00
      25     1     1     2     0     0 -1.099517546E+02 -3.264348543E+02  4.616856927E+02  5.894300478E+02  1.250000000E+02  0.00000E+00  9.000E+00
      25     1     1     2     0     0 -8.528278892E+01  5.942884674E+00 -2.232065191E+02  2.697306474E+02  1.250000000E+02  0.00000E+00  9.000E+00
      21     1     1     2   512   501  1.952345435E+02  3.204919696E+02 -4.403021973E+02  5.785305994E+02  5.394796609E-06  0.00000E+00  9.000E+00
#rwgt            2          11   2.8932112678544263E-003           7      145036           0
</event>
<event>
      5   9999  3.19816E-02  5.79316E+01 -1.00000E+00  1.35523E-01
      21    -1     0     0   511   501  0.000000000E+00  0.000000000E+00  2.057608142E+03  2.057608142E+03  0.000000000E+00  0.00000E+00  9.000E+00
      21    -1     0     0   501   502  0.000000000E+00  0.000000000E+00 -1.583628329E+02  1.583628329E+02  0.000000000E+00  0.00000E+00  9.000E+00
      25     1     1     2     0     0 -2.633266625E+02  1.301726131E+02  1.756284943E+03  1.785062363E+03  1.250000000E+02  0.00000E+00  9.000E+00
      25     1     1     2     0     0  2.152287189E+02 -1.624629158E+02  2.351211963E+01  2.981533502E+02  1.250000000E+02  0.00000E+00  9.000E+00
      21     1     1     2   511   502  4.809794358E+01  3.229030274E+01  1.194482463E+02  1.327552612E+02  2.336015456E-06  0.00000E+00  9.000E+00
#rwgt            1           1   2.7560288608471286E-002           7      145191           0
</event>
<event>
      5   9999  3.19816E-02  2.11246E+02 -1.00000E+00  1.10790E-01
      21    -1     0     0   512   501  0.000000000E+00  0.000000000E+00  1.421801887E+03  1.421801887E+03  0.000000000E+00  0.00000E+00  9.000E+00
      21    -1     0     0   501   502  0.000000000E+00  0.000000000E+00 -1.583640968E+03  1.583640968E+03  0.000000000E+00  0.00000E+00  9.000E+00
      25     1     1     2     0     0  8.240985661E+02  5.589081012E+02 -1.115769923E+03  1.500694584E+03  1.250000000E+02  0.00000E+00  9.000E+00
      25     1     1     2     0     0 -6.282958516E+02 -4.796227973E+02  3.659377911E+02  8.799597557E+02  1.250000000E+02  0.00000E+00  9.000E+00
      21     1     1     2   512   502 -1.958027145E+02 -7.928530397E+01  5.879930507E+02  6.247885163E+02  1.321449896E-05  0.00000E+00  9.000E+00
#rwgt            1           1   2.8968192281147387E-002           7      145260           0
</event>
<event>
      5   9999  3.19816E-02  5.54310E+02 -1.00000E+00  9.75962E-02
      21    -1     0     0   502   511  0.000000000E+00  0.000000000E+00  6.052076415E+02  6.052076415E+02  0.000000000E+00  0.00000E+00  9.000E+00
      21    -1     0     0   501   502  0.000000000E+00  0.000000000E+00 -7.737795433E+02  7.737795433E+02  0.000000000E+00  0.00000E+00  9.000E+00
      25     1     1     2     0     0  1.060425893E+01  1.018965444E+01  9.742532873E+01  1.591633565E+02  1.250000000E+02  0.00000E+00  9.000E+00
      25     1     1     2     0     0 -1.127070284E+02  5.346357841E+02 -3.476034265E+02  6.595388070E+02  1.250000000E+02  0.00000E+00  9.000E+00
      21     1     1     2   501   511  1.021027695E+02 -5.448254385E+02  8.160619598E+01  5.602850214E+02  3.438521648E-06  0.00000E+00  9.000E+00
#rwgt            2          11   3.0324161421033703E-003           7      145482           0
</event>
<event>
      5   9999  3.19816E-02  1.09248E+02 -1.00000E+00  1.22124E-01
      21    -1     0     0   502   501  0.000000000E+00  0.000000000E+00  2.507369966E+03  2.507369966E+03  0.000000000E+00  0.00000E+00  9.000E+00
      21    -1     0     0   512   502  0.000000000E+00  0.000000000E+00 -2.261947418E+02  2.261947418E+02  0.000000000E+00  0.00000E+00  9.000E+00
      25     1     1     2     0     0  3.116345877E+02 -3.044893028E+02  1.181762056E+03  1.265707869E+03  1.250000000E+02  0.00000E+00  9.000E+00
      25     1     1     2     0     0 -3.104965730E+02  1.952470366E+02  1.234635716E+03  1.294016954E+03  1.250000000E+02  0.00000E+00  9.000E+00
      21     1     1     2   512   501 -1.138014753E+00  1.092422662E+02 -1.352225483E+02  1.738398843E+02  0.000000000E+00  0.00000E+00  9.000E+00
#rwgt            1           1   7.9008784951687505E-002           7      145502           0
</event>
<event>
      5   9999  3.19816E-02  9.00946E+01 -1.00000E+00  1.25900E-01
       3    -1     0     0   502     0  0.000000000E+00  0.000000000E+00  6.036103106E+02  6.036103106E+02  0.000000000E+00  0.00000E+00  9.000E+00
      21    -1     0     0   501   502  0.000000000E+00  0.000000000E+00 -7.408185043E+02  7.408185043E+02  0.000000000E+00  0.00000E+00  9.000E+00
      25     1     1     2     0     0 -9.317453760E+01 -2.739581528E+02 -5.744192765E+02  6.552229156E+02  1.250000000E+02  0.00000E+00  9.000E+00
      25     1     1     2     0     0  1.894189661E+01  2.229037881E+02  1.414325437E+01  2.566513703E+02  1.250000000E+02  0.00000E+00  9.000E+00
       3     1     1     2   501     0  7.423264098E+01  5.105436463E+01  4.230678285E+02  4.325545291E+02  0.000000000E+00  0.00000E+00  9.000E+00
#rwgt            1           1   3.0064566173609291E-002           7      145602           0
</event>
<event>
      5   9999  3.19816E-02  2.34200E+02 -1.00000E+00  1.09208E-01
      21    -1     0     0   502   501  0.000000000E+00  0.000000000E+00  2.770214651E+03  2.770214651E+03  0.000000000E+00  0.00000E+00  9.000E+00
      21    -1     0     0   501   511  0.000000000E+00  0.000000000E+00 -1.431691013E+03  1.431691013E+03  0.000000000E+00  0.00000E+00  9.000E+00
      25     1     1     2     0     0  7.311461617E+02  3.762682905E+02  2.008164616E+03  2.173592110E+03  1.250000000E+02  0.00000E+00  9.000E+00
      25     1     1     2     0     0 -5.079433396E+02 -3.053448228E+02  5.307229488E+02  8.053159290E+02  1.250000000E+02  0.00000E+00  9.000E+00
      21     1     1     2   502   511 -2.232028221E+02 -7.092346769E+01 -1.200363926E+03  1.222997626E+03  1.525878906E-05  0.00000E+00  9.000E+00
#rwgt            1           1   3.5703179868305859E-002           7      145673           0
</event>
<event>
      5   9999  3.19816E-02  1.01405E+02 -1.00000E+00  1.23556E-01
      21    -1     0     0   502   501  0.000000000E+00  0.000000000E+00  2.813326040E+02  2.813326040E+02  0.000000000E+00  0.00000E+00  9.000E+00
      21    -1     0     0   512   502  0.000000000E+00  0.000000000E+00 -5.502549864E+02  5.502549864E+02  0.000000000E+00  0.00000E+00  9.000E+00
      25     1     1     2     0     0  1.430130105E+02 -3.083967466E+02 -5.184434150E+00  3.622335612E+02  1.250000000E+02  0.00000E+00  9.000E+00
      25     1     1     2     0     0 -6.207022521E+01  2.473135032E+02 -2.185459081E+02  3.583350327E+02  1.250000000E+02  0.00000E+00  9.000E+00
      21     1     1     2   512   501 -8.094278529E+01  6.108324337E+01 -4.519204018E+01  1.110189966E+02  2.023048729E-06  0.00000E+00  9.000E+00
#rwgt            1           1   2.7741706113735477E-002           7      145737           0
</event>
<event>
      5   9999  3.19816E-02  6.02052E+01 -1.00000E+00  1.34624E-01
      21    -1     0     0   502   501  0.000000000E+00  0.000000000E+00  3.629765361E+01  3.629765361E+01  0.000000000E+00  0.00000E+00  9.000E+00
      21    -1     0     0   501   511  0.000000000E+00  0.000000000E+00 -3.905052401E+03  3.905052401E+03  0.000000000E+00  0.00000E+00  9.000E+00
      25     1     1     2     0     0  6.729473763E+01 -8.622473281E+01 -1.890783848E+02  2.516722509E+02  1.250000000E+02  0.00000E+00  9.000E+00
      25     1     1     2     0     0 -1.103777014E+02  4.417083728E+01 -1.627228316E+03  1.636346935E+03  1.250000000E+02  0.00000E+00  9.000E+00
      21     1     1     2   502   511  4.308296379E+01  4.205389553E+01 -2.052448047E+03  2.053330869E+03  3.051757812E-05  0.00000E+00  9.000E+00
#rwgt            1           1   2.4886532638258185E-002           7      145813           0
</event>
<event>
      5   9999  3.19816E-02  2.01253E+02 -1.00000E+00  1.11549E-01
      21    -1     0     0   502   512  0.000000000E+00  0.000000000E+00  2.158183253E+03  2.158183253E+03  0.000000000E+00  0.00000E+00  9.000E+00
      21    -1     0     0   501   502  0.000000000E+00  0.000000000E+00 -4.046593962E+02  4.046593962E+02  0.000000000E+00  0.00000E+00  9.000E+00
      25     1     1     2     0     0 -4.029215213E+02  5.086194507E+02  3.245891740E+01  6.616026597E+02  1.250000000E+02  0.00000E+00  9.000E+00
      25     1     1     2     0     0  4.925622447E+02 -3.284327753E+02  1.238985886E+03  1.378838888E+03  1.250000000E+02  0.00000E+00  9.000E+00
      21     1     1     2   501   512 -8.964072344E+01 -1.801866754E+02  4.820790529E+02  5.224011012E+02  0.000000000E+00  0.00000E+00  9.000E+00
#rwgt            2          11   3.5351560788033434E-003           7      145981           0
</event>
<event>
      5   9999  3.19816E-02  2.44955E+00 -1.00000E+00  3.26420E-01
      21    -1     0     0   511   501  0.000000000E+00  0.000000000E+00  2.925177933E+01  2.925177933E+01  0.000000000E+00  0.00000E+00  9.000E+00
      21    -1     0     0   501   502  0.000000000E+00  0.000000000E+00 -1.572000493E+03  1.572000493E+03  0.000000000E+00  0.00000E+00  9.000E+00
      25     1     1     2     0     0 -1.056122490E+02 -5.461804840E+01 -1.015613058E+03  1.030161134E+03  1.250000000E+02  0.00000E+00  9.000E+00
      25     1     1     2     0     0  1.054101065E+02  5.217685346E+01 -5.355219597E+02  5.623544113E+02  1.250000000E+02  0.00000E+00  9.000E+00
      21     1     1     2   511   502  2.021424674E-01  2.441194936E+00  8.386304335E+00  8.736726772E+00  6.078504936E-07  0.00000E+00  9.000E+00
#rwgt            1           1   2.2640402257256526E-002           7      146016           0
</event>
<event>
      5   9999  3.19816E-02  9.89862E+01 -1.00000E+00  1.24027E-01
      21    -1     0     0   502   512  0.000000000E+00  0.000000000E+00  2.182895644E+02  2.182895644E+02  0.000000000E+00  0.00000E+00  9.000E+00
      21    -1     0     0   501   502  0.000000000E+00  0.000000000E+00 -1.383974520E+03  1.383974520E+03  0.000000000E+00  0.00000E+00  9.000E+00
      25     1     1     2     0     0 -2.724166889E+01  5.051456777E+01  1.323515496E+02  1.908815412E+02  1.250000000E+02  0.00000E+00  9.000E+00
      25     1     1     2     0     0  8.666689250E+00 -1.477423015E+02 -1.298020160E+03  1.312396371E+03  1.250000000E+02  0.00000E+00  9.000E+00
      21     1     1     2   501   512  1.857497964E+01  9.722773376E+01 -1.634553617E-02  9.898617251E+01  2.762063733E-06  0.00000E+00  9.000E+00
#rwgt            1           1   3.0267617259930230E-002           7      146501           0
</event>
<event>
      5   9999  3.19816E-02  1.33170E+02 -1.00000E+00  1.18479E-01
      21    -1     0     0   502   501  0.000000000E+00  0.000000000E+00  1.691011235E+02  1.691011235E+02  0.000000000E+00  0.00000E+00  9.000E+00
       1    -1     0     0   501     0  0.000000000E+00  0.000000000E+00 -2.130338747E+03  2.130338747E+03  0.000000000E+00  0.00000E+00  9.000E+00
      25     1     1     2     0     0  1.527499977E+02  4.510923438E+02 -4.601174255E+02  6.739064547E+02  1.250000000E+02  0.00000E+00  9.000E+00
      25     1     1     2     0     0 -1.972958114E+01 -4.574089001E+02 -9.981667534E+02  1.105248400E+03  1.250000000E+02  0.00000E+00  9.000E+00
       1     1     1     2   502     0 -1.330204166E+02  6.316556232E+00 -5.029534445E+02  5.202850156E+02  9.344061824E-06  0.00000E+00  9.000E+00
#rwgt            1           1   3.1055786940632723E-002           7      146578           0
</event>
<event>
      5   9999  3.19816E-02  4.06506E+01 -1.00000E+00  1.44407E-01
      21    -1     0     0   502   501  0.000000000E+00  0.000000000E+00  2.198346045E+02  2.198346045E+02  0.000000000E+00  0.00000E+00  9.000E+00
      21    -1     0     0   511   502  0.000000000E+00  0.000000000E+00 -4.314457788E+02  4.314457788E+02  0.000000000E+00  0.00000E+00  9.000E+00
      25     1     1     2     0     0  2.176601781E+02  9.753544801E+01  2.542267042E+01  2.704818458E+02  1.250000000E+02  0.00000E+00  9.000E+00
      25     1     1     2     0     0 -1.829994350E+02 -7.629624151E+01 -1.338793852E+02  2.699233214E+02  1.250000000E+02  0.00000E+00  9.000E+00
      21     1     1     2   511   501 -3.466074305E+01 -2.123920650E+01 -1.031544595E+02  1.108752160E+02  0.000000000E+00  0.00000E+00  9.000E+00
#rwgt            1           1   3.3239725392739089E-002           7      146633           0
</event>
<event>
      5   9999  3.19816E-02  9.18517E+01 -1.00000E+00  1.25511E-01
      21    -1     0     0   502   501  0.000000000E+00  0.000000000E+00  4.049186763E+02  4.049186763E+02  0.000000000E+00  0.00000E+00  9.000E+00
       2    -1     0     0   501     0  0.000000000E+00  0.000000000E+00 -9.342175007E+02  9.342175007E+02  0.000000000E+00  0.00000E+00  9.000E+00
      25     1     1     2     0     0  4.565342726E+01  4.901088811E+01 -1.087687033E+02  1.787230634E+02  1.250000000E+02  0.00000E+00  9.000E+00
      25     1     1     2     0     0  4.601379076E+01 -4.319240303E+01  3.538788276E+02  3.805759809E+02  1.250000000E+02  0.00000E+00  9.000E+00
       2     1     1     2   502     0 -9.166721801E+01 -5.818485076E+00 -7.744089488E+02  7.798371327E+02  1.525878906E-05  0.00000E+00  9.000E+00
#rwgt            1           1   2.2049333598872959E-002           7      146751           0
</event>
<event>
      5   9999  3.19816E-02  2.63856E+02 -1.00000E+00  1.07436E-01
      21    -1     0     0   502   511  0.000000000E+00  0.000000000E+00  3.600264077E+02  3.600264077E+02  0.000000000E+00  0.00000E+00  9.000E+00
      21    -1     0     0   501   502  0.000000000E+00  0.000000000E+00 -9.912405355E+02  9.912405355E+02  0.000000000E+00  0.00000E+00  9.000E+00
      25     1     1     2     0     0  2.434595726E+02  2.215535914E+02 -7.820349331E+02  8.576492255E+02  1.250000000E+02  0.00000E+00  9.000E+00
      25     1     1     2     0     0 -1.294153596E+00 -1.167878011E+02 -3.008802108E+01  1.736990337E+02  1.250000000E+02  0.00000E+00  9.000E+00
      21     1     1     2   501   511 -2.421654190E+02 -1.047657903E+02  1.809088264E+02  3.199186841E+02  2.697398305E-06  0.00000E+00  9.000E+00
#rwgt            2          11   5.0623451047448068E-003           7      146834           0
</event>
<event>
      5   9999  3.19816E-02  8.78690E+00 -1.00000E+00  2.02482E-01
      21    -1     0     0   502   501  0.000000000E+00  0.000000000E+00  6.016560507E+02  6.016560507E+02  0.000000000E+00  0.00000E+00  9.000E+00
      21    -1     0     0   501   512  0.000000000E+00  0.000000000E+00 -1.401858718E+02  1.401858718E+02  0.000000000E+00  0.00000E+00  9.000E+00
      25     1     1     2     0     0 -1.365791006E+02 -1.585163869E+02  4.095533352E+01  2.471510368E+02  1.250000000E+02  0.00000E+00  9.000E+00
      25     1     1     2     0     0  1.279044656E+02  1.599165076E+02  4.223318747E+02  4.857180809E+02  1.250000000E+02  0.00000E+00  9.000E+00
      21     1     1     2   502   512  8.674634952E+00 -1.400120743E+00 -1.817029369E+00  8.972804766E+00  1.919880320E-07  0.00000E+00  9.000E+00
#rwgt            1           1   2.4994981910436514E-002           7      146929           0
</event>
<event>
      5   9999  3.19816E-02  2.99701E+01 -1.00000E+00  1.53070E-01
      21    -1     0     0   511   501  0.000000000E+00  0.000000000E+00  1.214981721E+03  1.214981721E+03  0.000000000E+00  0.00000E+00  9.000E+00
      21    -1     0     0   501   502  0.000000000E+00  0.000000000E+00 -9.989288876E+01  9.989288876E+01  0.000000000E+00  0.00000E+00  9.000E+00
      25     1     1     2     0     0  1.958074876E+02 -1.259309168E+02  2.329275645E+02  3.522490856E+02  1.250000000E+02  0.00000E+00  9.000E+00
      25     1     1     2     0     0 -2.104373019E+02  1.520876596E+02  4.836522084E+02  5.629910949E+02  1.250000000E+02  0.00000E+00  9.000E+00
      21     1     1     2   511   502  1.462981428E+01 -2.615674276E+01  3.985090592E+02  3.996344291E+02  5.394796609E-06  0.00000E+00  9.000E+00
#rwgt            1           1   2.8704761377352637E-002           7      147158           0
</event>
<event>
      5   9999  3.19816E-02  2.98562E+01 -1.00000E+00  1.53185E-01
      21    -1     0     0   502   512  0.000000000E+00  0.000000000E+00  3.042718863E+02  3.042718863E+02  0.000000000E+00  0.00000E+00  9.000E+00
      21    -1     0     0   501   502  0.000000000E+00  0.000000000E+00 -3.111262072E+02  3.111262072E+02  0.000000000E+00  0.00000E+00  9.000E+00
      25     1     1     2     0     0 -1.860859490E-01  3.934068181E+01 -2.746825842E+02  3.043406741E+02  1.250000000E+02  0.00000E+00  9.000E+00
      25     1     1     2     0     0 -1.957122179E+01 -1.695673979E+01  2.050082644E+02  2.415035243E+02  1.250000000E+02  0.00000E+00  9.000E+00
      21     1     1     2   501   512  1.975730774E+01 -2.238394202E+01  6.281999884E+01  6.955389510E+01  0.000000000E+00  0.00000E+00  9.000E+00
#rwgt            1           1   2.9183086010602915E-002           7      147289           0
</event>
<event>
      5   9999  3.19816E-02  4.70379E+01 -1.00000E+00  1.40606E-01
      21    -1     0     0   511   501  0.000000000E+00  0.000000000E+00  4.856751399E+02  4.856751399E+02  0.000000000E+00  0.00000E+00  9.000E+00
      21    -1     0     0   501   502  0.000000000E+00  0.000000000E+00 -2.544310327E+02  2.544310327E+02  0.000000000E+00  0.00000E+00  9.000E+00
      25     1     1     2     0     0 -1.505045703E+01 -1.807545488E+02 -1.238828750E+02  2.527265120E+02  1.250000000E+02  0.00000E+00  9.000E+00
      25     1     1     2     0     0 -1.471793795E+01  1.443346478E+02  7.880940852E+01  2.070870134E+02  1.250000000E+02  0.00000E+00  9.000E+00
      21     1     1     2   511   502  2.976839498E+01  3.641990100E+01  2.763175736E+02  2.802926471E+02  0.000000000E+00  0.00000E+00  9.000E+00
#rwgt            1           1   2.8543420873149726E-002           7      147450           0
</event>
<event>
      5   9999  3.19816E-02  2.79376E+02 -1.00000E+00  1.06607E-01
       2    -1     0     0   502     0  0.000000000E+00  0.000000000E+00  1.830774873E+03  1.830774873E+03  0.000000000E+00  0.00000E+00  9.000E+00
      21    -1     0     0   501   502  0.000000000E+00  0.000000000E+00 -1.192569295E+02  1.192569295E+02  0.000000000E+00  0.00000E+00  9.000E+00
      25     1     1     2     0     0 -3.780547812E+02  6.956170196E+01  9.197873443E+02  1.004688015E+03  1.250000000E+02  0.00000E+00  9.000E+00
      25     1     1     2     0     0  1.521572561E+02  9.481946175E+01  2.260190885E+02  3.144076801E+02  1.250000000E+02  0.00000E+00  9.000E+00
       2     1     1     2   501     0  2.258975250E+02 -1.643811637E+02  5.657115110E+02  6.309361081E+02  7.629394531E-06  0.00000E+00  9.000E+00
#rwgt            2          18   1.1378273947288491E-003           7      147602           0
</event>
<event>
      5   9999  3.19816E-02  5.77170E+01 -1.00000E+00  1.35610E-01
      21    -1     0     0   502   501  0.000000000E+00  0.000000000E+00  3.168958426E+02  3.168958426E+02  0.000000000E+00  0.00000E+00  9.000E+00
      21    -1     0     0   501   511  0.000000000E+00  0.000000000E+00 -2.317023558E+02  2.317023558E+02  0.000000000E+00  0.00000E+00  9.000E+00
      25     1     1     2     0     0 -1.383858701E+02 -4.968032249E+01  1.113349566E+02  2.227986895E+02  1.250000000E+02  0.00000E+00  9.000E+00
      25     1     1     2     0     0  1.317261133E+02  1.070118544E+02  6.265342707E+01  2.198948791E+02  1.250000000E+02  0.00000E+00  9.000E+00
      21     1     1     2   502   511  6.659756812E+00 -5.733153189E+01 -8.879489685E+01  1.059046298E+02  9.536743164E-07  0.00000E+00  9.000E+00
#rwgt            1           1   3.0774441147030058E-002           7      147621           0
</event>
<event>
      5   9999  3.19816E-02  2.19623E+01 -1.00000E+00  1.63084E-01
      21    -1     0     0   502   501  0.000000000E+00  0.000000000E+00  3.813882239E+01  3.813882239E+01  0.000000000E+00  0.00000E+00  9.000E+00
      21    -1     0     0   512   502  0.000000000E+00  0.000000000E+00 -9.691171306E+02  9.691171306E+02  0.000000000E+00  0.00000E+00  9.000E+00
      25     1     1     2     0     0  3.371452628E+01 -3.867824588E+01 -1.201461266E+02  1.808114148E+02  1.250000000E+02  0.00000E+00  9.000E+00
      25     1     1     2     0     0 -1.212505135E+01  4.270784056E+01 -6.009287921E+02  6.153953117E+02  1.250000000E+02  0.00000E+00  9.000E+00
      21     1     1     2   512   501 -2.158947493E+01 -4.029594683E+00 -2.099033896E+02  2.110492265E+02  2.697398305E-06  0.00000E+00  9.000E+00
#rwgt            1           1   3.5697527946715948E-002           7      147684           0
</event>
<event>
      5   9999  3.19816E-02  2.51623E+01 -1.00000E+00  1.58541E-01
      21    -1     0     0   502   501  0.000000000E+00  0.000000000E+00  5.727075408E+02  5.727075408E+02  0.000000000E+00  0.00000E+00  9.000E+00
      21    -1     0     0   511   502  0.000000000E+00  0.000000000E+00 -3.454816042E+02  3.454816042E+02  0.000000000E+00  0.00000E+00  9.000E+00
      25     1     1     2     0     0  3.532683579E+02 -3.175006441E+01  3.062363706E+02  4.849869215E+02  1.250000000E+02  0.00000E+00  9.000E+00
      25     1     1     2     0     0 -3.767141689E+02  4.088421927E+01 -8.346817370E+01  4.076481577E+02  1.250000000E+02  0.00000E+00  9.000E+00
      21     1     1     2   511   501  2.344581103E+01 -9.134154866E+00  4.457739659E+00  2.555406588E+01  5.870376707E-07  0.00000E+00  9.000E+00
#rwgt            1           1   2.9568623427780803E-002           7      147780           0
</event>
<event>
      5   9999  3.19816E-02  1.89305E+01 -1.00000E+00  1.68363E-01
      21    -1     0     0   512   501  0.000000000E+00  0.000000000E+00  1.286785879E+03  1.286785879E+03  0.000000000E+00  0.00000E+00  9.000E+00
      21    -1     0     0   501   502  0.000000000E+00  0.000000000E+00 -2.187112472E+02  2.187112472E+02  0.000000000E+00  0.00000E+00  9.000E+00
      25     1     1     2     0     0  3.144850785E+01  4.329821339E+02  7.989263075E+02  9.178075952E+02  1.250000000E+02  0.00000E+00  9.000E+00
      25     1     1     2     0     0 -1.350149421E+01 -4.390044277E+02  1.708220743E+02  4.875575443E+02  1.250000000E+02  0.00000E+00  9.000E+00
      21     1     1     2   512   502 -1.794701364E+01  6.022293794E+00  9.832624969E+01  1.001319864E+02  0.000000000E+00  0.00000E+00  9.000E+00
#rwgt            1           1   3.0636524038516976E-002           7      147924           0
</event>
<event>
      5   9999  3.19816E-02  3.65007E+01 -1.00000E+00  1.47350E-01
      21    -1     0     0   502   511  0.000000000E+00  0.000000000E+00  1.138367803E+02  1.138367803E+02  0.000000000E+00  0.00000E+00  9.000E+00
      21    -1     0     0   501   502  0.000000000E+00  0.000000000E+00 -5.037967593E+02  5.037967593E+02  0.000000000E+00  0.00000E+00  9.000E+00
      25     1     1     2     0     0 -9.886611273E+01  4.460274565E+00  4.556551146E+00  1.594997318E+02  1.250000000E+02  0.00000E+00  9.000E+00
      25     1     1     2     0     0  1.320172212E+02  1.081403152E+01 -3.746590362E+02  4.165811846E+02  1.250000000E+02  0.00000E+00  9.000E+00
      21     1     1     2   501   511 -3.315110850E+01 -1.527430609E+01 -1.985749394E+01  4.155262310E+01  7.907449699E-07  0.00000E+00  9.000E+00
#rwgt            1           1   2.8611977727535688E-002           7      148123           0
</event>
<event>
      5   9999  3.19816E-02  1.27078E+02 -1.00000E+00  1.19321E-01
      21    -1     0     0   502   512  0.000000000E+00  0.000000000E+00  1.456747867E+02  1.456747867E+02  0.000000000E+00  0.00000E+00  9.000E+00
      21    -1     0     0   501   502  0.000000000E+00  0.000000000E+00 -5.711937268E+02  5.711937268E+02  0.000000000E+00  0.00000E+00  9.000E+00
      25     1     1     2     0     0 -1.071825839E+01 -8.025909552E+01 -1.203350009E+02  1.914730161E+02  1.250000000E+02  0.00000E+00  9.000E+00
      25     1     1     2     0     0  7.135258584E+01  1.919384311E+02 -3.172468891E+02  3.977463281E+02  1.250000000E+02  0.00000E+00  9.000E+00
      21     1     1     2   501   512 -6.063432745E+01 -1.116793356E+02  1.206294986E+01  1.276491693E+02  3.264680848E-06  0.00000E+00  9.000E+00
#rwgt            1           1   2.6090595750505510E-002           7      148280           0
</event>
<event>
      5   9999  3.19816E-02  1.53925E+01 -1.00000E+00  1.76333E-01
      21    -1     0     0   502   501  0.000000000E+00  0.000000000E+00  9.837531940E+01  9.837531940E+01  0.000000000E+00  0.00000E+00  9.000E+00
      21    -1     0     0   501   511  0.000000000E+00  0.000000000E+00 -3.200572671E+02  3.200572671E+02  0.000000000E+00  0.00000E+00  9.000E+00
      25     1     1     2     0     0 -9.963612228E+01 -4.336233948E+01 -1.144740840E+02  2.013379379E+02  1.250000000E+02  0.00000E+00  9.000E+00
      25     1     1     2     0     0  8.492789644E+01  4.790070866E+01 -6.353585575E+01  1.707894331E+02  1.250000000E+02  0.00000E+00  9.000E+00
      21     1     1     2   502   511  1.470822584E+01 -4.538369174E+00 -4.367200804E+01  4.630521556E+01  6.743495762E-07  0.00000E+00  9.000E+00
#rwgt            1           1   2.4504910363052562E-002           7      148324           0
</event>
<event>
      5   9999  3.19816E-02  2.91850E+01 -1.00000E+00  1.53875E-01
      21    -1     0     0   502   501  0.000000000E+00  0.000000000E+00  1.030358099E+03  1.030358099E+03  0.000000000E+00  0.00000E+00  9.000E+00
      21    -1     0     0   512   502  0.000000000E+00  0.000000000E+00 -4.933005966E+01  4.933005966E+01  0.000000000E+00  0.00000E+00  9.000E+00
      25     1     1     2     0     0 -8.161506078E+01 -1.191861631E+02  7.244144825E+02  7.491780176E+02  1.250000000E+02  0.00000E+00  9.000E+00
      25     1     1     2     0     0  8.725085329E+01  9.055052556E+01  2.034982926E+02  2.699049169E+02  1.250000000E+02  0.00000E+00  9.000E+00
      21     1     1     2   512   501 -5.635792513E+00  2.863563757E+01  5.311526413E+01  6.060522403E+01  9.536743164E-07  0.00000E+00  9.000E+00
#rwgt            1           1   2.7473600965823731E-002           7      148483           0
</event>
<event>
      5   9999  3.19816E-02  2.20798E+02 -1.00000E+00  1.10106E-01
      21    -1     0     0   502   501  0.000000000E+00  0.000000000E+00  1.140532031E+02  1.140532031E+02  0.000000000E+00  0.00000E+00  9.000E+00
       2    -1     0     0   501     0  0.000000000E+00  0.000000000E+00 -2.025300406E+03  2.025300406E+03  0.000000000E+00  0.00000E+00  9.000E+00
      25     1     1     2     0     0  5.022106506E+01 -3.928885941E+02 -5.516762015E+02  6.905470542E+02  1.250000000E+02  0.00000E+00  9.000E+00
      25     1     1     2     0     0 -8.075203925E+01  1.742116343E+02 -3.723523928E+02  4.371977696E+02  1.250000000E+02  0.00000E+00  9.000E+00
       2     1     1     2   502     0  3.053097419E+01  2.186769598E+02 -9.872186085E+02  1.011608785E+03  0.000000000E+00  0.00000E+00  9.000E+00
#rwgt            1           1   2.7452199750963354E-002           7      148547           0
</event>
<event>
      5   9999  3.19816E-02  3.07562E+01 -1.00000E+00  1.52293E-01
      21    -1     0     0   502   501  0.000000000E+00  0.000000000E+00  1.166401037E+03  1.166401037E+03  0.000000000E+00  0.00000E+00  9.000E+00
      21    -1     0     0   511   502  0.000000000E+00  0.000000000E+00 -1.626026193E+02  1.626026193E+02  0.000000000E+00  0.00000E+00  9.000E+00
      25     1     1     2     0     0  2.078155121E+02  3.020192177E+02  7.915340481E+02  8.812230389E+02  1.250000000E+02  0.00000E+00  9.000E+00
      25     1     1     2     0     0 -1.793527979E+02 -2.903650125E+02  1.976925686E+02  4.137470462E+02  1.250000000E+02  0.00000E+00  9.000E+00
      21     1     1     2   511   501 -2.846271429E+01 -1.165420517E+01  1.457180144E+01  3.403357166E+01  5.591411304E-07  0.00000E+00  9.000E+00
#rwgt            2          11   1.3428811101249185E-002           7      148680           0
</event>
<event>
      5   9999  3.19816E-02  4.19661E+02 -1.00000E+00  1.01062E-01
      21    -1     0     0   502   501  0.000000000E+00  0.000000000E+00  1.503982973E+03  1.503982973E+03  0.000000000E+00  0.00000E+00  9.000E+00
       2    -1     0     0   501     0  0.000000000E+00  0.000000000E+00 -2.081654382E+03  2.081654382E+03  0.000000000E+00  0.00000E+00  9.000E+00
      25     1     1     2     0     0 -1.040480368E+03  4.237957725E+02 -2.628698558E+02  1.160572192E+03  1.250000000E+02  0.00000E+00  9.000E+00
      25     1     1     2     0     0  6.590066840E+02 -2.488874190E+02  8.942652297E+02  1.145237992E+03  1.250000000E+02  0.00000E+00  9.000E+00
       2     1     1     2   502     0  3.814736836E+02 -1.749083534E+02 -1.209066783E+03  1.279827171E+03  1.525878906E-05  0.00000E+00  9.000E+00
#rwgt            2          13   2.1817197699483264E-003           7      149030           0
</event>
<event>
      5   9999  3.19816E-02  1.05716E+02 -1.00000E+00  1.22752E-01
      21    -1     0     0   502   511  0.000000000E+00  0.000000000E+00  4.051723150E+02  4.051723150E+02  0.000000000E+00  0.00000E+00  9.000E+00
      21    -1     0     0   501   502  0.000000000E+00  0.000000000E+00 -6.678483573E+02  6.678483573E+02  0.000000000E+00  0.00000E+00  9.000E+00
      25     1     1     2     0     0 -1.612696094E+02  8.800056699E+01 -5.835207925E+02  6.243985121E+02  1.250000000E+02  0.00000E+00  9.000E+00
      25     1     1     2     0     0  1.615774829E+02  1.771545685E+01  1.824571028E+02  2.744753446E+02  1.250000000E+02  0.00000E+00  9.000E+00
      21     1     1     2   501   511 -3.078735130E-01 -1.057160238E+02  1.383876472E+02  1.741468156E+02  0.000000000E+00  0.00000E+00  9.000E+00
#rwgt            1           1   3.0281823270908077E-002           7      149049           0
</event>
<event>
      5   9999  3.22079E-02  1.84042E+01 -1.00000E+00  1.69405E-01
      21    -1     0     0   512   501  0.000000000E+00  0.000000000E+00  5.163099486E+01  5.163099486E+01  0.000000000E+00  0.00000E+00  9.000E+00
      21    -1     0     0   501   502  0.000000000E+00  0.000000000E+00 -1.625276754E+03  1.625276754E+03  0.000000000E+00  0.00000E+00  9.000E+00
      25     1     1     2     0     0 -1.158785344E+02  1.015633732E+02 -3.805527427E+02  4.291716947E+02  1.250000000E+02  0.00000E+00  9.000E+00
      25     1     1     2     0     0  1.234026062E+02 -8.476750756E+01 -1.208252405E+03  1.223892401E+03  1.250000000E+02  0.00000E+00  9.000E+00
      21     1     1     2   512   502 -7.524071820E+00 -1.679586559E+01  1.515938867E+01  2.384365372E+01  1.238859277E-06  0.00000E+00  9.000E+00
#rwgt            1           1   2.6398372796743313E-002           7      149120           0
</event>
<event>
      5   9999  3.19816E-02  3.86990E+01 -1.00000E+00  1.45736E-01
      21    -1     0     0   502   511  0.000000000E+00  0.000000000E+00  1.319914513E+03  1.319914513E+03  0.000000000E+00  0.00000E+00  9.000E+00
      21    -1     0     0   501   502  0.000000000E+00  0.000000000E+00 -5.566599964E+02  5.566599964E+02  0.000000000E+00  0.00000E+00  9.000E+00
      25     1     1     2     0     0  1.957518677E+02 -1.800989739E+02 -4.554837731E+02  5.420746274E+02  1.250000000E+02  0.00000E+00  9.000E+00
      25     1     1     2     0     0 -2.339893872E+02  1.860575324E+02  3.996739106E+02  5.145217911E+02  1.250000000E+02  0.00000E+00  9.000E+00
      21     1     1     2   501   511  3.823751951E+01 -5.958558559E+00  8.190643792E+02  8.199780909E+02  1.078959322E-05  0.00000E+00  9.000E+00
#rwgt            1           1   3.5080544992424960E-002           7      149234           0
</event>
<event>
      5   9999  3.19816E-02  2.38258E+01 -1.00000E+00  1.60332E-01
      21    -1     0     0   512   501  0.000000000E+00  0.000000000E+00  3.428567150E+02  3.428567150E+02  0.000000000E+00  0.00000E+00  9.000E+00
      21    -1     0     0   501   502  0.000000000E+00  0.000000000E+00 -1.009565825E+03  1.009565825E+03  0.000000000E+00  0.00000E+00  9.000E+00
      25     1     1     2     0     0 -4.610935634E+02  2.921021568E+02 -3.588269333E+02  6.650659459E+02  1.250000000E+02  0.00000E+00  9.000E+00
      25     1     1     2     0     0  4.692792937E+02 -3.144776656E+02 -3.194154315E+02  6.608861290E+02  1.250000000E+02  0.00000E+00  9.000E+00
      21     1     1     2   512   502 -8.185730253E+00  2.237550879E+01  1.153325455E+01  2.647046531E+01  4.460403188E-07  0.00000E+00  9.000E+00
#rwgt            1           1   2.8470025618832006E-002           7      149378           0
</event>
<event>
      5   9999  3.19816E-02  1.96127E+01 -1.00000E+00  1.67073E-01
      21    -1     0     0   502   501  0.000000000E+00  0.000000000E+00  2.223689983E+02  2.223689983E+02  0.000000000E+00  0.00000E+00  9.000E+00
       2    -1     0     0   501     0  0.000000000E+00  0.000000000E+00 -3.758976077E+03  3.758976077E+03  0.000000000E+00  0.00000E+00  9.000E+00
      25     1     1     2     0     0  2.518970607E+02  2.505786284E+02 -5.277663421E+02  6.483857572E+02  1.250000000E+02  0.00000E+00  9.000E+00
      25     1     1     2     0     0 -2.705413359E+02 -2.566654043E+02 -7.666092520E+01  4.007139150E+02  1.250000000E+02  0.00000E+00  9.000E+00
       2     1     1     2   502     0  1.864427519E+01  6.086775916E+00 -2.932179811E+03  2.932245403E+03  4.315837288E-05  0.00000E+00  9.000E+00
#rwgt            1           1   3.0216255635777532E-002           7      149545           0
</event>
<event>
      5   9999  3.19816E-02  3.02807E+02 -1.00000E+00  1.05461E-01
      21    -1     0     0   502   501  0.000000000E+00  0.000000000E+00  1.841066939E+02  1.841066939E+02  0.000000000E+00  0.00000E+00  9.000E+00
       2    -1     0     0   501     0  0.000000000E+00  0.000000000E+00 -2.565775030E+03  2.565775030E+03  0.000000000E+00  0.00000E+00  9.000E+00
      25     1     1     2     0     0  1.298962671E+02 -3.881903959E+02 -1.671380476E+02  4.594833518E+02  1.250000000E+02  0.00000E+00  9.000E+00
      25     1     1     2     0     0 -1.578072016E+02  8.667236819E+01 -4.554433787E+02  5.054392975E+02  1.250000000E+02  0.00000E+00  9.000E+00
       2     1     1     2   502     0  2.791093451E+01  3.015180277E+02 -1.759086910E+03  1.784959074E+03  2.157918644E-05  0.00000E+00  9.000E+00
#rwgt            1           1   2.9288021925089131E-002           7      149788           0
</event>
<event>
      5   9999  3.19816E-02  8.02233E+01 -1.00000E+00  1.28291E-01
      21    -1     0     0   502   511  0.000000000E+00  0.000000000E+00  2.673158014E+02  2.673158014E+02  0.000000000E+00  0.00000E+00  9.000E+00
      21    -1     0     0   501   502  0.000000000E+00  0.000000000E+00 -2.939716740E+02  2.939716740E+02  0.000000000E+00  0.00000E+00  9.000E+00
      25     1     1     2     0     0 -1.276937753E+02  2.862308511E+01  5.800499536E+01  1.900383139E+02  1.250000000E+02  0.00000E+00  9.000E+00
      25     1     1     2     0     0  1.757248418E+02 -9.287876845E+01 -1.403894678E+02  2.735688000E+02  1.250000000E+02  0.00000E+00  9.000E+00
      21     1     1     2   501   511 -4.803106656E+01  6.425568334E+01  5.572859987E+01  9.768036158E+01  2.023048729E-06  0.00000E+00  9.000E+00
#rwgt            1           1   2.4747980413765861E-002           7      149865           0
</event>
<event>
      5   9999  3.19816E-02  1.08745E+01 -1.00000E+00  1.91640E-01
      21    -1     0     0   502   501  0.000000000E+00  0.000000000E+00  6.465394267E+01  6.465394267E+01  0.000000000E+00  0.00000E+00  9.000E+00
      21    -1     0     0   501   512  0.000000000E+00  0.000000000E+00 -5.461025328E+02  5.461025328E+02  0.000000000E+00  0.00000E+00  9.000E+00
      25     1     1     2     0     0 -2.826608220E+01  1.122672026E+02 -3.354134920E+02  3.762048735E+02  1.250000000E+02  0.00000E+00  9.000E+00
      25     1     1     2     0     0  1.761249631E+01 -1.144480802E+02 -1.265819798E+02  2.122653073E+02  1.250000000E+02  0.00000E+00  9.000E+00
      21     1     1     2   502   512  1.065358588E+01  2.180877516E+00 -1.945311832E+01  2.228629469E+01  2.384185791E-07  0.00000E+00  9.000E+00
#rwgt            1           1   2.7184592723123076E-002           7      149921           0
</event>
<event>
      5   9999  3.19816E-02  1.53474E+02 -1.00000E+00  1.16001E-01
      21    -1     0     0   502   501  0.000000000E+00  0.000000000E+00  1.848999630E+03  1.848999630E+03  0.000000000E+00  0.00000E+00  9.000E+00
      21    -1     0     0   501   511  0.000000000E+00  0.000000000E+00 -5.496834606E+01  5.496834606E+01  0.000000000E+00  0.00000E+00  9.000E+00
      25     1     1     2     0     0 -1.228926869E+02 -4.316886422E+01  1.342026397E+03  1.354114476E+03  1.250000000E+02  0.00000E+00  9.000E+00
      25     1     1     2     0     0  4.134089952E+01 -8.684546224E+01  1.987968128E+02  2.537644125E+02  1.250000000E+02  0.00000E+00  9.000E+00
      21     1     1     2   502   511  8.155178739E+01  1.300143265E+02  2.532080748E+02  2.960890884E+02  5.394796609E-06  0.00000E+00  9.000E+00
#rwgt            1           1   3.5720418159384239E-002           7      150102           0
</event>
<event>
      5   9999  3.19816E-02  7.33745E+01 -1.00000E+00  1.30193E-01
      21    -1     0     0   512   501  0.000000000E+00  0.000000000E+00  6.943100922E+01  6.943100922E+01  0.000000000E+00  0.00000E+00  9.000E+00
      21    -1     0     0   501   502  0.000000000E+00  0.000000000E+00 -1.126996668E+03  1.126996668E+03  0.000000000E+00  0.00000E+00  9.000E+00
      25     1     1     2     0     0 -7.170611585E+01 -1.667239214E+00 -8.437340575E+01  1.669982585E+02  1.250000000E+02  0.00000E+00  9.000E+00
      25     1     1     2     0     0  1.109939223E+02 -6.030281963E+01 -9.243673931E+02  9.412949369E+02  1.250000000E+02  0.00000E+00  9.000E+00
      21     1     1     2   512   502 -3.928780649E+01  6.197005884E+01 -4.882485982E+01  8.813448172E+01  6.743495762E-07  0.00000E+00  9.000E+00
#rwgt            1           1   2.8214936681521197E-002           7      150153           0
</event>
<event>
      5   9999  3.19816E-02  1.01785E+02 -1.00000E+00  1.23483E-01
      21    -1     0     0   502   501  0.000000000E+00  0.000000000E+00  3.621028946E+02  3.621028946E+02  0.000000000E+00  0.00000E+00  9.000E+00
      21    -1     0     0   511   502  0.000000000E+00  0.000000000E+00 -2.879491846E+02  2.879491846E+02  0.000000000E+00  0.00000E+00  9.000E+00
      25     1     1     2     0     0 -2.437864187E+02  1.530806099E+01  8.315257867E+01  2.867150258E+02  1.250000000E+02  0.00000E+00  9.000E+00
      25     1     1     2     0     0  1.443954189E+02  6.636352529E+00  9.875700881E+01  2.151093326E+02  1.250000000E+02  0.00000E+00  9.000E+00
      21     1     1     2   511   501  9.939099977E+01 -2.194441352E+01 -1.077558775E+02  1.482277209E+02  1.348699152E-06  0.00000E+00  9.000E+00
#rwgt            1           1   3.0271576806603740E-002           7      150219           0
</event>
<event>
      5   9999  3.19816E-02  2.47730E+01 -1.00000E+00  1.59048E-01
      21    -1     0     0   502   501  0.000000000E+00  0.000000000E+00  1.172788440E+02  1.172788440E+02  0.000000000E+00  0.00000E+00  9.000E+00
      21    -1     0     0   512   502  0.000000000E+00  0.000000000E+00 -2.929934439E+02  2.929934439E+02  0.000000000E+00  0.00000E+00  9.000E+00
      25     1     1     2     0     0  9.144077761E+01 -1.939885171E+01 -4.148865411E-01  1.560862050E+02  1.250000000E+02  0.00000E+00  9.000E+00
      25     1     1     2     0     0 -6.669536778E+01  1.822897227E+01 -9.856852590E+01  1.735549533E+02  1.250000000E+02  0.00000E+00  9.000E+00
      21     1     1     2   512   501 -2.474540984E+01  1.169879436E+00 -7.673118749E+01  8.063112959E+01  0.000000000E+00  0.00000E+00  9.000E+00
#rwgt            1           1   8.0025284026207830E-002           7      150283           0
</event>
<event>
      5   9999  3.19816E-02  7.24216E+01 -1.00000E+00  1.30477E-01
      21    -1     0     0   502   501  0.000000000E+00  0.000000000E+00  7.542062120E+02  7.542062120E+02  0.000000000E+00  0.00000E+00  9.000E+00
      21    -1     0     0   511   502  0.000000000E+00  0.000000000E+00 -1.527213945E+02  1.527213945E+02  0.000000000E+00  0.00000E+00  9.000E+00
      25     1     1     2     0     0  1.644889515E+02  1.039233875E+02  5.183505819E+02  5.675993406E+02  1.250000000E+02  0.00000E+00  9.000E+00
      25     1     1     2     0     0 -1.996734788E+02 -4.062296475E+01  1.085973360E+02  2.625606688E+02  1.250000000E+02  0.00000E+00  9.000E+00
      21     1     1     2   511   501  3.518452726E+01 -6.330042277E+01 -2.546310045E+01  7.676759711E+01  1.066240300E-06  0.00000E+00  9.000E+00
#rwgt            1           1   2.7601492960847174E-002           7      150409           0
</event>
<event>
      5   9999  3.19816E-02  2.33838E+01 -1.00000E+00  1.60956E-01
      21    -1     0     0   502   501  0.000000000E+00  0.000000000E+00  3.374457876E+02  3.374457876E+02  0.000000000E+00  0.00000E+00  9.000E+00
      21    -1     0     0   512   502  0.000000000E+00  0.000000000E+00 -1.313074062E+02  1.313074062E+02  0.000000000E+00  0.00000E+00  9.000E+00
      25     1     1     2     0     0 -4.885574587E+01 -1.094518165E+02  1.048850917E+01  1.734981062E+02  1.250000000E+02  0.00000E+00  9.000E+00
      25     1     1     2     0     0  3.424084396E+01  1.277057871E+02  2.011497865E+02  2.712331839E+02  1.250000000E+02  0.00000E+00  9.000E+00
      21     1     1     2   512   501  1.461490191E+01 -1.825397057E+01 -5.499914319E+00  2.402190369E+01  3.153981341E-07  0.00000E+00  9.000E+00
#rwgt            1           1   2.9545179747135317E-002           7      150472           0
</event>
<event>
      5   9999  3.19816E-02  4.08114E+01 -1.00000E+00  1.44301E-01
      21    -1     0     0   511   501  0.000000000E+00  0.000000000E+00  1.967433028E+02  1.967433028E+02  0.000000000E+00  0.00000E+00  9.000E+00
      21    -1     0     0   501   502  0.000000000E+00  0.000000000E+00 -4.856279713E+02  4.856279713E+02  0.000000000E+00  0.00000E+00  9.000E+00
      25     1     1     2     0     0 -1.167329680E+02 -5.480439928E+01  1.781364304E+01  1.804783474E+02  1.250000000E+02  0.00000E+00  9.000E+00
      25     1     1     2     0     0  1.533097652E+02  3.670175841E+01 -3.731381180E+02  4.239197545E+02  1.250000000E+02  0.00000E+00  9.000E+00
      21     1     1     2   511   502 -3.657679720E+01  1.810264088E+01  6.643980649E+01  7.797317223E+01  1.348699152E-06  0.00000E+00  9.000E+00
#rwgt            1           1   2.6443297391012064E-002           7      150597           0
</event>
<event>
      5   9999  3.19816E-02  9.35081E+01 -1.00000E+00  1.25153E-01
      21    -1     0     0   502   512  0.000000000E+00  0.000000000E+00  1.199872876E+03  1.199872876E+03  0.000000000E+00  0.00000E+00  9.000E+00
      21    -1     0     0   501   502  0.000000000E+00  0.000000000E+00 -3.909469654E+02  3.909469654E+02  0.000000000E+00  0.00000E+00  9.000E+00
      25     1     1     2     0     0 -6.888751280E+01  2.008085681E+02  1.097340361E+02  2.696963647E+02  1.250000000E+02  0.00000E+00  9.000E+00
      25     1     1     2     0     0 -1.939709869E+01 -1.699931915E+02 -2.723622253E+02  3.450798666E+02  1.250000000E+02  0.00000E+00  9.000E+00
      21     1     1     2   501   512  8.828461150E+01 -3.081537666E+01  9.715540997E+02  9.760436101E+02  1.078959322E-05  0.00000E+00  9.000E+00
#rwgt            2          11   3.2061858191680141E-003           7      150948           0
</event>
<event>
      5   9999  3.19816E-02  6.63908E+01 -1.00000E+00  1.32396E-01
      21    -1     0     0   502   501  0.000000000E+00  0.000000000E+00  2.184587822E+02  2.184587822E+02  0.000000000E+00  0.00000E+00  9.000E+00
       1    -1     0     0   501     0  0.000000000E+00  0.000000000E+00 -1.188694670E+03  1.188694670E+03  0.000000000E+00  0.00000E+00  9.000E+00
      25     1     1     2     0     0 -3.714341608E+02  1.637991741E+02 -4.747514817E+02  6.370301991E+02  1.250000000E+02  0.00000E+00  9.000E+00
      25     1     1     2     0     0  4.335466967E+02 -1.872464563E+02 -3.238938467E+02  5.861366714E+02  1.250000000E+02  0.00000E+00  9.000E+00
       1     1     1     2   502     0 -6.211253592E+01  2.344728215E+01 -1.715905592E+02  1.839865815E+02  1.907348633E-06  0.00000E+00  9.000E+00
#rwgt            1           1   2.8375610342627290E-002           7      150968           0
</event>
<event>
      5   9999  3.19816E-02  5.77497E+01 -1.00000E+00  1.35597E-01
      21    -1     0     0   502   511  0.000000000E+00  0.000000000E+00  6.367787879E+02  6.367787879E+02  0.000000000E+00  0.00000E+00  9.000E+00
      21    -1     0     0   501   502  0.000000000E+00  0.000000000E+00 -1.754725967E+02  1.754725967E+02  0.000000000E+00  0.00000E+00  9.000E+00
      25     1     1     2     0     0 -2.466209115E+01 -1.941889214E+02  2.870626104E+02  3.692526211E+02  1.250000000E+02  0.00000E+00  9.000E+00
      25     1     1     2     0     0  5.600269525E+01  1.456832708E+02 -5.435522445E+01  2.072182610E+02  1.250000000E+02  0.00000E+00  9.000E+00
      21     1     1     2   501   511 -3.134060410E+01  4.850565054E+01  2.285988053E+02  2.357805026E+02  4.672030912E-06  0.00000E+00  9.000E+00
#rwgt            1           1   2.7049101194775139E-002           7      151063           0
</event>
<event>
      5   9999  3.19816E-02  2.63192E+01 -1.00000E+00  1.57096E-01
      21    -1     0     0   502   501  0.000000000E+00  0.000000000E+00  7.633693893E+02  7.633693893E+02  0.000000000E+00  0.00000E+00  9.000E+00
      21    -1     0     0   512   502  0.000000000E+00  0.000000000E+00 -2.560423636E+02  2.560423636E+02  0.000000000E+00  0.00000E+00  9.000E+00
      25     1     1     2     0     0 -1.832018524E+02  2.511208023E+02  1.134858444E+02  3.537352300E+02  1.250000000E+02  0.00000E+00  9.000E+00
      25     1     1     2     0     0  1.576357407E+02 -2.573719483E+02  4.771767232E+02  5.782836429E+02  1.250000000E+02  0.00000E+00  9.000E+00
      21     1     1     2   512   501  2.556611173E+01  6.251145961E+00 -8.333554196E+01  8.739287985E+01  2.523185073E-06  0.00000E+00  9.000E+00
#rwgt            1           1   2.7798799706464955E-002           7      151172           0
</event>
<event>
      5   9999  3.19816E-02  2.06979E+02 -1.00000E+00  1.11108E-01
      21    -1     0     0   502   501  0.000000000E+00  0.000000000E+00  1.207939310E+02  1.207939310E+02  0.000000000E+00  0.00000E+00  9.000E+00
      -1    -1     0     0     0   502  0.000000000E+00  0.000000000E+00 -1.935808403E+03  1.935808403E+03  0.000000000E+00  0.00000E+00  9.000E+00
      25     1     1     2     0     0  1.518276975E+02 -2.073544922E+02 -2.716068137E+02  3.942623447E+02  1.250000000E+02  0.00000E+00  9.000E+00
      25     1     1     2     0     0  4.383480129E+01  2.748558607E+02 -4.149032467E+02  5.150115903E+02  1.250000000E+02  0.00000E+00  9.000E+00
      -1     1     1     2     0   501 -1.956624988E+02 -6.750136843E+01 -1.128504412E+03  1.147328399E+03  0.000000000E+00  0.00000E+00  9.000E+00
#rwgt            1           1   2.6088219751343379E-002           7      151322           0
</event>
<event>
      5   9999  3.19816E-02  9.85096E+01 -1.00000E+00  1.24122E-01
      21    -1     0     0   502   501  0.000000000E+00  0.000000000E+00  1.191020128E+03  1.191020128E+03  0.000000000E+00  0.00000E+00  9.000E+00
       2    -1     0     0   501     0  0.000000000E+00  0.000000000E+00 -2.347258923E+03  2.347258923E+03  0.000000000E+00  0.00000E+00  9.000E+00
      25     1     1     2     0     0  3.832043277E+01 -3.222311645E+02  3.262026372E+02  4.767961194E+02  1.250000000E+02  0.00000E+00  9.000E+00
      25     1     1     2     0     0  5.723213449E+01  2.982759755E+02  7.542331422E+02  8.226400838E+02  1.250000000E+02  0.00000E+00  9.000E+00
       2     1     1     2   502     0 -9.555256727E+01  2.395518904E+01 -2.236674574E+03  2.238842847E+03  0.000000000E+00  0.00000E+00  9.000E+00
#rwgt            1           1   2.7059307067264175E-002           7      151380           0
</event>
<event>
      5   9999  3.19816E-02  4.04187E+01 -1.00000E+00  1.44560E-01
      21    -1     0     0   502   501  0.000000000E+00  0.000000000E+00  8.951627106E+01  8.951627106E+01  0.000000000E+00  0.00000E+00  9.000E+00
      21    -1     0     0   501   511  0.000000000E+00  0.000000000E+00 -1.923003664E+03  1.923003664E+03  0.000000000E+00  0.00000E+00  9.000E+00
      25     1     1     2     0     0 -7.850888215E+00  1.442210650E+02 -7.322399645E+01  2.045680955E+02  1.250000000E+02  0.00000E+00  9.000E+00
      25     1     1     2     0     0  4.698334334E+01 -1.543364115E+02 -4.188185339E+02  4.658981936E+02  1.250000000E+02  0.00000E+00  9.000E+00
      21     1     1     2   502   511 -3.913245512E+01  1.011534651E+01 -1.341444863E+03  1.342053646E+03  2.642899792E-05  0.00000E+00  9.000E+00
#rwgt            1           1   2.9183837536977987E-002           7      151524           0
</event>
<event>
      5   9999  3.19816E-02  3.38941E+01 -1.00000E+00  1.49447E-01
      21    -1     0     0   502   501  0.000000000E+00  0.000000000E+00  2.420179677E+03  2.420179677E+03  0.000000000E+00  0.00000E+00  9.000E+00
      21    -1     0     0   501   512  0.000000000E+00  0.000000000E+00 -7.368764892E+01  7.368764892E+01  0.000000000E+00  0.00000E+00  9.000E+00
      25     1     1     2     0     0 -1.171099096E+02  3.194116484E+02  9.751373791E+02  1.040315548E+03  1.250000000E+02  0.00000E+00  9.000E+00
      25     1     1     2     0     0  1.466234765E+02 -3.360777115E+02  1.365205334E+03  1.419104392E+03  1.250000000E+02  0.00000E+00  9.000E+00
      21     1     1     2   502   512 -2.951356692E+01  1.666606310E+01  6.149315146E+00  3.444738551E+01  1.105501472E-06  0.00000E+00  9.000E+00
#rwgt            1           1   9.3040849241167622E-002           7      151617           0
</event>
<event>
      5   9999  3.19816E-02  3.50131E+02 -1.00000E+00  1.03456E-01
      21    -1     0     0   511   501  0.000000000E+00  0.000000000E+00  1.742387507E+03  1.742387507E+03  0.000000000E+00  0.00000E+00  9.000E+00
      21    -1     0     0   501   502  0.000000000E+00  0.000000000E+00 -6.960766043E+02  6.960766043E+02  0.000000000E+00  0.00000E+00  9.000E+00
      25     1     1     2     0     0 -5.816540383E+02  4.562985074E+02  3.997112946E+02  8.496610307E+02  1.250000000E+02  0.00000E+00  9.000E+00
      25     1     1     2     0     0  3.473042430E+02 -7.164372580E+02 -5.175387594E+01  8.075927473E+02  1.250000000E+02  0.00000E+00  9.000E+00
      21     1     1     2   511   502  2.343497953E+02  2.601387506E+02  6.983534845E+02  7.812103337E+02  0.000000000E+00  0.00000E+00  9.000E+00
#rwgt            1           1   2.9238942427702835E-002           7      151740           0
</event>
<event>
      5   9999  3.19816E-02  8.30619E+01 -1.00000E+00  1.27565E-01
      21    -1     0     0   512   501  0.000000000E+00  0.000000000E+00  6.834083160E+02  6.834083160E+02  0.000000000E+00  0.00000E+00  9.000E+00
      21    -1     0     0   501   502  0.000000000E+00  0.000000000E+00 -7.482047591E+01  7.482047591E+01  0.000000000E+00  0.00000E+00  9.000E+00
      25     1     1     2     0     0  1.508818330E+01  1.018834059E+02  8.030574429E+01  1.807813437E+02  1.250000000E+02  0.00000E+00  9.000E+00
      25     1     1     2     0     0  5.665798075E+01 -6.002934166E+01  3.255499177E+02  3.583593135E+02  1.250000000E+02  0.00000E+00  9.000E+00
      21     1     1     2   512   502 -7.174616405E+01 -4.185406420E+01  2.027321780E+02  2.190881347E+02  0.000000000E+00  0.00000E+00  9.000E+00
#rwgt            1           1   2.7456556803177039E-002           7      151778           0
</event>
<event>
      5   9999  3.19816E-02  3.05968E+01 -1.00000E+00  1.52448E-01
      21    -1     0     0   502   501  0.000000000E+00  0.000000000E+00  1.066380220E+02  1.066380220E+02  0.000000000E+00  0.00000E+00  9.000E+00
      21    -1     0     0   511   502  0.000000000E+00  0.000000000E+00 -6.186073017E+02  6.186073017E+02  0.000000000E+00  0.00000E+00  9.000E+00
      25     1     1     2     0     0  1.450592356E+02 -4.807514557E+01 -8.367887037E+01  2.144307692E+02  1.250000000E+02  0.00000E+00  9.000E+00
      25     1     1     2     0     0 -1.721418307E+02  6.231225470E+01 -2.688033514E+02  3.484190992E+02  1.250000000E+02  0.00000E+00  9.000E+00
      21     1     1     2   511   501  2.708259509E+01 -1.423710913E+01 -1.594870579E+02  1.623954552E+02  1.907348633E-06  0.00000E+00  9.000E+00
#rwgt            1           1   2.5845426852267667E-002           7      151835           0
</event>
<event>
      5   9999  3.19816E-02  2.20602E+02 -1.00000E+00  1.10120E-01
      21    -1     0     0   502   501  0.000000000E+00  0.000000000E+00  6.357305919E+02  6.357305919E+02  0.000000000E+00  0.00000E+00  9.000E+00
      21    -1     0     0   512   502  0.000000000E+00  0.000000000E+00 -4.974818014E+02  4.974818014E+02  0.000000000E+00  0.00000E+00  9.000E+00
      25     1     1     2     0     0  2.415307236E+02 -6.169442706E+01  2.305861423E+02  3.618539232E+02  1.250000000E+02  0.00000E+00  9.000E+00
      25     1     1     2     0     0 -8.499708039E+01 -9.374768813E+01  2.840159866E+02  3.351167160E+02  1.250000000E+02  0.00000E+00  9.000E+00
      21     1     1     2   512   501 -1.565336432E+02  1.554421152E+02 -3.763533384E+02  4.362417540E+02  7.629394531E-06  0.00000E+00  9.000E+00
#rwgt            1           1   1.7820579288014157E-002           7      151938           0
</event>
<event>
      5   9999  3.19816E-02  6.05272E+01 -1.00000E+00  1.34501E-01
      21    -1     0     0   502   511  0.000000000E+00  0.000000000E+00  7.940073909E+02  7.940073909E+02  0.000000000E+00  0.00000E+00  9.000E+00
      21    -1     0     0   501   502  0.000000000E+00  0.000000000E+00 -2.849029011E+02  2.849029011E+02  0.000000000E+00  0.00000E+00  9.000E+00
      25     1     1     2     0     0  1.408046880E+02 -9.793994947E+01  6.790062975E+02  7.114019580E+02  1.250000000E+02  0.00000E+00  9.000E+00
      25     1     1     2     0     0 -8.634302924E+01  1.243495087E+02 -2.156556127E+02  2.916337811E+02  1.250000000E+02  0.00000E+00  9.000E+00
      21     1     1     2   501   511 -5.446165878E+01 -2.640955921E+01  4.575380503E+01  7.587455285E+01  0.000000000E+00  0.00000E+00  9.000E+00
#rwgt            1           1   1.5830102963963706E-002           7      151970           0
</event>
<event>
      5   9999  3.19816E-02  2.17712E+01 -1.00000E+00  1.63385E-01
      21    -1     0     0   502   501  0.000000000E+00  0.000000000E+00  1.962654992E+03  1.962654992E+03  0.000000000E+00  0.00000E+00  9.000E+00
      21    -1     0     0   512   502  0.000000000E+00  0.000000000E+00 -1.779899560E+02  1.779899560E+02  0.000000000E+00  0.00000E+00  9.000E+00
      25     1     1     2     0     0 -1.465322236E+02 -1.084757384E+02  2.786817857E+02  3.557066433E+02  1.250000000E+02  0.00000E+00  9.000E+00
      25     1     1     2     0     0  1.446429183E+02  1.301647748E+02  1.636427336E+03  1.652689889E+03  1.250000000E+02  0.00000E+00  9.000E+00
      21     1     1     2   512   501  1.889305321E+00 -2.168903635E+01 -1.304440862E+02  1.322484155E+02  4.264961200E-06  0.00000E+00  9.000E+00
#rwgt            1           1   3.0690748783370213E-002           7      152039           0
</event>
<event>
      5   9999  3.19816E-02  5.63559E+02 -1.00000E+00  9.73977E-02
       2    -1     0     0   502     0  0.000000000E+00  0.000000000E+00  1.949044135E+03  1.949044135E+03  0.000000000E+00  0.00000E+00  9.000E+00
      21    -1     0     0   501   502  0.000000000E+00  0.000000000E+00 -1.075557310E+03  1.075557310E+03  0.000000000E+00  0.00000E+00  9.000E+00
      25     1     1     2     0     0 -9.336011837E+02 -2.695922825E+02  1.672563795E+02  9.939269920E+02  1.250000000E+02  0.00000E+00  9.000E+00
      25     1     1     2     0     0  4.058225486E+02  4.671996448E+02 -4.289675219E+02  7.632860433E+02  1.250000000E+02  0.00000E+00  9.000E+00
       2     1     1     2   501     0  5.277786351E+02 -1.976073624E+02  1.135197967E+03  1.267388410E+03  1.525878906E-05  0.00000E+00  9.000E+00
#rwgt            2          18   1.6346644306315205E-003           7      152328           0
</event>
<event>
      5   9999  3.19816E-02  1.36231E+01 -1.00000E+00  1.81416E-01
      21    -1     0     0   502   501  0.000000000E+00  0.000000000E+00  7.522596906E+02  7.522596906E+02  0.000000000E+00  0.00000E+00  9.000E+00
      21    -1     0     0   501   511  0.000000000E+00  0.000000000E+00 -4.617377458E+02  4.617377458E+02  0.000000000E+00  0.00000E+00  9.000E+00
      25     1     1     2     0     0 -1.593693589E+02 -2.099566057E+01  7.053060760E+02  7.341124376E+02  1.250000000E+02  0.00000E+00  9.000E+00
      25     1     1     2     0     0  1.590802041E+02  3.461565584E+01 -2.953035712E+02  3.596303020E+02  1.250000000E+02  0.00000E+00  9.000E+00
      21     1     1     2   502   511  2.891547757E-01 -1.361999527E+01 -1.194805600E+02  1.202546968E+02  2.697398305E-06  0.00000E+00  9.000E+00
#rwgt            1           1   3.0312719104762423E-002           7      152347           0
</event>
<event>
      5   9999  3.19816E-02  8.98638E+00 -1.00000E+00  2.01280E-01
      21    -1     0     0   502   501  0.000000000E+00  0.000000000E+00  8.598492480E+01  8.598492480E+01  0.000000000E+00  0.00000E+00  9.000E+00
      21    -1     0     0   512   502  0.000000000E+00  0.000000000E+00 -7.494574292E+02  7.494574292E+02  0.000000000E+00  0.00000E+00  9.000E+00
      25     1     1     2     0     0 -4.263120576E+00  2.130772182E+02 -2.712130093E+02  3.668808683E+02  1.250000000E+02  0.00000E+00  9.000E+00
      25     1     1     2     0     0 -4.720221497E+00 -2.133108146E+02 -3.794596339E+02  4.529220660E+02  1.250000000E+02  0.00000E+00  9.000E+00
      21     1     1     2   512   501  8.983342074E+00  2.335964332E-01 -1.279986125E+01  1.563941975E+01  0.000000000E+00  0.00000E+00  9.000E+00
#rwgt            1           1   2.9917474993826177E-002           7      152540           0
</event>
<event>
      5   9999  3.19816E-02  5.52857E+01 -1.00000E+00  1.36630E-01
      21    -1     0     0   502   501  0.000000000E+00  0.000000000E+00  4.953294013E+02  4.953294013E+02  0.000000000E+00  0.00000E+00  9.000E+00
      21    -1     0     0   501   511  0.000000000E+00  0.000000000E+00 -1.623405743E+02  1.623405743E+02  0.000000000E+00  0.00000E+00  9.000E+00
      25     1     1     2     0     0 -3.100665449E+01 -2.067636484E+02  1.190356901E+02  2.711219549E+02  1.250000000E+02  0.00000E+00  9.000E+00
      25     1     1     2     0     0  8.506118377E+01  1.951611156E+02  2.203269450E+02  3.308960996E+02  1.250000000E+02  0.00000E+00  9.000E+00
      21     1     1     2   502   511 -5.405452928E+01  1.160253276E+01 -6.373808053E+00  5.565192118E+01  4.460403188E-07  0.00000E+00  9.000E+00
#rwgt            1           1   2.8636678748384027E-002           7      152863           0
</event>
<event>
      5   9999  3.19816E-02  8.66389E+01 -1.00000E+00  1.26696E-01
      21    -1     0     0   512   501  0.000000000E+00  0.000000000E+00  1.355491300E+03  1.355491300E+03  0.000000000E+00  0.00000E+00  9.000E+00
      21    -1     0     0   501   502  0.000000000E+00  0.000000000E+00 -3.254809019E+02  3.254809019E+02  0.000000000E+00  0.00000E+00  9.000E+00
      25     1     1     2     0     0 -2.342466208E+02 -4.611589814E+02  8.738882059E+01  5.392595770E+02  1.250000000E+02  0.00000E+00  9.000E+00
      25     1     1     2     0     0  2.891183142E+02  3.941112369E+02  5.792688556E+02  7.681734659E+02  1.250000000E+02  0.00000E+00  9.000E+00
      21     1     1     2   512   502 -5.487169338E+01  6.704774448E+01  3.633527217E+02  3.735391588E+02  0.000000000E+00  0.00000E+00  9.000E+00
#rwgt            1           1   2.5762721013949351E-002           7      152958           0
</event>
<event>
      5   9999  3.19816E-02  8.67400E+01 -1.00000E+00  1.26672E-01
      21    -1     0     0   502   501  0.000000000E+00  0.000000000E+00  1.042748198E+03  1.042748198E+03  0.000000000E+00  0.00000E+00  9.000E+00
      -2    -1     0     0     0   502  0.000000000E+00  0.000000000E+00 -1.597238268E+02  1.597238268E+02  0.000000000E+00  0.00000E+00  9.000E+00
      25     1     1     2     0     0 -2.203421073E+02 -7.676032590E+01  2.862933791E+02  3.899124143E+02  1.250000000E+02  0.00000E+00  9.000E+00
      25     1     1     2     0     0  2.571413254E+02 -1.786788276E+00  6.504603234E+02  7.105269074E+02  1.250000000E+02  0.00000E+00  9.000E+00
      -2     1     1     2     0   501 -3.679921804E+01  7.854711418E+01 -5.372933091E+01  1.020327036E+02  1.784161275E-06  0.00000E+00  9.000E+00
#rwgt            1           1   2.7308260640670289E-002           7      153032           0
</event>
<event>
      5   9999  3.19816E-02  7.77560E+02 -1.00000E+00  9.36932E-02
      21    -1     0     0   502   501  0.000000000E+00  0.000000000E+00  1.884867413E+03  1.884867413E+03  0.000000000E+00  0.00000E+00  9.000E+00
       1    -1     0     0   501     0  0.000000000E+00  0.000000000E+00 -1.484493031E+03  1.484493031E+03  0.000000000E+00  0.00000E+00  9.000E+00
      25     1     1     2     0     0  2.007033160E+02  5.843828244E+02  1.036574030E+03  1.213217139E+03  1.250000000E+02  0.00000E+00  9.000E+00
      25     1     1     2     0     0  4.200683851E+02 -1.052614941E+03 -7.578945087E+02  1.369118237E+03  1.250000000E+02  0.00000E+00  9.000E+00
       1     1     1     2   502     0 -6.207717012E+02  4.682321162E+02  1.216948607E+02  7.870250687E+02  1.198750028E-05  0.00000E+00  9.000E+00
#rwgt            2          12   1.9233665963246799E-004           7      153135           0
</event>
<event>
      5   9999  3.19816E-02  1.06764E+02 -1.00000E+00  1.22563E-01
       2    -1     0     0   502     0  0.000000000E+00  0.000000000E+00  1.058003592E+03  1.058003592E+03  0.000000000E+00  0.00000E+00  9.000E+00
      21    -1     0     0   501   502  0.000000000E+00  0.000000000E+00 -1.158305250E+02  1.158305250E+02  0.000000000E+00  0.00000E+00  9.000E+00
      25     1     1     2     0     0 -2.161093420E+02  1.077274807E+02  7.861816006E+02  8.318743697E+02  1.250000000E+02  0.00000E+00  9.000E+00
      25     1     1     2     0     0  1.188895298E+02 -6.360517371E+01  4.783033275E+01  1.899817864E+02  1.250000000E+02  0.00000E+00  9.000E+00
       2     1     1     2   501     0  9.721981214E+01 -4.412230699E+01  1.081611341E+02  1.519779615E+02  2.697398305E-06  0.00000E+00  9.000E+00
#rwgt            2          18   1.9752484602693945E-004           7      153154           0
</event>
<event>
      5   9999  3.19816E-02  7.85989E+01 -1.00000E+00  1.28722E-01
      21    -1     0     0   502   501  0.000000000E+00  0.000000000E+00  2.507884953E+02  2.507884953E+02  0.000000000E+00  0.00000E+00  9.000E+00
      21    -1     0     0   511   502  0.000000000E+00  0.000000000E+00 -6.086530194E+02  6.086530194E+02  0.000000000E+00  0.00000E+00  9.000E+00
      25     1     1     2     0     0 -1.178458199E+02  8.571888383E+01 -3.999026319E+02  4.436017125E+02  1.250000000E+02  0.00000E+00  9.000E+00
      25     1     1     2     0     0  1.921019008E+02 -1.114836069E+02  1.395695400E+02  2.905794063E+02  1.250000000E+02  0.00000E+00  9.000E+00
      21     1     1     2   511   501 -7.425608095E+01  2.576472306E+01 -9.753143215E+01  1.252603958E+02  1.348699152E-06  0.00000E+00  9.000E+00
#rwgt            1           1   2.7901710097202118E-002           7      153188           0
</event>
<event>
      5   9999  3.19816E-02  1.31467E+02 -1.00000E+00  1.18710E-01
      21    -1     0     0   502   512  0.000000000E+00  0.000000000E+00  2.762318986E+02  2.762318986E+02  0.000000000E+00  0.00000E+00  9.000E+00
      21    -1     0     0   501   502  0.000000000E+00  0.000000000E+00 -4.066234775E+02  4.066234775E+02  0.000000000E+00  0.00000E+00  9.000E+00
      25     1     1     2     0     0 -2.084755878E+02 -8.982569739E+01 -6.546494159E+01  2.672852132E+02  1.250000000E+02  0.00000E+00  9.000E+00
      25     1     1     2     0     0  8.256325187E+01  1.276367283E+02 -1.597440690E+02  2.534777950E+02  1.250000000E+02  0.00000E+00  9.000E+00
      21     1     1     2   501   512  1.259123359E+02 -3.781103094E+01  9.481743166E+01  1.620923679E+02  1.348699152E-06  0.00000E+00  9.000E+00
#rwgt            1           1   2.7490951303869002E-002           7      153273           0
</event>
<event>
      5   9999  3.19816E-02  7.35589E+01 -1.00000E+00  1.30139E-01
      21    -1     0     0   502   501  0.000000000E+00  0.000000000E+00  1.216394581E+02  1.216394581E+02  0.000000000E+00  0.00000E+00  9.000E+00
      21    -1     0     0   511   502  0.000000000E+00  0.000000000E+00 -1.764775659E+03  1.764775659E+03  0.000000000E+00  0.00000E+00  9.000E+00
      25     1     1     2     0     0 -4.824420217E+01  2.186063972E+02 -7.588243539E+02  8.009716973E+02  1.250000000E+02  0.00000E+00  9.000E+00
      25     1     1     2     0     0  1.205509853E+02 -2.050918839E+02 -8.371652143E+01  2.814758904E+02  1.250000000E+02  0.00000E+00  9.000E+00
      21     1     1     2   511   501 -7.230678308E+01 -1.351451329E+01 -8.005953259E+02  8.039675297E+02  1.078959322E-05  0.00000E+00  9.000E+00
#rwgt            1           1   2.8442618632262426E-002           7      153317           0
</event>
<event>
      5   9999  3.19816E-02  1.17188E+02 -1.00000E+00  1.20807E-01
      21    -1     0     0   502   501  0.000000000E+00  0.000000000E+00  5.467928124E+01  5.467928124E+01  0.000000000E+00  0.00000E+00  9.000E+00
      21    -1     0     0   501   512  0.000000000E+00  0.000000000E+00 -1.400239637E+03  1.400239637E+03  0.000000000E+00  0.00000E+00  9.000E+00
      25     1     1     2     0     0 -7.770524488E+01  3.675728428E+01 -8.879832480E+02  9.008487397E+02  1.250000000E+02  0.00000E+00  9.000E+00
      25     1     1     2     0     0 -3.946644261E+01 -3.481436974E+01 -7.721908015E+01  1.560686604E+02  1.250000000E+02  0.00000E+00  9.000E+00
      21     1     1     2   502   512  1.171716875E+02 -1.942914542E+00 -3.803580275E+02  3.980015180E+02  5.394796609E-06  0.00000E+00  9.000E+00
#rwgt            1           1   3.1905793191097320E-002           7      153428           0
</event>
<event>
      5   9999  3.19816E-02  6.55107E+02 -1.00000E+00  9.56290E-02
      21    -1     0     0   502   501  0.000000000E+00  0.000000000E+00  3.924731267E+02  3.924731267E+02  0.000000000E+00  0.00000E+00  9.000E+00
       1    -1     0     0   501     0  0.000000000E+00  0.000000000E+00 -2.620873689E+03  2.620873689E+03  0.000000000E+00  0.00000E+00  9.000E+00
      25     1     1     2     0     0 -1.600347456E+02 -5.648026004E+01 -3.202179960E+01  2.131936566E+02  1.250000000E+02  0.00000E+00  9.000E+00
      25     1     1     2     0     0 -4.567365641E+02  2.772916933E+02 -4.425337294E+01  5.505291393E+02  1.250000000E+02  0.00000E+00  9.000E+00
       1     1     1     2   502     0  6.167713097E+02 -2.208114333E+02 -2.152125389E+03  2.249624020E+03  4.315837288E-05  0.00000E+00  9.000E+00
#rwgt            2          12   5.2335591373469824E-003           7      153480           0
</event>
<event>
      5   9999  3.19816E-02  5.21985E+01 -1.00000E+00  1.38018E-01
      21    -1     0     0   511   501  0.000000000E+00  0.000000000E+00  1.021640047E+02  1.021640047E+02  0.000000000E+00  0.00000E+00  9.000E+00
      21    -1     0     0   501   502  0.000000000E+00  0.000000000E+00 -1.144251411E+03  1.144251411E+03  0.000000000E+00  0.00000E+00  9.000E+00
      25     1     1     2     0     0  1.599033273E+00  1.097260883E+02 -1.574569770E+01  1.670787190E+02  1.250000000E+02  0.00000E+00  9.000E+00
      25     1     1     2     0     0  3.639295234E+01 -7.393089737E+01 -1.014919671E+03  1.025903096E+03  1.250000000E+02  0.00000E+00  9.000E+00
      21     1     1     2   511   502 -3.799198561E+01 -3.579519089E+01 -1.142203722E+01  5.343359988E+01  1.079486029E-06  0.00000E+00  9.000E+00
#rwgt            1           1   2.7312937411785865E-002           7      153529           0
</event>
<event>
      5   9999  3.19816E-02  2.52344E+01 -1.00000E+00  1.58448E-01
       2    -1     0     0   502     0  0.000000000E+00  0.000000000E+00  1.839567856E+03  1.839567856E+03  0.000000000E+00  0.00000E+00  9.000E+00
      21    -1     0     0   501   502  0.000000000E+00  0.000000000E+00 -5.207485610E+02  5.207485610E+02  0.000000000E+00  0.00000E+00  9.000E+00
      25     1     1     2     0     0  1.875389128E+02 -1.302308680E+02  3.553799421E+01  2.627144302E+02  1.250000000E+02  0.00000E+00  9.000E+00
      25     1     1     2     0     0 -2.084698036E+02  1.161357600E+02 -3.624930848E+02  4.516341554E+02  1.250000000E+02  0.00000E+00  9.000E+00
       2     1     1     2   501     0  2.093089085E+01  1.409510795E+01  1.645774385E+03  1.645967831E+03  3.051757812E-05  0.00000E+00  9.000E+00
#rwgt            1           1   2.8278374866826276E-002           7      153587           0
</event>
<event>
      5   9999  3.19816E-02  1.06898E+02 -1.00000E+00  1.22539E-01
      21    -1     0     0   502   501  0.000000000E+00  0.000000000E+00  5.305045204E+02  5.305045204E+02  0.000000000E+00  0.00000E+00  9.000E+00
      -1    -1     0     0     0   502  0.000000000E+00  0.000000000E+00 -3.309599331E+02  3.309599331E+02  0.000000000E+00  0.00000E+00  9.000E+00
      25     1     1     2     0     0  1.248923872E+02 -2.185665900E+02  2.091326731E+02  3.503297555E+02  1.250000000E+02  0.00000E+00  9.000E+00
      25     1     1     2     0     0 -2.309878074E+02  2.316371792E+02  9.367471305E+01  3.625066921E+02  1.250000000E+02  0.00000E+00  9.000E+00
      -1     1     1     2     0   501  1.060954202E+02 -1.307058926E+01 -1.032627989E+02  1.486280059E+02  2.336015456E-06  0.00000E+00  9.000E+00
#rwgt            2          10   5.2415957695224169E-005           7      153702           0
</event>
<event>
      5   9999  3.74666E-02  4.03142E+01 -1.00000E+00  1.44630E-01
      21    -1     0     0   502   501  0.000000000E+00  0.000000000E+00  3.704834642E+02  3.704834642E+02  0.000000000E+00  0.00000E+00  9.000E+00
      21    -1     0     0   501   511  0.000000000E+00  0.000000000E+00 -2.619210080E+02  2.619210080E+02  0.000000000E+00  0.00000E+00  9.000E+00
      25     1     1     2     0     0  1.205927390E+02 -1.454233908E+02 -6.676386866E+01  2.361630484E+02  1.250000000E+02  0.00000E+00  9.000E+00
      25     1     1     2     0     0 -1.179957539E+02  1.856538563E+02  2.205587900E+02  3.356509081E+02  1.250000000E+02  0.00000E+00  9.000E+00
      21     1     1     2   502   511 -2.596985084E+00 -4.023046550E+01 -4.523246514E+01  6.059051566E+01  0.000000000E+00  0.00000E+00  9.000E+00
#rwgt            1           1   3.4819735600810732E-002           7      153736           0
</event>
<event>
      5   9999  3.19816E-02  9.32728E+01 -1.00000E+00  1.25204E-01
      21    -1     0     0   502   501  0.000000000E+00  0.000000000E+00  5.683279317E+02  5.683279317E+02  0.000000000E+00  0.00000E+00  9.000E+00
      21    -1     0     0   512   502  0.000000000E+00  0.000000000E+00 -1.916554835E+02  1.916554835E+02  0.000000000E+00  0.00000E+00  9.000E+00
      25     1     1     2     0     0 -1.372569089E+02 -2.306038665E+01  3.746245975E+02  4.187359902E+02  1.250000000E+02  0.00000E+00  9.000E+00
      25     1     1     2     0     0  2.109731344E+02 -3.408624751E+01 -5.760079191E+00  2.476483681E+02  1.250000000E+02  0.00000E+00  9.000E+00
      21     1     1     2   512   501 -7.371622546E+01  5.714663416E+01  7.807929913E+00  9.359905695E+01  3.264680848E-07  0.00000E+00  9.000E+00
#rwgt            1           1   2.5339566307872707E-002           7      153865           0
</event>
<event>
      5   9999  3.19816E-02  1.38231E+02 -1.00000E+00  1.17818E-01
      21    -1     0     0   502   501  0.000000000E+00  0.000000000E+00  1.825371112E+03  1.825371112E+03  0.000000000E+00  0.00000E+00  9.000E+00
      21    -1     0     0   511   502  0.000000000E+00  0.000000000E+00 -9.874578031E+01  9.874578031E+01  0.000000000E+00  0.00000E+00  9.000E+00
      25     1     1     2     0     0 -3.426834105E+01  3.300341717E+02  9.338867003E+02  9.989325516E+02  1.250000000E+02  0.00000E+00  9.000E+00
      25     1     1     2     0     0  1.203795884E+02 -2.219012782E+02  7.105753485E+02  7.643780141E+02  1.250000000E+02  0.00000E+00  9.000E+00
      21     1     1     2   511   501 -8.611124739E+01 -1.081328935E+02  8.216328264E+01  1.608063263E+02  2.336015456E-06  0.00000E+00  9.000E+00
#rwgt            1           1   3.7219320396333896E-002           7      153991           0
</event>
<event>
      5   9999  3.19816E-02  4.24138E+01 -1.00000E+00  1.43279E-01
      21    -1     0     0   502   512  0.000000000E+00  0.000000000E+00  9.772448111E+02  9.772448111E+02  0.000000000E+00  0.00000E+00  9.000E+00
      21    -1     0     0   501   502  0.000000000E+00  0.000000000E+00 -5.866767437E+02  5.866767437E+02  0.000000000E+00  0.00000E+00  9.000E+00
      25     1     1     2     0     0 -4.095970919E+02 -2.666193262E+02  4.237716681E+01  5.062375599E+02  1.250000000E+02  0.00000E+00  9.000E+00
      25     1     1     2     0     0  3.793056244E+02  2.963069882E+02 -1.791996622E+02  5.285906799E+02  1.250000000E+02  0.00000E+00  9.000E+00
      21     1     1     2   501   512  3.029146752E+01 -2.968766197E+01  5.273905628E+02  5.290933150E+02  7.629394531E-06  0.00000E+00  9.000E+00
#rwgt            1           1   2.6464749130380300E-002           7      154045           0
</event>
<event>
      5   9999  3.19816E-02  2.58034E+01 -1.00000E+00  1.57729E-01
      21    -1     0     0   511   501  0.000000000E+00  0.000000000E+00  2.186699408E+02  2.186699408E+02  0.000000000E+00  0.00000E+00  9.000E+00
      21    -1     0     0   501   502  0.000000000E+00  0.000000000E+00 -5.465691658E+02  5.465691658E+02  0.000000000E+00  0.00000E+00  9.000E+00
      25     1     1     2     0     0 -5.337685984E+00  2.513013929E+02 -3.142832888E+02  4.214022622E+02  1.250000000E+02  0.00000E+00  9.000E+00
      25     1     1     2     0     0  1.853132501E+01 -2.291261534E+02 -7.917821832E+01  2.733795794E+02  1.250000000E+02  0.00000E+00  9.000E+00
      21     1     1     2   511   502 -1.319363903E+01 -2.217523946E+01  6.556228210E+01  7.045726499E+01  9.536743164E-07  0.00000E+00  9.000E+00
#rwgt            1           1   2.9931925015767701E-002           7      154167           0
</event>
<event>
      5   9999  3.19816E-02  1.97597E+02 -1.00000E+00  1.11840E-01
       2    -1     0     0   502     0  0.000000000E+00  0.000000000E+00  2.798802273E+03  2.798802273E+03  0.000000000E+00  0.00000E+00  9.000E+00
      21    -1     0     0   501   502  0.000000000E+00  0.000000000E+00 -2.149330619E+02  2.149330619E+02  0.000000000E+00  0.00000E+00  9.000E+00
      25     1     1     2     0     0  3.702953569E+01  1.272601314E+02  1.329045538E+03  1.341474326E+03  1.250000000E+02  0.00000E+00  9.000E+00
      25     1     1     2     0     0 -5.946404037E+01  6.905898404E+01 -1.722818469E+02  2.315408175E+02  1.250000000E+02  0.00000E+00  9.000E+00
       2     1     1     2   501     0  2.243450468E+01 -1.963191155E+02  1.427105520E+03  1.440720191E+03  2.642899792E-05  0.00000E+00  9.000E+00
#rwgt            1           1   3.1539252795837407E-002           7      154295           0
</event>
<event>
      5   9999  3.19816E-02  1.61562E+02 -1.00000E+00  1.15130E-01
      21    -1     0     0   502   501  0.000000000E+00  0.000000000E+00  1.910005568E+03  1.910005568E+03  0.000000000E+00  0.00000E+00  9.000E+00
      21    -1     0     0   511   502  0.000000000E+00  0.000000000E+00 -6.771268630E+02  6.771268630E+02  0.000000000E+00  0.00000E+00  9.000E+00
      25     1     1     2     0     0 -9.748349265E+02 -6.803033340E+01  5.094736174E+02  1.109107581E+03  1.250000000E+02  0.00000E+00  9.000E+00
      25     1     1     2     0     0  1.077669623E+03  1.926392131E+02  7.203406768E+02  1.316433581E+03  1.250000000E+02  0.00000E+00  9.000E+00
      21     1     1     2   511   501 -1.028346962E+02 -1.246088797E+02  3.064411024E+00  1.615912692E+02  2.343986285E-06  0.00000E+00  9.000E+00
#rwgt            1           1   3.5559294302755382E-002           7      154350           0
</event>
<event>
      5   9999  3.19816E-02  2.31979E+01 -1.00000E+00  1.61224E-01
      21    -1     0     0   512   501  0.000000000E+00  0.000000000E+00  2.920906705E+02  2.920906705E+02  0.000000000E+00  0.00000E+00  9.000E+00
      21    -1     0     0   501   502  0.000000000E+00  0.000000000E+00 -5.218279454E+02  5.218279454E+02  0.000000000E+00  0.00000E+00  9.000E+00
      25     1     1     2     0     0 -5.637207342E+01  2.991971303E+02  8.046088675E+01  3.388151232E+02  1.250000000E+02  0.00000E+00  9.000E+00
      25     1     1     2     0     0  7.949803769E+01 -2.973715860E+02 -3.057023614E+02  4.514739549E+02  1.250000000E+02  0.00000E+00  9.000E+00
      21     1     1     2   512   502 -2.312596426E+01 -1.825544305E+00 -4.495800240E+00  2.362953776E+01  4.298152060E-07  0.00000E+00  9.000E+00
#rwgt            1           1   2.8492406826963600E-002           7      154471           0
</event>
<event>
      5   9999  3.19816E-02  4.76732E+00 -1.00000E+00  2.46716E-01
      21    -1     0     0   511   501  0.000000000E+00  0.000000000E+00  2.493813508E+02  2.493813508E+02  0.000000000E+00  0.00000E+00  9.000E+00
      21    -1     0     0   501   502  0.000000000E+00  0.000000000E+00 -2.100030683E+02  2.100030683E+02  0.000000000E+00  0.00000E+00  9.000E+00
      25     1     1     2     0     0 -1.739650302E+02 -2.688723179E+01 -5.408001699E+01  2.225677497E+02  1.250000000E+02  0.00000E+00  9.000E+00
      25     1     1     2     0     0  1.694834803E+02  2.526149925E+01  8.817698180E+01  2.297019233E+02  1.250000000E+02  0.00000E+00  9.000E+00
      21     1     1     2   511   502  4.481549933E+00  1.625732543E+00  5.281317719E+00  7.114746163E+00  1.032382731E-07  0.00000E+00  9.000E+00
#rwgt            1           1   2.9246680386913509E-002           7      154681           0
</event>
<event>
      5   9999  3.19816E-02  2.14353E+01 -1.00000E+00  1.63923E-01
      21    -1     0     0   502   512  0.000000000E+00  0.000000000E+00  2.930459166E+02  2.930459166E+02  0.000000000E+00  0.00000E+00  9.000E+00
      21    -1     0     0   501   502  0.000000000E+00  0.000000000E+00 -1.426601857E+03  1.426601857E+03  0.000000000E+00  0.00000E+00  9.000E+00
      25     1     1     2     0     0 -2.290535279E+02 -1.881729792E+02 -1.269676995E+03  1.309801229E+03  1.250000000E+02  0.00000E+00  9.000E+00
      25     1     1     2     0     0  2.320655213E+02  2.093956158E+02  7.474803716E+01  3.448379317E+02  1.250000000E+02  0.00000E+00  9.000E+00
      21     1     1     2   501   512 -3.011993460E+00 -2.122263663E+01  6.137301754E+01  6.500861245E+01  2.132480600E-06  0.00000E+00  9.000E+00
#rwgt            1           1   2.5229126928172078E-002           7      154949           0
</event>
<event>
      5   9999  3.19816E-02  1.18573E+02 -1.00000E+00  1.20589E-01
      21    -1     0     0   502   511  0.000000000E+00  0.000000000E+00  8.711974641E+02  8.711974641E+02  0.000000000E+00  0.00000E+00  9.000E+00
      21    -1     0     0   501   502  0.000000000E+00  0.000000000E+00 -2.052650304E+02  2.052650304E+02  0.000000000E+00  0.00000E+00  9.000E+00
      25     1     1     2     0     0 -6.707639318E+00  1.239775066E+02  6.250329969E+02  6.493894531E+02  1.250000000E+02  0.00000E+00  9.000E+00
      25     1     1     2     0     0  7.788536563E+01 -2.188105641E+02 -6.100982829E+01  2.707238303E+02  1.250000000E+02  0.00000E+00  9.000E+00
      21     1     1     2   501   511 -7.117772631E+01  9.483305750E+01  1.019092651E+02  1.563492112E+02  1.907348633E-06  0.00000E+00  9.000E+00
#rwgt            1           1   2.5978271593625091E-002           7      155168           0
</event>
<event>
      5   9999  3.19816E-02  2.63043E+01 -1.00000E+00  1.57114E-01
      21    -1     0     0   502   501  0.000000000E+00  0.000000000E+00  4.128650683E+01  4.128650683E+01  0.000000000E+00  0.00000E+00  9.000E+00
      21    -1     0     0   512   502  0.000000000E+00  0.000000000E+00 -7.698924823E+02  7.698924823E+02  0.000000000E+00  0.00000E+00  9.000E+00
      25     1     1     2     0     0  8.198734144E+01  4.534786913E+01 -4.433453788E+02  4.700622069E+02  1.250000000E+02  0.00000E+00  9.000E+00
      25     1     1     2     0     0 -6.142826680E+01 -6.175646805E+01 -1.971251917E+02  2.491397891E+02  1.250000000E+02  0.00000E+00  9.000E+00
      21     1     1     2   512   501 -2.055907463E+01  1.640859892E+01 -8.813540491E+01  9.197699314E+01  1.651812370E-06  0.00000E+00  9.000E+00
#rwgt            1           1   2.7424139887107186E-002           7      155292           0
</event>
<event>
      5   9999  3.19816E-02  3.03465E+01 -1.00000E+00  1.52694E-01
      21    -1     0     0   502   511  0.000000000E+00  0.000000000E+00  1.229576580E+02  1.229576580E+02  0.000000000E+00  0.00000E+00  9.000E+00
      21    -1     0     0   501   502  0.000000000E+00  0.000000000E+00 -1.471655119E+03  1.471655119E+03  0.000000000E+00  0.00000E+00  9.000E+00
      25     1     1     2     0     0  2.249591363E+02 -1.341924135E+00 -6.033527980E+02  6.559481783E+02  1.250000000E+02  0.00000E+00  9.000E+00
      25     1     1     2     0     0 -2.259584126E+02  3.167197478E+01 -8.188262054E+02  8.591633563E+02  1.250000000E+02  0.00000E+00  9.000E+00
      21     1     1     2   501   511  9.992762738E-01 -3.033005065E+01  7.348154223E+01  7.950124259E+01  1.348699152E-06  0.00000E+00  9.000E+00
#rwgt            1           1   2.7448557925728066E-002           7      155380           0
</event>
<event>
      5   9999  3.19816E-02  1.10853E+01 -1.00000E+00  1.90723E-01
      21    -1     0     0   512   501  0.000000000E+00  0.000000000E+00  1.454830808E+03  1.454830808E+03  0.000000000E+00  0.00000E+00  9.000E+00
      21    -1     0     0   501   502  0.000000000E+00  0.000000000E+00 -1.513274112E+02  1.513274112E+02  0.000000000E+00  0.00000E+00  9.000E+00
      25     1     1     2     0     0 -2.448470026E+02  2.141776848E+02  1.444725360E+02  3.772525003E+02  1.250000000E+02  0.00000E+00  9.000E+00
      25     1     1     2     0     0  2.339874710E+02 -2.164032987E+02  8.059243965E+02  8.756252949E+02  1.250000000E+02  0.00000E+00  9.000E+00
      21     1     1     2   512   502  1.085953158E+01  2.225613954E+00  3.531064646E+02  3.532804242E+02  3.814697266E-06  0.00000E+00  9.000E+00
#rwgt            1           1   2.6710547500007561E-002           7      155521           0
</event>
<event>
      5   9999  3.19816E-02  2.13582E+01 -1.00000E+00  1.64049E-01
      21    -1     0     0   502   511  0.000000000E+00  0.000000000E+00  4.240453215E+02  4.240453215E+02  0.000000000E+00  0.00000E+00  9.000E+00
      21    -1     0     0   501   502  0.000000000E+00  0.000000000E+00 -1.179129241E+02  1.179129241E+02  0.000000000E+00  0.00000E+00  9.000E+00
      25     1     1     2     0     0  3.566681432E+01 -1.587112411E+02  7.351685463E+01  2.179245456E+02  1.250000000E+02  0.00000E+00  9.000E+00
      25     1     1     2     0     0 -1.430899468E+01  1.588437035E+02  1.976849813E+02  2.830908358E+02  1.250000000E+02  0.00000E+00  9.000E+00
      21     1     1     2   501   511 -2.135781964E+01 -1.324624139E-01  3.493056140E+01  4.094286416E+01  6.743495762E-07  0.00000E+00  9.000E+00
#rwgt            1           1   2.7988357802825402E-002           7      155791           0
</event>
<event>
      5   9999  3.19816E-02  5.68961E+01 -1.00000E+00  1.35948E-01
      21    -1     0     0   502   501  0.000000000E+00  0.000000000E+00  6.605137577E+02  6.605137577E+02  0.000000000E+00  0.00000E+00  9.000E+00
      21    -1     0     0   501   512  0.000000000E+00  0.000000000E+00 -1.612964614E+02  1.612964614E+02  0.000000000E+00  0.00000E+00  9.000E+00
      25     1     1     2     0     0  1.064395765E+01  2.186985086E+02  2.346254555E+02  3.444073691E+02  1.250000000E+02  0.00000E+00  9.000E+00
      25     1     1     2     0     0  4.184943005E+01 -2.406440126E+02  3.029875906E+02  4.087632513E+02  1.250000000E+02  0.00000E+00  9.000E+00
      21     1     1     2   502   512 -5.249338769E+01  2.194550391E+01 -3.839574988E+01  6.863959864E+01  6.743495762E-07  0.00000E+00  9.000E+00
#rwgt            1           1   2.6149337900559979E-002           7      155963           0
</event>
<event>
      5   9999  3.19816E-02  2.82138E+02 -1.00000E+00  1.06466E-01
      21    -1     0     0   511   501  0.000000000E+00  0.000000000E+00  1.440154651E+03  1.440154651E+03  0.000000000E+00  0.00000E+00  9.000E+00
      21    -1     0     0   501   502  0.000000000E+00  0.000000000E+00 -2.556120767E+02  2.556120767E+02  0.000000000E+00  0.00000E+00  9.000E+00
      25     1     1     2     0     0  2.673498475E+02  2.813127851E+02  7.624130895E+02  8.645874988E+02  1.250000000E+02  0.00000E+00  9.000E+00
      25     1     1     2     0     0 -8.519396038E+00 -1.690255314E+02 -1.036049033E+02  2.345233173E+02  1.250000000E+02  0.00000E+00  9.000E+00
      21     1     1     2   511   502 -2.588304515E+02 -1.122872537E+02  5.257343878E+02  5.966559113E+02  7.629394531E-06  0.00000E+00  9.000E+00
#rwgt            2          11   2.5405848233741196E-003           7      156067           0
</event>
<event>
      5   9999  3.19816E-02  5.75010E+01 -1.00000E+00  1.35698E-01
      21    -1     0     0   502   512  0.000000000E+00  0.000000000E+00  3.046548415E+02  3.046548415E+02  0.000000000E+00  0.00000E+00  9.000E+00
      21    -1     0     0   501   502  0.000000000E+00  0.000000000E+00 -4.297817629E+02  4.297817629E+02  0.000000000E+00  0.00000E+00  9.000E+00
      25     1     1     2     0     0  2.093596558E+01 -2.133866671E+02 -2.735004051E+02  3.693232405E+02  1.250000000E+02  0.00000E+00  9.000E+00
      25     1     1     2     0     0  2.449107073E+01  1.781340715E+02  1.456562789E+01  2.194737285E+02  1.250000000E+02  0.00000E+00  9.000E+00
      21     1     1     2   501   512 -4.542703631E+01  3.525259554E+01  1.338078559E+02  1.456396355E+02  0.000000000E+00  0.00000E+00  9.000E+00
#rwgt            1           1   2.7577995058611773E-002           7      156087           0
</event>
<event>
      5   9999  3.19816E-02  4.62744E+01 -1.00000E+00  1.41022E-01
      21    -1     0     0   502   501  0.000000000E+00  0.000000000E+00  1.160399111E+03  1.160399111E+03  0.000000000E+00  0.00000E+00  9.000E+00
      21    -1     0     0   511   502  0.000000000E+00  0.000000000E+00 -8.911779876E+02  8.911779876E+02  0.000000000E+00  0.00000E+00  9.000E+00
      25     1     1     2     0     0 -5.525930680E+02  7.817924031E+02  4.297173321E+02  1.056806721E+03  1.250000000E+02  0.00000E+00  9.000E+00
      25     1     1     2     0     0  5.080911124E+02 -7.691078199E+02 -1.297794043E+02  9.392289981E+02  1.250000000E+02  0.00000E+00  9.000E+00
      21     1     1     2   511   501  4.450195569E+01 -1.268458321E+01 -3.071680453E+01  5.554137910E+01  3.371747881E-07  0.00000E+00  9.000E+00
#rwgt            1           1   4.3760702371239406E-002           7      156171           0
</event>
<event>
      5   9999  3.19816E-02  5.36433E+02 -1.00000E+00  9.79919E-02
      21    -1     0     0   502   512  0.000000000E+00  0.000000000E+00  4.441299192E+02  4.441299192E+02  0.000000000E+00  0.00000E+00  9.000E+00
      21    -1     0     0   501   502  0.000000000E+00  0.000000000E+00 -8.652172422E+02  8.652172422E+02  0.000000000E+00  0.00000E+00  9.000E+00
      25     1     1     2     0     0  2.632820140E+02 -3.790749341E+02 -3.702910679E+02  6.047773967E+02  1.250000000E+02  0.00000E+00  9.000E+00
      25     1     1     2     0     0 -1.519361320E+01 -9.654282930E+01  3.177016359E+01  1.618199835E+02  1.250000000E+02  0.00000E+00  9.000E+00
      21     1     1     2   501   512 -2.480884008E+02  4.756177634E+02 -8.256641879E+01  5.427497812E+02  6.397441800E-06  0.00000E+00  9.000E+00
#rwgt            2          11   3.7405192051446802E-003           7      156342           0
</event>
<event>
      5   9999  3.19816E-02  4.58536E+01 -1.00000E+00  1.41255E-01
      21    -1     0     0   502   501  0.000000000E+00  0.000000000E+00  2.153872423E+02  2.153872423E+02  0.000000000E+00  0.00000E+00  9.000E+00
      21    -1     0     0   511   502  0.000000000E+00  0.000000000E+00 -9.825376396E+02  9.825376396E+02  0.000000000E+00  0.00000E+00  9.000E+00
      25     1     1     2     0     0  7.550384094E+01 -1.901699647E+01 -9.261526687E+00  1.475576227E+02  1.250000000E+02  0.00000E+00  9.000E+00
      25     1     1     2     0     0 -5.884066205E+01  6.173570366E+01  1.063223548E+02  1.849404330E+02  1.250000000E+02  0.00000E+00  9.000E+00
      21     1     1     2   511   501 -1.666317889E+01 -4.271870719E+01 -8.642112253E+02  8.654268262E+02  1.525878906E-05  0.00000E+00  9.000E+00
#rwgt            1           1   7.4825434176441302E-002           7      156392           0
</event>
<event>
      5   9999  3.19816E-02  9.65814E+01 -1.00000E+00  1.24511E-01
      21    -1     0     0   512   501  0.000000000E+00  0.000000000E+00  4.115007901E+02  4.115007901E+02  0.000000000E+00  0.00000E+00  9.000E+00
      21    -1     0     0   501   502  0.000000000E+00  0.000000000E+00 -2.628935678E+02  2.628935678E+02  0.000000000E+00  0.00000E+00  9.000E+00
      25     1     1     2     0     0  1.634299007E+02 -2.066492465E+01 -1.304274666E+01  2.071991428E+02  1.250000000E+02  0.00000E+00  9.000E+00
      25     1     1     2     0     0 -2.527153890E+02  5.748969436E+01  1.063603552E+01  2.879379413E+02  1.250000000E+02  0.00000E+00  9.000E+00
      21     1     1     2   512   502  8.928548838E+01 -3.682476970E+01  1.510139334E+02  1.792572738E+02  0.000000000E+00  0.00000E+00  9.000E+00
#rwgt            2          11   2.1683575726959238E-003           7      156608           0
</event>
<event>
      5   9999  3.19816E-02  6.48268E+01 -1.00000E+00  1.32932E-01
      21    -1     0     0   502   501  0.000000000E+00  0.000000000E+00  6.232750741E+02  6.232750741E+02  0.000000000E+00  0.00000E+00  9.000E+00
      21    -1     0     0   501   511  0.000000000E+00  0.000000000E+00 -1.220261793E+03  1.220261793E+03  0.000000000E+00  0.00000E+00  9.000E+00
      25     1     1     2     0     0 -4.979080307E+01  6.780309972E+02  1.922748638E+02  7.174954916E+02  1.250000000E+02  0.00000E+00  9.000E+00
      25     1     1     2     0     0  1.146139549E+02 -6.787203234E+02 -5.856672077E+02  9.123753144E+02  1.250000000E+02  0.00000E+00  9.000E+00
      21     1     1     2   502   511 -6.482315180E+01  6.893262429E-01 -2.035943753E+02  2.136660615E+02  2.697398305E-06  0.00000E+00  9.000E+00
#rwgt            1           1   3.4286220771630502E-002           7      156628           0
</event>
<event>
      5   9999  3.19816E-02  2.64327E+02 -1.00000E+00  1.07410E-01
      21    -1     0     0   502   512  0.000000000E+00  0.000000000E+00  3.408573233E+02  3.408573233E+02  0.000000000E+00  0.00000E+00  9.000E+00
      21    -1     0     0   501   502  0.000000000E+00  0.000000000E+00 -1.000727098E+03  1.000727098E+03  0.000000000E+00  0.00000E+00  9.000E+00
      25     1     1     2     0     0 -1.673982155E+02  3.828518132E+02 -2.513872955E+02  5.034066406E+02  1.250000000E+02  0.00000E+00  9.000E+00
      25     1     1     2     0     0 -9.530573367E+01 -4.120951355E+02 -3.602585842E+02  5.694882185E+02  1.250000000E+02  0.00000E+00  9.000E+00
      21     1     1     2   501   512  2.627039492E+02  2.924332225E+01 -4.822389518E+01  2.686895623E+02  9.536743164E-07  0.00000E+00  9.000E+00
#rwgt            2          11   3.8115260898752817E-003           7      156809           0
</event>
<event>
      5   9999  3.19816E-02  7.54839E+00 -1.00000E+00  2.11026E-01
      21    -1     0     0   502   511  0.000000000E+00  0.000000000E+00  8.828908191E+02  8.828908191E+02  0.000000000E+00  0.00000E+00  9.000E+00
      21    -1     0     0   501   502  0.000000000E+00  0.000000000E+00 -5.367527200E+02  5.367527200E+02  0.000000000E+00  0.00000E+00  9.000E+00
      25     1     1     2     0     0  5.579830809E+02 -2.666820081E+02 -8.521000670E+01  6.366711531E+02  1.250000000E+02  0.00000E+00  9.000E+00
      25     1     1     2     0     0 -5.543336639E+02  2.600744350E+02  3.807031715E+02  7.317680148E+02  1.250000000E+02  0.00000E+00  9.000E+00
      21     1     1     2   501   511 -3.649417014E+00  6.607573108E+00  5.064493422E+01  5.120437119E+01  9.536743164E-07  0.00000E+00  9.000E+00
#rwgt            1           1   3.1296480969282635E-002           7      156829           0
</event>
<event>
      5   9999  3.19816E-02  1.70624E+01 -1.00000E+00  1.72270E-01
      21    -1     0     0   502   501  0.000000000E+00  0.000000000E+00  7.157118161E+02  7.157118161E+02  0.000000000E+00  0.00000E+00  9.000E+00
      21    -1     0     0   512   502  0.000000000E+00  0.000000000E+00 -2.835870019E+02  2.835870019E+02  0.000000000E+00  0.00000E+00  9.000E+00
      25     1     1     2     0     0 -1.477821428E+02 -2.979911515E+02 -6.707080403E+01  3.616099845E+02  1.250000000E+02  0.00000E+00  9.000E+00
      25     1     1     2     0     0  1.368956354E+02  2.848530340E+02  5.132558852E+02  6.155796209E+02  1.250000000E+02  0.00000E+00  9.000E+00
      21     1     1     2   512   501  1.088650740E+01  1.313811752E+01 -1.406026698E+01  2.210921263E+01  4.129530925E-07  0.00000E+00  9.000E+00
#rwgt            1           1   2.8741123047493097E-002           7      157219           0
</event>
<event>
      5   9999  3.19816E-02  2.71343E+01 -1.00000E+00  1.56131E-01
      21    -1     0     0   502   511  0.000000000E+00  0.000000000E+00  2.870265975E+02  2.870265975E+02  0.000000000E+00  0.00000E+00  9.000E+00
      21    -1     0     0   501   502  0.000000000E+00  0.000000000E+00 -3.949643653E+02  3.949643653E+02  0.000000000E+00  0.00000E+00  9.000E+00
      25     1     1     2     0     0 -7.315924184E+01 -1.628441194E+02  9.347593675E+01  2.371354732E+02  1.250000000E+02  0.00000E+00  9.000E+00
      25     1     1     2     0     0  9.629936848E+01  1.486734687E+02 -2.843625174E+02  3.575813334E+02  1.250000000E+02  0.00000E+00  9.000E+00
      21     1     1     2   501   511 -2.314012665E+01  1.417065064E+01  8.294881285E+01  8.727415628E+01  9.536743164E-07  0.00000E+00  9.000E+00
#rwgt            1           1   2.7257759135886645E-002           7      157441           0
</event>
<event>
      5   9999  3.19816E-02  6.49757E+00 -1.00000E+00  2.20229E-01
      21    -1     0     0   512   501  0.000000000E+00  0.000000000E+00  1.273806533E+02  1.273806533E+02  0.000000000E+00  0.00000E+00  9.000E+00
      21    -1     0     0   501   502  0.000000000E+00  0.000000000E+00 -2.885963070E+02  2.885963070E+02  0.000000000E+00  0.00000E+00  9.000E+00
      25     1     1     2     0     0  8.408149074E+00  7.489458681E+01 -2.123589749E+02  2.576843619E+02  1.250000000E+02  0.00000E+00  9.000E+00
      25     1     1     2     0     0 -7.033893828E+00 -6.854400744E+01  4.586466227E+01  1.499210588E+02  1.250000000E+02  0.00000E+00  9.000E+00
      21     1     1     2   512   502 -1.374255246E+00 -6.350579365E+00  5.278659002E+00  8.371539680E+00  1.192092896E-07  0.00000E+00  9.000E+00
#rwgt            1           1   3.2419576861209928E-002           7      157549           0
</event>
<event>
      5   9999  3.19816E-02  4.55228E+01 -1.00000E+00  1.41441E-01
      21    -1     0     0   502   511  0.000000000E+00  0.000000000E+00  7.195492299E+02  7.195492299E+02  0.000000000E+00  0.00000E+00  9.000E+00
      21    -1     0     0   501   502  0.000000000E+00  0.000000000E+00 -1.118173248E+02  1.118173248E+02  0.000000000E+00  0.00000E+00  9.000E+00
      25     1     1     2     0     0  6.904417757E+01  5.111607685E+01  5.564638404E+02  5.767642131E+02  1.250000000E+02  0.00000E+00  9.000E+00
      25     1     1     2     0     0 -7.431532442E+01 -5.899444312E+00 -4.143459977E+01  1.513254669E+02  1.250000000E+02  0.00000E+00  9.000E+00
      21     1     1     2   501   511  5.271146854E+00 -4.521663254E+01  9.270266443E+01  1.032768747E+02  1.348699152E-06  0.00000E+00  9.000E+00
#rwgt            1           1   3.1879177653103372E-002           7      157837           0
</event>
<event>
      5   9999  3.19816E-02  6.72871E+01 -1.00000E+00  1.32096E-01
      21    -1     0     0   502   501  0.000000000E+00  0.000000000E+00  7.496017444E+02  7.496017444E+02  0.000000000E+00  0.00000E+00  9.000E+00
      21    -1     0     0   501   512  0.000000000E+00  0.000000000E+00 -2.557867845E+02  2.557867845E+02  0.000000000E+00  0.00000E+00  9.000E+00
      25     1     1     2     0     0  1.251219190E+02 -1.602169682E+02  2.687633061E+01  2.401505958E+02  1.250000000E+02  0.00000E+00  9.000E+00
      25     1     1     2     0     0 -9.733622650E+01  9.893476207E+01  5.933388626E+02  6.220437557E+02  1.250000000E+02  0.00000E+00  9.000E+00
      21     1     1     2   502   512 -2.778569245E+01  6.128220617E+01 -1.264002332E+02  1.431941775E+02  1.348699152E-06  0.00000E+00  9.000E+00
#rwgt            1           1   2.8944793991478528E-002           7      157928           0
</event>
<event>
      5   9999  3.19816E-02  1.08368E+02 -1.00000E+00  1.22278E-01
      21    -1     0     0   502   501  0.000000000E+00  0.000000000E+00  2.822036151E+02  2.822036151E+02  0.000000000E+00  0.00000E+00  9.000E+00
      21    -1     0     0   501   511  0.000000000E+00  0.000000000E+00 -1.194655392E+03  1.194655392E+03  0.000000000E+00  0.00000E+00  9.000E+00
      25     1     1     2     0     0 -2.107143402E+02 -1.119807679E+01 -7.048896797E+02  7.463379869E+02  1.250000000E+02  0.00000E+00  9.000E+00
      25     1     1     2     0     0  3.146480775E+02 -1.948247600E+01  1.396758304E+02  3.667660251E+02  1.250000000E+02  0.00000E+00  9.000E+00
      21     1     1     2   502   511 -1.039337373E+02  3.068055278E+01 -3.472379272E+02  3.637549947E+02  0.000000000E+00  0.00000E+00  9.000E+00
#rwgt            1           1   2.8173050544320927E-002           7      158041           0
</event>
<event>
      5   9999  3.19816E-02  4.88968E+01 -1.00000E+00  1.39631E-01
      21    -1     0     0   512   501  0.000000000E+00  0.000000000E+00  1.530302987E+02  1.530302987E+02  0.000000000E+00  0.00000E+00  9.000E+00
      21    -1     0     0   501   502  0.000000000E+00  0.000000000E+00 -4.187084523E+02  4.187084523E+02  0.000000000E+00  0.00000E+00  9.000E+00
      25     1     1     2     0     0 -8.764714658E+01  1.537953979E+02 -2.505288901E+02  3.312472965E+02  1.250000000E+02  0.00000E+00  9.000E+00
      25     1     1     2     0     0  4.173391418E+01 -1.369766122E+02 -2.105326078E+01  1.912395139E+02  1.250000000E+02  0.00000E+00  9.000E+00
      21     1     1     2   512   502  4.591323240E+01 -1.681878568E+01  5.903997280E+00  4.925194052E+01  1.124618188E-06  0.00000E+00  9.000E+00
#rwgt            1           1   2.7058064082358349E-002           7      158103           0
</event>
<event>
      5   9999  3.19816E-02  1.50117E+01 -1.00000E+00  1.77352E-01
      21    -1     0     0   502   501  0.000000000E+00  0.000000000E+00  6.182186519E+02  6.182186519E+02  0.000000000E+00  0.00000E+00  9.000E+00
      21    -1     0     0   501   511  0.000000000E+00  0.000000000E+00 -1.910723205E+02  1.910723205E+02  0.000000000E+00  0.00000E+00  9.000E+00
      25     1     1     2     0     0 -2.473940487E+02 -1.480883341E+02  2.942570248E+02  4.305184859E+02  1.250000000E+02  0.00000E+00  9.000E+00
      25     1     1     2     0     0  2.547158382E+02  1.611933697E+02  1.472392713E+02  3.580053961E+02  1.250000000E+02  0.00000E+00  9.000E+00
      21     1     1     2   502   511 -7.321789489E+00 -1.310503558E+01 -1.434996464E+01  2.076709041E+01  2.384185791E-07  0.00000E+00  9.000E+00
#rwgt            1           1   2.5832447440262061E-002           7      158149           0
</event>
<event>
      5   9999  3.19816E-02  1.37268E+02 -1.00000E+00  1.17941E-01
      21    -1     0     0   502   501  0.000000000E+00  0.000000000E+00  1.248329457E+03  1.248329457E+03  0.000000000E+00  0.00000E+00  9.000E+00
      21    -1     0     0   512   502  0.000000000E+00  0.000000000E+00 -2.967244061E+02  2.967244061E+02  0.000000000E+00  0.00000E+00  9.000E+00
      25     1     1     2     0     0  1.142073747E+02 -2.700842622E+02 -8.606894372E+01  3.301843367E+02  1.250000000E+02  0.00000E+00  9.000E+00
      25     1     1     2     0     0 -2.196752356E+02  3.579426853E+02  9.643757445E+02  1.059257170E+03  1.250000000E+02  0.00000E+00  9.000E+00
      21     1     1     2   512   501  1.054678608E+02 -8.785842308E+01  7.329825051E+01  1.556123572E+02  2.336015456E-06  0.00000E+00  9.000E+00
#rwgt            1           1   2.8386859309931789E-002           7      158325           0
</event>
<event>
      5   9999  3.19816E-02  1.01481E+02 -1.00000E+00  1.23541E-01
      21    -1     0     0   502   501  0.000000000E+00  0.000000000E+00  1.663083505E+02  1.663083505E+02  0.000000000E+00  0.00000E+00  9.000E+00
      21    -1     0     0   501   511  0.000000000E+00  0.000000000E+00 -1.029058373E+03  1.029058373E+03  0.000000000E+00  0.00000E+00  9.000E+00
      25     1     1     2     0     0  3.478352407E+01 -6.790319067E+01  5.852081235E+01  1.577035901E+02  1.250000000E+02  0.00000E+00  9.000E+00
      25     1     1     2     0     0 -1.337077648E+02  4.526608123E+01 -1.064071790E+02  2.165046702E+02  1.250000000E+02  0.00000E+00  9.000E+00
      21     1     1     2   502   511  9.892424071E+01  2.263710944E+01 -8.148636560E+02  8.211584634E+02  1.078959322E-05  0.00000E+00  9.000E+00
#rwgt            1           1   2.7899126698007207E-002           7      158378           0
</event>
<event>
      5   9999  3.19816E-02  4.21975E+01 -1.00000E+00  1.43414E-01
      21    -1     0     0   502   501  0.000000000E+00  0.000000000E+00  9.874323666E+02  9.874323666E+02  0.000000000E+00  0.00000E+00  9.000E+00
      21    -1     0     0   501   512  0.000000000E+00  0.000000000E+00 -4.029687743E+02  4.029687743E+02  0.000000000E+00  0.00000E+00  9.000E+00
      25     1     1     2     0     0  3.356062452E+02  1.396495303E+02  7.635706676E+02  8.548676550E+02  1.250000000E+02  0.00000E+00  9.000E+00
      25     1     1     2     0     0 -3.519300968E+02 -1.007372957E+02 -3.849742622E+01  3.887285012E+02  1.250000000E+02  0.00000E+00  9.000E+00
      21     1     1     2   502   512  1.632385161E+01 -3.891223457E+01 -1.406096491E+02  1.468049847E+02  3.303624740E-06  0.00000E+00  9.000E+00
#rwgt            1           1   2.9851735400545393E-002           7      158408           0
</event>
<event>
      5   9999  3.19816E-02  1.05977E+02 -1.00000E+00  1.22704E-01
      21    -1     0     0   502   511  0.000000000E+00  0.000000000E+00  1.709824993E+03  1.709824993E+03  0.000000000E+00  0.00000E+00  9.000E+00
      21    -1     0     0   501   502  0.000000000E+00  0.000000000E+00 -1.377156334E+02  1.377156334E+02  0.000000000E+00  0.00000E+00  9.000E+00
      25     1     1     2     0     0  3.811471146E+02 -1.816968832E+02  1.019286256E+03  1.110340647E+03  1.250000000E+02  0.00000E+00  9.000E+00
      25     1     1     2     0     0 -2.832705698E+02  1.410605630E+02  2.674232188E+02  4.327591433E+02  1.250000000E+02  0.00000E+00  9.000E+00
      21     1     1     2   501   511 -9.787654485E+01  4.063632019E+01  2.853998853E+02  3.044408368E+02  3.814697266E-06  0.00000E+00  9.000E+00
#rwgt            1           1   2.7511421160000625E-002           7      158537           0
</event>
<event>
      5   9999  3.19816E-02  2.98050E+02 -1.00000E+00  1.05684E-01
      21    -1     0     0   512   501  0.000000000E+00  0.000000000E+00  7.599838698E+02  7.599838698E+02  0.000000000E+00  0.00000E+00  9.000E+00
      21    -1     0     0   501   502  0.000000000E+00  0.000000000E+00 -9.031963226E+02  9.031963226E+02  0.000000000E+00  0.00000E+00  9.000E+00
      25     1     1     2     0     0 -9.700020232E+01  2.038170445E+02  1.013147622E+02  2.772004833E+02  1.250000000E+02  0.00000E+00  9.000E+00
      25     1     1     2     0     0  1.030320197E+02  9.417204231E+01 -7.642361823E+02  7.868709633E+02  1.250000000E+02  0.00000E+00  9.000E+00
      21     1     1     2   512   502 -6.031817417E+00 -2.979890869E+02  5.197089672E+02  5.991087458E+02  7.629394531E-06  0.00000E+00  9.000E+00
#rwgt            1           1   2.8877018511132831E-002           7      158603           0
</event>
<event>
      5   9999  3.19816E-02  5.48347E+01 -1.00000E+00  1.36826E-01
       2    -1     0     0   502     0  0.000000000E+00  0.000000000E+00  2.338817600E+03  2.338817600E+03  0.000000000E+00  0.00000E+00  9.000E+00
      21    -1     0     0   501   502  0.000000000E+00  0.000000000E+00 -6.690130596E+01  6.690130596E+01  0.000000000E+00  0.00000E+00  9.000E+00
      25     1     1     2     0     0 -1.320927700E+02  2.475050993E+02  5.766528755E+02  6.533458601E+02  1.250000000E+02  0.00000E+00  9.000E+00
      25     1     1     2     0     0  1.679430411E+02 -2.889972376E+02  1.143472282E+03  1.197863985E+03  1.250000000E+02  0.00000E+00  9.000E+00
       2     1     1     2   501     0 -3.585027106E+01  4.149213834E+01  5.517911374E+02  5.545090611E+02  1.078959322E-05  0.00000E+00  9.000E+00
#rwgt            1           1   3.3402827737468221E-002           7      158658           0
</event>
<event>
      5   9999  3.19816E-02  7.04911E+01 -1.00000E+00  1.31067E-01
      21    -1     0     0   511   501  0.000000000E+00  0.000000000E+00  7.524039189E+02  7.524039189E+02  0.000000000E+00  0.00000E+00  9.000E+00
      21    -1     0     0   501   502  0.000000000E+00  0.000000000E+00 -3.372914918E+02  3.372914918E+02  0.000000000E+00  0.00000E+00  9.000E+00
      25     1     1     2     0     0 -3.468081678E+02 -1.669527902E+01 -1.318934201E+02  3.918871162E+02  1.250000000E+02  0.00000E+00  9.000E+00
      25     1     1     2     0     0  3.202300124E+02  8.198388483E+01  3.935582946E+02  5.289439946E+02  1.250000000E+02  0.00000E+00  9.000E+00
      21     1     1     2   511   502  2.657815536E+01 -6.528860581E+01  1.534475526E+02  1.688642999E+02  0.000000000E+00  0.00000E+00  9.000E+00
#rwgt            1           1   2.8212076348453657E-002           7      158734           0
</event>
<event>
      5   9999  3.19816E-02  3.24906E+02 -1.00000E+00  1.04479E-01
      21    -1     0     0   502   501  0.000000000E+00  0.000000000E+00  5.533044247E+02  5.533044247E+02  0.000000000E+00  0.00000E+00  9.000E+00
       1    -1     0     0   501     0  0.000000000E+00  0.000000000E+00 -5.994719988E+02  5.994719988E+02  0.000000000E+00  0.00000E+00  9.000E+00
      25     1     1     2     0     0 -3.155445190E+02 -4.351414027E+02  6.842537887E+01  5.560786062E+02  1.250000000E+02  0.00000E+00  9.000E+00
      25     1     1     2     0     0  7.610887340E+01  2.155185090E+02 -5.824085419E+01  2.669415394E+02  1.250000000E+02  0.00000E+00  9.000E+00
       1     1     1     2   502     0  2.394356456E+02  2.196228937E+02 -5.635209885E+01  3.297562779E+02  2.431401974E-06  0.00000E+00  9.000E+00
#rwgt            1           1   2.9562096174583122E-002           7      158824           0
</event>
<event>
      5   9999  3.19816E-02  2.40301E+01 -1.00000E+00  1.60049E-01
      21    -1     0     0   502   501  0.000000000E+00  0.000000000E+00  2.983528912E+03  2.983528912E+03  0.000000000E+00  0.00000E+00  9.000E+00
      21    -1     0     0   501   511  0.000000000E+00  0.000000000E+00 -1.656473106E+01  1.656473106E+01  0.000000000E+00  0.00000E+00  9.000E+00
      25     1     1     2     0     0 -9.639719368E+00 -1.590037620E+01  2.035763210E+03  2.039681983E+03  1.250000000E+02  0.00000E+00  9.000E+00
      25     1     1     2     0     0  2.411037579E+01 -3.284148842E+00  9.273764042E+02  9.360791051E+02  1.250000000E+02  0.00000E+00  9.000E+00
      21     1     1     2   502   511 -1.447065642E+01  1.918452504E+01  3.824566613E+00  2.433255449E+01  4.842304232E-07  0.00000E+00  9.000E+00
#rwgt            1           1   7.0311285946029435E-003           7      158883           0
</event>
<event>
      5   9999  3.19816E-02  3.23391E+01 -1.00000E+00  1.50809E-01
      21    -1     0     0   502   501  0.000000000E+00  0.000000000E+00  1.664460061E+02  1.664460061E+02  0.000000000E+00  0.00000E+00  9.000E+00
      21    -1     0     0   512   502  0.000000000E+00  0.000000000E+00 -4.506621283E+02  4.506621283E+02  0.000000000E+00  0.00000E+00  9.000E+00
      25     1     1     2     0     0 -9.429446243E+00 -2.126641464E+02 -3.273973256E+01  2.490217736E+02  1.250000000E+02  0.00000E+00  9.000E+00
      25     1     1     2     0     0 -1.940011396E+01  1.980124123E+02 -2.326801074E+02  3.306815874E+02  1.250000000E+02  0.00000E+00  9.000E+00
      21     1     1     2   512   501  2.882956020E+01  1.465173410E+01 -1.879628216E+01  3.740477345E+01  2.384185791E-07  0.00000E+00  9.000E+00
#rwgt            1           1   3.2796838055158511E-002           7      158971           0
</event>
<event>
      5   9999  3.19816E-02  5.35986E+01 -1.00000E+00  1.37375E-01
      21    -1     0     0   502   501  0.000000000E+00  0.000000000E+00  3.416428342E+02  3.416428342E+02  0.000000000E+00  0.00000E+00  9.000E+00
      21    -1     0     0   511   502  0.000000000E+00  0.000000000E+00 -5.183753242E+02  5.183753242E+02  0.000000000E+00  0.00000E+00  9.000E+00
      25     1     1     2     0     0  1.619541335E+02  1.016534604E+02  1.317348969E+01  2.288254973E+02  1.250000000E+02  0.00000E+00  9.000E+00
      25     1     1     2     0     0 -1.737150646E+02 -1.539457661E+02  1.389432401E+02  2.980041049E+02  1.250000000E+02  0.00000E+00  9.000E+00
      21     1     1     2   511   501  1.176093112E+01  5.229230565E+01 -3.288492197E+02  3.331885563E+02  0.000000000E+00  0.00000E+00  9.000E+00
#rwgt            1           1   2.6056170768196423E-002           7      159101           0
</event>
<event>
      5   9999  3.19816E-02  2.63628E+02 -1.00000E+00  1.07448E-01
      21    -1     0     0   512   501  0.000000000E+00  0.000000000E+00  1.684410382E+03  1.684410382E+03  0.000000000E+00  0.00000E+00  9.000E+00
      21    -1     0     0   501   502  0.000000000E+00  0.000000000E+00 -1.570435416E+03  1.570435416E+03  0.000000000E+00  0.00000E+00  9.000E+00
      25     1     1     2     0     0 -2.532544541E+02  1.489409960E+03 -4.845937295E+02  1.591520006E+03  1.250000000E+02  0.00000E+00  9.000E+00
      25     1     1     2     0     0  2.065534320E+02 -1.229951383E+03  3.509150744E+02  1.301618652E+03  1.250000000E+02  0.00000E+00  9.000E+00
      21     1     1     2   512   502  4.670102214E+01 -2.594585766E+02  2.476536216E+02  3.617071394E+02  3.814697266E-06  0.00000E+00  9.000E+00
#rwgt            2          11   1.5745357911270012E-002           7      159293           0
</event>
<event>
      5   9999  3.19816E-02  6.27646E+01 -1.00000E+00  1.33666E-01
      21    -1     0     0   502   511  0.000000000E+00  0.000000000E+00  8.471180212E+01  8.471180212E+01  0.000000000E+00  0.00000E+00  9.000E+00
      21    -1     0     0   501   502  0.000000000E+00  0.000000000E+00 -2.574245706E+03  2.574245706E+03  0.000000000E+00  0.00000E+00  9.000E+00
      25     1     1     2     0     0 -1.073478511E+02 -1.071040398E-01 -6.832572594E+01  1.783731410E+02  1.250000000E+02  0.00000E+00  9.000E+00
      25     1     1     2     0     0  7.352647226E+01  5.297972296E+01 -2.412247305E+03  2.417183289E+03  1.250000000E+02  0.00000E+00  9.000E+00
      21     1     1     2   501   511  3.382137885E+01 -5.287261892E+01 -8.960873531E+00  6.340107848E+01  2.095508078E-06  0.00000E+00  9.000E+00
#rwgt            1           1   6.5876373506332159E-002           7      159358           0
</event>
<event>
      5   9999  3.19816E-02  1.42037E+01 -1.00000E+00  1.79645E-01
      21    -1     0     0   512   501  0.000000000E+00  0.000000000E+00  1.112012188E+02  1.112012188E+02  0.000000000E+00  0.00000E+00  9.000E+00
      21    -1     0     0   501   502  0.000000000E+00  0.000000000E+00 -5.766664602E+02  5.766664602E+02  0.000000000E+00  0.00000E+00  9.000E+00
      25     1     1     2     0     0  6.297642807E+01  7.682552273E+01 -4.102777887E+02  4.402511275E+02  1.250000000E+02  0.00000E+00  9.000E+00
      25     1     1     2     0     0 -7.705839431E+01 -7.868132750E+01 -1.042600852E+02  1.965296741E+02  1.250000000E+02  0.00000E+00  9.000E+00
      21     1     1     2   512   502  1.408196624E+01  1.855804771E+00  4.907263247E+01  5.108687740E+01  0.000000000E+00  0.00000E+00  9.000E+00
#rwgt            1           1   2.8669609489684004E-002           7      159469           0
</event>
<event>
      5   9999  3.19816E-02  1.59039E+02 -1.00000E+00  1.15395E-01
      21    -1     0     0   502   511  0.000000000E+00  0.000000000E+00  1.633647728E+03  1.633647728E+03  0.000000000E+00  0.00000E+00  9.000E+00
      21    -1     0     0   501   502  0.000000000E+00  0.000000000E+00 -3.175946612E+02  3.175946612E+02  0.000000000E+00  0.00000E+00  9.000E+00
      25     1     1     2     0     0  2.184375578E+01  2.434209337E+02  8.037750811E+02  8.493587473E+02  1.250000000E+02  0.00000E+00  9.000E+00
      25     1     1     2     0     0  4.835142065E+01 -3.861309749E+02 -1.388065293E+02  4.316563937E+02  1.250000000E+02  0.00000E+00  9.000E+00
      21     1     1     2   501   511 -7.019517643E+01  1.427100412E+02  6.510845145E+02  6.702272478E+02  0.000000000E+00  0.00000E+00  9.000E+00
#rwgt            1           1   2.9921143037288416E-002           7      159615           0
</event>
<event>
      5   9999  3.19816E-02  6.31261E+01 -1.00000E+00  1.33535E-01
      21    -1     0     0   502   501  0.000000000E+00  0.000000000E+00  2.173942527E+02  2.173942527E+02  0.000000000E+00  0.00000E+00  9.000E+00
      21    -1     0     0   501   512  0.000000000E+00  0.000000000E+00 -9.456062887E+02  9.456062887E+02  0.000000000E+00  0.00000E+00  9.000E+00
      25     1     1     2     0     0  2.094160823E+01  2.707882677E+02 -5.898057173E+02  6.612568495E+02  1.250000000E+02  0.00000E+00  9.000E+00
      25     1     1     2     0     0  1.918037456E+01 -2.220530091E+02  8.522268214E+01  2.693758177E+02  1.250000000E+02  0.00000E+00  9.000E+00
      21     1     1     2   502   512 -4.012198279E+01 -4.873525855E+01 -2.236290009E+02  2.323678742E+02  0.000000000E+00  0.00000E+00  9.000E+00
#rwgt            1           1   2.9223221835908243E-002           7      159679           0
</event>
<event>
      5   9999  3.19816E-02  6.61172E+01 -1.00000E+00  1.32488E-01
      21    -1     0     0   502   501  0.000000000E+00  0.000000000E+00  6.004439494E+02  6.004439494E+02  0.000000000E+00  0.00000E+00  9.000E+00
      21    -1     0     0   511   502  0.000000000E+00  0.000000000E+00 -3.132385082E+02  3.132385082E+02  0.000000000E+00  0.00000E+00  9.000E+00
      25     1     1     2     0     0  1.651421584E+02 -2.670478103E+01  4.404005131E+02  4.874040314E+02  1.250000000E+02  0.00000E+00  9.000E+00
      25     1     1     2     0     0 -1.686243177E+02  9.273017849E+01  3.008514414E+01  2.314371673E+02  1.250000000E+02  0.00000E+00  9.000E+00
      21     1     1     2   511   501  3.482159261E+00 -6.602539747E+01 -1.832802161E+02  1.948412589E+02  3.814697266E-06  0.00000E+00  9.000E+00
#rwgt            1           1   2.5550703694918669E-002           7      159780           0
</event>
<event>
      5   9999  3.19816E-02  2.79345E+01 -1.00000E+00  1.55223E-01
      21    -1     0     0   502   501  0.000000000E+00  0.000000000E+00  1.645702283E+02  1.645702283E+02  0.000000000E+00  0.00000E+00  9.000E+00
      -2    -1     0     0     0   502  0.000000000E+00  0.000000000E+00 -4.560471908E+02  4.560471908E+02  0.000000000E+00  0.00000E+00  9.000E+00
      25     1     1     2     0     0  9.328925346E+01 -1.014344062E+02  6.064718687E+01  1.956908400E+02  1.250000000E+02  0.00000E+00  9.000E+00
      25     1     1     2     0     0 -1.181088606E+02  1.142533671E+02 -2.824943157E+02  3.499022338E+02  1.250000000E+02  0.00000E+00  9.000E+00
      -2     1     1     2     0   501  2.481960711E+01 -1.281896089E+01 -6.962983373E+01  7.502434539E+01  9.536743164E-07  0.00000E+00  9.000E+00
#rwgt            1           1   2.3051964935687740E-002           7      159864           0
</event>
<event>
      5   9999  3.19816E-02  1.12084E+01 -1.00000E+00  1.90199E-01
      21    -1     0     0   511   501  0.000000000E+00  0.000000000E+00  4.643475665E+02  4.643475665E+02  0.000000000E+00  0.00000E+00  9.000E+00
      21    -1     0     0   501   502  0.000000000E+00  0.000000000E+00 -6.402930791E+01  6.402930791E+01  0.000000000E+00  0.00000E+00  9.000E+00
      25     1     1     2     0     0  8.367130435E+01 -7.407634920E+01  2.202573394E+02  2.768148989E+02  1.250000000E+02  0.00000E+00  9.000E+00
      25     1     1     2     0     0 -8.525629021E+01  6.298062082E+01  1.629913577E+02  2.311414638E+02  1.250000000E+02  0.00000E+00  9.000E+00
      21     1     1     2   511   502  1.584985862E+00  1.109572839E+01  1.706956148E+01  2.042051169E+01  4.129530925E-07  0.00000E+00  9.000E+00
#rwgt            1           1   2.7062162268748430E-002           7      159995           0
</event>
<event>
      5   9999  3.19816E-02  4.35160E+01 -1.00000E+00  1.42607E-01
      21    -1     0     0   502   501  0.000000000E+00  0.000000000E+00  2.370069153E+02  2.370069153E+02  0.000000000E+00  0.00000E+00  9.000E+00
      21    -1     0     0   501   512  0.000000000E+00  0.000000000E+00 -6.001165055E+02  6.001165055E+02  0.000000000E+00  0.00000E+00  9.000E+00
      25     1     1     2     0     0  1.618078384E+02 -2.847814841E+02 -2.179197847E+02  4.127908706E+02  1.250000000E+02  0.00000E+00  9.000E+00
      25     1     1     2     0     0 -1.658391635E+02  2.414526565E+02 -5.363302427E+01  3.229605468E+02  1.250000000E+02  0.00000E+00  9.000E+00
      21     1     1     2   502   512  4.031325054E+00  4.332882761E+01 -9.155678123E+01  1.013720034E+02  0.000000000E+00  0.00000E+00  9.000E+00
#rwgt            1           1   3.4614102248885802E-002           7      160177           0
</event>
<event>
      5   9999  3.19816E-02  6.12364E+01 -1.00000E+00  1.34232E-01
      21    -1     0     0   511   501  0.000000000E+00  0.000000000E+00  1.971358916E+02  1.971358916E+02  0.000000000E+00  0.00000E+00  9.000E+00
      21    -1     0     0   501   502  0.000000000E+00  0.000000000E+00 -6.966037011E+02  6.966037011E+02  0.000000000E+00  0.00000E+00  9.000E+00
      25     1     1     2     0     0 -2.083704220E+02  1.618756550E+02 -2.865853777E+02  4.091187348E+02  1.250000000E+02  0.00000E+00  9.000E+00
      25     1     1     2     0     0  1.504132795E+02 -1.421053937E+02 -2.954959874E+02  3.817865583E+02  1.250000000E+02  0.00000E+00  9.000E+00
      21     1     1     2   511   502  5.795714247E+01 -1.977026122E+01  8.261355559E+01  1.028342995E+02  9.536743164E-07  0.00000E+00  9.000E+00
#rwgt            1           1   2.9886575946246198E-002           7      160366           0
</event>
<event>
      5   9999  3.19816E-02  8.82820E+01 -1.00000E+00  1.26312E-01
      21    -1     0     0   502   501  0.000000000E+00  0.000000000E+00  5.838770374E+02  5.838770374E+02  0.000000000E+00  0.00000E+00  9.000E+00
       1    -1     0     0   501     0  0.000000000E+00  0.000000000E+00 -1.719962201E+03  1.719962201E+03  0.000000000E+00  0.00000E+00  9.000E+00
      25     1     1     2     0     0  2.275104443E+02 -2.991568112E+02 -1.392797717E+02  4.198567074E+02  1.250000000E+02  0.00000E+00  9.000E+00
      25     1     1     2     0     0 -1.441140180E+02  2.701956529E+02  3.803221154E+02  5.040282259E+02  1.250000000E+02  0.00000E+00  9.000E+00
       1     1     1     2   502     0 -8.339642629E+01  2.896115827E+01 -1.377127508E+03  1.379954306E+03  0.000000000E+00  0.00000E+00  9.000E+00
#rwgt            1           1   2.6774896448615502E-002           7      160440           0
</event>
<event>
      5   9999  3.19816E-02  9.01890E+01 -1.00000E+00  1.25879E-01
      21    -1     0     0   502   501  0.000000000E+00  0.000000000E+00  5.307414543E+02  5.307414543E+02  0.000000000E+00  0.00000E+00  9.000E+00
      21    -1     0     0   501   511  0.000000000E+00  0.000000000E+00 -7.451705195E+02  7.451705195E+02  0.000000000E+00  0.00000E+00  9.000E+00
      25     1     1     2     0     0  2.506733705E+02 -4.044577606E+02 -8.583857027E+01  4.994161380E+02  1.250000000E+02  0.00000E+00  9.000E+00
      25     1     1     2     0     0 -2.085292986E+02  3.247211078E+02  1.881525253E+02  4.471628775E+02  1.250000000E+02  0.00000E+00  9.000E+00
      21     1     1     2   502   511 -4.214407186E+01  7.973665277E+01 -3.167430202E+02  3.293329583E+02  3.814697266E-06  0.00000E+00  9.000E+00
#rwgt            1           1   2.9771908675185216E-002           7      160517           0
</event>
<event>
      5   9999  3.19816E-02  1.27197E+01 -1.00000E+00  1.84407E-01
      21    -1     0     0   502   512  0.000000000E+00  0.000000000E+00  3.159894972E+02  3.159894972E+02  0.000000000E+00  0.00000E+00  9.000E+00
      21    -1     0     0   501   502  0.000000000E+00  0.000000000E+00 -1.297640525E+02  1.297640525E+02  0.000000000E+00  0.00000E+00  9.000E+00
      25     1     1     2     0     0  4.496009086E+00  6.287399940E+01  2.239002992E+02  2.640638140E+02  1.250000000E+02  0.00000E+00  9.000E+00
      25     1     1     2     0     0 -1.446342046E+01 -5.497196322E+01 -6.471824836E+01  1.518043443E+02  1.250000000E+02  0.00000E+00  9.000E+00
      21     1     1     2   501   512  9.967411372E+00 -7.902036183E+00  2.704339389E+01  2.988539138E+01  3.371747881E-07  0.00000E+00  9.000E+00
#rwgt            1           1   2.6853512636280788E-002           7      160591           0
</event>
<event>
      5   9999  3.19816E-02  6.03332E+01 -1.00000E+00  1.34575E-01
      21    -1     0     0   502   511  0.000000000E+00  0.000000000E+00  1.394678326E+02  1.394678326E+02  0.000000000E+00  0.00000E+00  9.000E+00
      21    -1     0     0   501   502  0.000000000E+00  0.000000000E+00 -2.764880839E+03  2.764880839E+03  0.000000000E+00  0.00000E+00  9.000E+00
      25     1     1     2     0     0  1.909664070E+01  4.050867655E+01 -2.699259382E+03  2.702523237E+03  1.250000000E+02  0.00000E+00  9.000E+00
      25     1     1     2     0     0 -1.511700502E+01  1.969311952E+01  5.240392965E+01  1.377951909E+02  1.250000000E+02  0.00000E+00  9.000E+00
      21     1     1     2   501   511 -3.979635682E+00 -6.020179607E+01  2.144244533E+01  6.403024451E+01  1.305872339E-06  0.00000E+00  9.000E+00
#rwgt            1           1   8.3093845039959646E-002           7      160767           0
</event>
<event>
      5   9999  3.19816E-02  1.04353E+02 -1.00000E+00  1.23001E-01
      21    -1     0     0   502   512  0.000000000E+00  0.000000000E+00  1.221276217E+02  1.221276217E+02  0.000000000E+00  0.00000E+00  9.000E+00
      21    -1     0     0   501   502  0.000000000E+00  0.000000000E+00 -6.837367849E+02  6.837367849E+02  0.000000000E+00  0.00000E+00  9.000E+00
      25     1     1     2     0     0 -1.269045546E+02 -6.035656401E+01 -3.955525883E+01  1.921907888E+02  1.250000000E+02  0.00000E+00  9.000E+00
      25     1     1     2     0     0  6.875295772E+01  1.470043510E+02 -4.220655956E+02  4.691498859E+02  1.250000000E+02  0.00000E+00  9.000E+00
      21     1     1     2   501   512  5.815159691E+01 -8.664778698E+01 -9.998830878E+01  1.445237320E+02  1.348699152E-06  0.00000E+00  9.000E+00
#rwgt            1           1   3.2080800804178036E-002           7      160886           0
</event>
<event>
      5   9999  3.26364E-02  3.39847E+01 -1.00000E+00  1.49371E-01
      21    -1     0     0   511   501  0.000000000E+00  0.000000000E+00  2.536106803E+03  2.536106803E+03  0.000000000E+00  0.00000E+00  9.000E+00
      21    -1     0     0   501   502  0.000000000E+00  0.000000000E+00 -4.041115260E+02  4.041115260E+02  0.000000000E+00  0.00000E+00  9.000E+00
      25     1     1     2     0     0 -8.651486035E+02 -4.132799636E+02  1.276738941E+03  1.601552296E+03  1.250000000E+02  0.00000E+00  9.000E+00
      25     1     1     2     0     0  8.320550720E+02  4.210116456E+02  6.818040067E+02  1.161915725E+03  1.250000000E+02  0.00000E+00  9.000E+00
      21     1     1     2   511   502  3.309353149E+01 -7.731682019E+00  1.734523294E+02  1.767503078E+02  0.000000000E+00  0.00000E+00  9.000E+00
#rwgt            1           1   3.6469433421340174E-002           7      160926           0
</event>
<event>
      5   9999  3.19816E-02  1.59729E+02 -1.00000E+00  1.15322E-01
      21    -1     0     0   502   501  0.000000000E+00  0.000000000E+00  8.181303710E+02  8.181303710E+02  0.000000000E+00  0.00000E+00  9.000E+00
      21    -1     0     0   512   502  0.000000000E+00  0.000000000E+00 -1.740588057E+02  1.740588057E+02  0.000000000E+00  0.00000E+00  9.000E+00
      25     1     1     2     0     0  4.930862475E+01 -4.593779575E+01  1.202844762E+02  1.861047468E+02  1.250000000E+02  0.00000E+00  9.000E+00
      25     1     1     2     0     0  9.565571449E+01  1.130101419E+02  5.989796611E+02  6.295418511E+02  1.250000000E+02  0.00000E+00  9.000E+00
      21     1     1     2   512   501 -1.449643392E+02 -6.707234612E+01 -7.519257202E+01  1.765425789E+02  3.932099939E-06  0.00000E+00  9.000E+00
#rwgt            1           1   3.1292748971512400E-002           7      161173           0
</event>
<event>
      5   9999  3.19816E-02  3.12230E+01 -1.00000E+00  1.51844E-01
      21    -1     0     0   511   501  0.000000000E+00  0.000000000E+00  6.073410047E+02  6.073410047E+02  0.000000000E+00  0.00000E+00  9.000E+00
      21    -1     0     0   501   502  0.000000000E+00  0.000000000E+00 -7.123815795E+02  7.123815795E+02  0.000000000E+00  0.00000E+00  9.000E+00
      25     1     1     2     0     0  1.954280488E+01 -1.002607425E+02  5.545104317E+02  5.775300482E+02  1.250000000E+02  0.00000E+00  9.000E+00
      25     1     1     2     0     0  1.076102011E+01  1.077808079E+02 -6.832557177E+02  7.029906670E+02  1.250000000E+02  0.00000E+00  9.000E+00
      21     1     1     2   511   502 -3.030382499E+01 -7.520065389E+00  2.370471126E+01  3.920186894E+01  6.743495762E-07  0.00000E+00  9.000E+00
#rwgt            1           1   2.9172938251451178E-002           7      161209           0
</event>
<event>
      5   9999  3.19816E-02  1.17789E+02 -1.00000E+00  1.20712E-01
      21    -1     0     0   502   512  0.000000000E+00  0.000000000E+00  2.493175774E+03  2.493175774E+03  0.000000000E+00  0.00000E+00  9.000E+00
      21    -1     0     0   501   502  0.000000000E+00  0.000000000E+00 -8.975401165E+01  8.975401165E+01  0.000000000E+00  0.00000E+00  9.000E+00
      25     1     1     2     0     0 -2.617854586E+02 -1.228689770E+02  2.642917163E+02  4.112219877E+02  1.250000000E+02  0.00000E+00  9.000E+00
      25     1     1     2     0     0  2.232975651E+02  1.154561900E+01  1.529427718E+03  1.550731842E+03  1.250000000E+02  0.00000E+00  9.000E+00
      21     1     1     2   501   512  3.848789344E+01  1.113233580E+02  6.097023285E+02  6.209759556E+02  1.321449896E-05  0.00000E+00  9.000E+00
#rwgt            1           1   3.6196222823234425E-002           7      161350           0
</event>
<event>
      5   9999  3.19816E-02  3.36162E+01 -1.00000E+00  1.49684E-01
      21    -1     0     0   502   501  0.000000000E+00  0.000000000E+00  1.080082779E+02  1.080082779E+02  0.000000000E+00  0.00000E+00  9.000E+00
      21    -1     0     0   511   502  0.000000000E+00  0.000000000E+00 -7.898266644E+02  7.898266644E+02  0.000000000E+00  0.00000E+00  9.000E+00
      25     1     1     2     0     0 -5.491420460E+01 -7.886996714E+01  1.580861251E+01  1.584643613E+02  1.250000000E+02  0.00000E+00  9.000E+00
      25     1     1     2     0     0  2.178374443E+01  7.317605464E+01 -2.446316531E+02  2.851296410E+02  1.250000000E+02  0.00000E+00  9.000E+00
      21     1     1     2   511   501  3.313046016E+01  5.693912500E+00 -4.529953460E+02  4.542409399E+02  0.000000000E+00  0.00000E+00  9.000E+00
#rwgt            1           1   2.7283024791289870E-002           7      161444           0
</event>
<event>
      5   9999  3.19816E-02  1.11276E+02 -1.00000E+00  1.21776E-01
      21    -1     0     0   502   501  0.000000000E+00  0.000000000E+00  2.712610627E+02  2.712610627E+02  0.000000000E+00  0.00000E+00  9.000E+00
      21    -1     0     0   501   512  0.000000000E+00  0.000000000E+00 -4.301226987E+02  4.301226987E+02  0.000000000E+00  0.00000E+00  9.000E+00
      25     1     1     2     0     0  1.524929090E+02 -5.442937654E+01  7.139931908E+01  2.166552725E+02  1.250000000E+02  0.00000E+00  9.000E+00
      25     1     1     2     0     0 -1.694342563E+02 -5.554903163E+01  1.204702689E+01  2.180912492E+02  1.250000000E+02  0.00000E+00  9.000E+00
      21     1     1     2   502   512  1.694134728E+01  1.099784082E+02 -2.423079819E+02  2.666372397E+02  3.814697266E-06  0.00000E+00  9.000E+00
#rwgt            1           1   2.7236629007783522E-002           7      161512           0
</event>
<event>
      5   9999  3.19816E-02  9.71007E+01 -1.00000E+00  1.24405E-01
      -1    -1     0     0     0   501  0.000000000E+00  0.000000000E+00  3.311537554E+02  3.311537554E+02  0.000000000E+00  0.00000E+00  9.000E+00
      21    -1     0     0   501   502  0.000000000E+00  0.000000000E+00 -4.019476036E+02  4.019476036E+02  0.000000000E+00  0.00000E+00  9.000E+00
      25     1     1     2     0     0  8.533015320E+01  5.396516333E+01  3.942891885E+01  1.654482201E+02  1.250000000E+02  0.00000E+00  9.000E+00
      25     1     1     2     0     0 -1.294270815E+02  3.254503880E+01 -3.018006151E+02  3.528727253E+02  1.250000000E+02  0.00000E+00  9.000E+00
      -1     1     1     2     0   502  4.409692826E+01 -8.651020214E+01  1.915778481E+02  2.147804135E+02  2.697398305E-06  0.00000E+00  9.000E+00
#rwgt            1           1   2.8036690677376897E-002           7      161580           0
</event>
<event>
      5   9999  3.19816E-02  2.85750E+00 -1.00000E+00  3.03433E-01
      21    -1     0     0   502   511  0.000000000E+00  0.000000000E+00  2.300713942E+03  2.300713942E+03  0.000000000E+00  0.00000E+00  9.000E+00
      21    -1     0     0   501   502  0.000000000E+00  0.000000000E+00 -7.495963103E+02  7.495963103E+02  0.000000000E+00  0.00000E+00  9.000E+00
      25     1     1     2     0     0 -7.305882830E+02 -3.469271752E+02 -4.145283151E+02  9.173747479E+02  1.250000000E+02  0.00000E+00  9.000E+00
      25     1     1     2     0     0  7.334385212E+02  3.467236404E+02  1.931656363E+03  2.098826018E+03  1.250000000E+02  0.00000E+00  9.000E+00
      21     1     1     2   501   511 -2.850238251E+00  2.035348475E-01  3.398958342E+01  3.410948645E+01  0.000000000E+00  0.00000E+00  9.000E+00
#rwgt            2          11   1.0194117665591384E-003           7      161649           0
</event>
<event>
      5   9999  3.19816E-02  8.41084E+01 -1.00000E+00  1.27306E-01
      -2    -1     0     0     0   501  0.000000000E+00  0.000000000E+00  5.966367315E+02  5.966367315E+02  0.000000000E+00  0.00000E+00  9.000E+00
      21    -1     0     0   501   502  0.000000000E+00  0.000000000E+00 -3.881938564E+02  3.881938564E+02  0.000000000E+00  0.00000E+00  9.000E+00
      25     1     1     2     0     0  1.402296040E+02  1.785258034E+02 -2.802308438E+02  3.816937649E+02  1.250000000E+02  0.00000E+00  9.000E+00
      25     1     1     2     0     0 -5.836177441E+01 -1.592417728E+02  1.618874194E+02  2.657001609E+02  1.250000000E+02  0.00000E+00  9.000E+00
      -2     1     1     2     0   502 -8.186782961E+01 -1.928403055E+01  3.267862995E+02  3.374366621E+02  3.814697266E-06  0.00000E+00  9.000E+00
#rwgt            1           1   3.0459868372249524E-002           7      161669           0
</event>
<event>
      5   9999  3.19816E-02  9.75633E+01 -1.00000E+00  1.24312E-01
      21    -1     0     0   502   501  0.000000000E+00  0.000000000E+00  2.554686639E+02  2.554686639E+02  0.000000000E+00  0.00000E+00  9.000E+00
      21    -1     0     0   501   511  0.000000000E+00  0.000000000E+00 -2.371958313E+02  2.371958313E+02  0.000000000E+00  0.00000E+00  9.000E+00
      25     1     1     2     0     0 -1.619054588E+02  6.860145273E+01  3.859671810E+01  2.191671589E+02  1.250000000E+02  0.00000E+00  9.000E+00
      25     1     1     2     0     0  6.857911516E+01 -9.704065763E+01  5.566744408E+00  1.725571584E+02  1.250000000E+02  0.00000E+00  9.000E+00
      21     1     1     2   502   511  9.332634360E+01  2.843920490E+01 -2.589062995E+01  1.009401778E+02  1.066240300E-06  0.00000E+00  9.000E+00
#rwgt            1           1   3.0212055114424638E-002           7      161738           0
</event>
<event>
      5   9999  3.19816E-02  7.17189E+01 -1.00000E+00  1.30689E-01
      21    -1     0     0   502   501  0.000000000E+00  0.000000000E+00  7.903442989E+02  7.903442989E+02  0.000000000E+00  0.00000E+00  9.000E+00
      21    -1     0     0   512   502  0.000000000E+00  0.000000000E+00 -8.832277551E+02  8.832277551E+02  0.000000000E+00  0.00000E+00  9.000E+00
      25     1     1     2     0     0 -5.071662252E+02 -2.926521063E+01  5.633950637E+02  7.688387544E+02  1.250000000E+02  0.00000E+00  9.000E+00
      25     1     1     2     0     0  4.447053376E+02  6.451053733E+01 -3.317388034E+02  5.723635911E+02  1.250000000E+02  0.00000E+00  9.000E+00
      21     1     1     2   512   501  6.246088756E+01 -3.524532670E+01 -3.245397165E+02  3.323697085E+02  3.814697266E-06  0.00000E+00  9.000E+00
#rwgt            1           1   2.7981797526883848E-002           7      161780           0
</event>
<event>
      5   9999  3.19816E-02  1.22879E+02 -1.00000E+00  1.19933E-01
      21    -1     0     0   511   501  0.000000000E+00  0.000000000E+00  1.401897187E+03  1.401897187E+03  0.000000000E+00  0.00000E+00  9.000E+00
      21    -1     0     0   501   502  0.000000000E+00  0.000000000E+00 -6.474049493E+02  6.474049493E+02  0.000000000E+00  0.00000E+00  9.000E+00
      25     1     1     2     0     0 -8.514612529E+02 -4.025812238E+02  4.017296658E+02  1.031537508E+03  1.250000000E+02  0.00000E+00  9.000E+00
      25     1     1     2     0     0  7.484939081E+02  3.355214830E+02  2.841742834E+02  8.770392348E+02  1.250000000E+02  0.00000E+00  9.000E+00
      21     1     1     2   511   502  1.029673448E+02  6.705974079E+01  6.858828820E+01  1.407253929E+02  1.348699152E-06  0.00000E+00  9.000E+00
#rwgt            1           1   3.2756704150035995E-002           7      161946           0
</event>
<event>
      5   9999  3.19816E-02  6.70069E+01 -1.00000E+00  1.32189E-01
      21    -1     0     0   502   501  0.000000000E+00  0.000000000E+00  5.156466848E+01  5.156466848E+01  0.000000000E+00  0.00000E+00  9.000E+00
      21    -1     0     0   512   502  0.000000000E+00  0.000000000E+00 -1.021752827E+03  1.021752827E+03  0.000000000E+00  0.00000E+00  9.000E+00
      25     1     1     2     0     0  9.884443752E+00  8.470340172E+01 -3.054423753E+02  3.408700825E+02  1.250000000E+02  0.00000E+00  9.000E+00
      25     1     1     2     0     0 -3.171363640E+01 -1.480549124E+02 -2.804255462E+02  3.423295178E+02  1.250000000E+02  0.00000E+00  9.000E+00
      21     1     1     2   512   501  2.182919265E+01  6.335151069E+01 -3.843202374E+02  3.901178955E+02  7.629394531E-06  0.00000E+00  9.000E+00
#rwgt            1           1   2.4352890131219808E-002           7      162029           0
</event>
<event>
      5   9999  3.19816E-02  6.74448E+01 -1.00000E+00  1.32044E-01
      21    -1     0     0   511   501  0.000000000E+00  0.000000000E+00  5.204991977E+02  5.204991977E+02  0.000000000E+00  0.00000E+00  9.000E+00
      21    -1     0     0   501   502  0.000000000E+00  0.000000000E+00 -1.187562808E+02  1.187562808E+02  0.000000000E+00  0.00000E+00  9.000E+00
      25     1     1     2     0     0 -5.470494685E+01  3.072219131E+01 -4.582375296E+01  1.471777856E+02  1.250000000E+02  0.00000E+00  9.000E+00
      25     1     1     2     0     0 -1.230728379E+01 -3.834859001E+01  2.367514456E+02  2.707366444E+02  1.250000000E+02  0.00000E+00  9.000E+00
      21     1     1     2   511   502  6.701223063E+01  7.626398699E+00  2.108152242E+02  2.213410486E+02  0.000000000E+00  0.00000E+00  9.000E+00
#rwgt            1           1   2.5050383524576055E-002           7      162097           0
</event>
<event>
      5   9999  3.19816E-02  9.83685E+00 -1.00000E+00  1.96587E-01
      21    -1     0     0   502   501  0.000000000E+00  0.000000000E+00  8.935335537E+01  8.935335537E+01  0.000000000E+00  0.00000E+00  9.000E+00
      21    -1     0     0   501   512  0.000000000E+00  0.000000000E+00 -9.375119013E+02  9.375119013E+02  0.000000000E+00  0.00000E+00  9.000E+00
      25     1     1     2     0     0 -9.054513498E+01 -2.167166825E+02 -3.281145691E+02  4.224319027E+02  1.250000000E+02  0.00000E+00  9.000E+00
      25     1     1     2     0     0  9.050534734E+01  2.265534513E+02 -4.054649488E+02  4.894328441E+02  1.250000000E+02  0.00000E+00  9.000E+00
      21     1     1     2   502   512  3.978763859E-02 -9.836768824E+00 -1.145790280E+02  1.150005099E+02  1.348699152E-06  0.00000E+00  9.000E+00
#rwgt            1           1   2.7982778569415057E-002           7      162141           0
</event>
<event>
      5   9999  3.19816E-02  5.44434E+01 -1.00000E+00  1.36998E-01
      21    -1     0     0   502   501  0.000000000E+00  0.000000000E+00  6.307015433E+02  6.307015433E+02  0.000000000E+00  0.00000E+00  9.000E+00
      21    -1     0     0   511   502  0.000000000E+00  0.000000000E+00 -2.666636332E+02  2.666636332E+02  0.000000000E+00  0.00000E+00  9.000E+00
      25     1     1     2     0     0  1.229352543E+02 -8.865996849E+01  2.320880390E+02  3.040781555E+02  1.250000000E+02  0.00000E+00  9.000E+00
      25     1     1     2     0     0 -8.573485801E+01  4.890805822E+01  3.414811426E+02  3.767981353E+02  1.250000000E+02  0.00000E+00  9.000E+00
      21     1     1     2   511   501 -3.720039631E+01  3.975191028E+01 -2.095312715E+02  2.164888856E+02  4.672030912E-06  0.00000E+00  9.000E+00
#rwgt            1           1   2.6642669036821148E-002           7      162318           0
</event>
<event>
      5   9999  3.19816E-02  1.12976E+02 -1.00000E+00  1.21491E-01
      21    -1     0     0   502   501  0.000000000E+00  0.000000000E+00  1.433375850E+03  1.433375850E+03  0.000000000E+00  0.00000E+00  9.000E+00
       2    -1     0     0   501     0  0.000000000E+00  0.000000000E+00 -4.285261527E+02  4.285261527E+02  0.000000000E+00  0.00000E+00  9.000E+00
      25     1     1     2     0     0  4.528897630E+02 -4.564296468E+02  7.809237635E+02  1.019266444E+03  1.250000000E+02  0.00000E+00  9.000E+00
      25     1     1     2     0     0 -3.452481920E+02  4.907341026E+02  3.226203254E+02  6.926219372E+02  1.250000000E+02  0.00000E+00  9.000E+00
       2     1     1     2   502     0 -1.076415710E+02 -3.430445580E+01 -9.869439193E+01  1.500136210E+02  3.015782986E-06  0.00000E+00  9.000E+00
#rwgt            1           1   2.8194829657532724E-002           7      162395           0
</event>
<event>
      5   9999  3.19816E-02  4.59327E+02 -1.00000E+00  9.99102E-02
      21    -1     0     0   502   511  0.000000000E+00  0.000000000E+00  2.295098940E+02  2.295098940E+02  0.000000000E+00  0.00000E+00  9.000E+00
      21    -1     0     0   501   502  0.000000000E+00  0.000000000E+00 -2.339353556E+03  2.339353556E+03  0.000000000E+00  0.00000E+00  9.000E+00
      25     1     1     2     0     0  7.815495589E+01  1.026825260E+02 -7.035809545E+02  7.261563591E+02  1.250000000E+02  0.00000E+00  9.000E+00
      25     1     1     2     0     0 -2.931583293E+02  3.032172485E+02 -1.298388574E+03  1.370883071E+03  1.250000000E+02  0.00000E+00  9.000E+00
      21     1     1     2   501   511  2.150033734E+02 -4.058997746E+02 -1.078741344E+02  4.718240206E+02  9.818678037E-06  0.00000E+00  9.000E+00
#rwgt            2          11   6.8791771768749645E-003           7      162637           0
</event>
<event>
      5   9999  3.19816E-02  1.64763E+02 -1.00000E+00  1.14800E-01
      21    -1     0     0   502   501  0.000000000E+00  0.000000000E+00  1.395371476E+02  1.395371476E+02  0.000000000E+00  0.00000E+00  9.000E+00
       1    -1     0     0   501     0  0.000000000E+00  0.000000000E+00 -1.935951248E+03  1.935951248E+03  0.000000000E+00  0.00000E+00  9.000E+00
      25     1     1     2     0     0  3.011085809E+02 -5.113949414E+00 -1.078845211E+02  3.434481036E+02  1.250000000E+02  0.00000E+00  9.000E+00
      25     1     1     2     0     0 -1.597510206E+02 -7.953209396E+01 -8.502369256E+02  8.777092755E+02  1.250000000E+02  0.00000E+00  9.000E+00
       1     1     1     2   502     0 -1.413575603E+02  8.464604337E+01 -8.382926533E+02  8.543310161E+02  0.000000000E+00  0.00000E+00  9.000E+00
#rwgt            1           1   3.4160125192565748E-002           7      162657           0
</event>
<event>
      5   9999  3.19816E-02  8.77029E+01 -1.00000E+00  1.26446E-01
      21    -1     0     0   502   511  0.000000000E+00  0.000000000E+00  1.853703413E+03  1.853703413E+03  0.000000000E+00  0.00000E+00  9.000E+00
      21    -1     0     0   501   502  0.000000000E+00  0.000000000E+00 -4.009757555E+02  4.009757555E+02  0.000000000E+00  0.00000E+00  9.000E+00
      25     1     1     2     0     0  2.076917290E+02 -1.919256262E+01  5.041752209E+02  5.597516075E+02  1.250000000E+02  0.00000E+00  9.000E+00
      25     1     1     2     0     0 -2.487037904E+02 -5.833035476E+01 -3.172665078E+02  4.260739872E+02  1.250000000E+02  0.00000E+00  9.000E+00
      21     1     1     2   501   511  4.101206143E+01  7.752291738E+01  1.265818945E+03  1.268853574E+03  1.525878906E-05  0.00000E+00  9.000E+00
#rwgt            1           1   2.9030496919367463E-002           7      162706           0
</event>
<event>
      5   9999  3.19816E-02  3.11528E+01 -1.00000E+00  1.51911E-01
      21    -1     0     0   502   512  0.000000000E+00  0.000000000E+00  4.277211248E+02  4.277211248E+02  0.000000000E+00  0.00000E+00  9.000E+00
      21    -1     0     0   501   502  0.000000000E+00  0.000000000E+00 -1.022404482E+02  1.022404482E+02  0.000000000E+00  0.00000E+00  9.000E+00
      25     1     1     2     0     0 -8.468230770E+00  1.513061762E+02  8.730778711E+01  2.149719042E+02  1.250000000E+02  0.00000E+00  9.000E+00
      25     1     1     2     0     0 -3.110422045E+00 -1.223850039E+02  2.006526119E+02  2.662221526E+02  1.250000000E+02  0.00000E+00  9.000E+00
      21     1     1     2   501   512  1.157865282E+01 -2.892117237E+01  3.752027762E+01  4.876751628E+01  0.000000000E+00  0.00000E+00  9.000E+00
#rwgt            1           1   2.8461211480137669E-002           7      162789           0
</event>
<event>
      5   9999  3.19816E-02  1.17757E+02 -1.00000E+00  1.20717E-01
       2    -1     0     0   502     0  0.000000000E+00  0.000000000E+00  1.690083745E+03  1.690083745E+03  0.000000000E+00  0.00000E+00  9.000E+00
      21    -1     0     0   501   502  0.000000000E+00  0.000000000E+00 -4.003997102E+02  4.003997102E+02  0.000000000E+00  0.00000E+00  9.000E+00
      25     1     1     2     0     0  7.652058510E+01  6.483672370E+02  7.714861694E+02  1.018357198E+03  1.250000000E+02  0.00000E+00  9.000E+00
      25     1     1     2     0     0 -1.330265425E+02 -7.516808844E+02  3.108036539E+02  8.336330873E+02  1.250000000E+02  0.00000E+00  9.000E+00
       2     1     1     2   501     0  5.650595740E+01  1.033136474E+02  2.073942114E+02  2.384931695E+02  4.672030912E-06  0.00000E+00  9.000E+00
#rwgt            1           1   2.7959253607374990E-002           7      162897           0
</event>
<event>
      5   9999  3.19816E-02  1.49005E+02 -1.00000E+00  1.16508E-01
      21    -1     0     0   511   501  0.000000000E+00  0.000000000E+00  1.034917913E+03  1.034917913E+03  0.000000000E+00  0.00000E+00  9.000E+00
      21    -1     0     0   501   502  0.000000000E+00  0.000000000E+00 -1.490739813E+03  1.490739813E+03  0.000000000E+00  0.00000E+00  9.000E+00
      25     1     1     2     0     0  8.338044952E+02  2.763491941E+01  3.938061960E+02  9.309682836E+02  1.250000000E+02  0.00000E+00  9.000E+00
      25     1     1     2     0     0 -9.563097277E+02 -1.124588087E+02 -9.923455154E+02  1.388362309E+03  1.250000000E+02  0.00000E+00  9.000E+00
      21     1     1     2   511   502  1.225052325E+02  8.482388928E+01  1.427174189E+02  2.063271331E+02  1.907348633E-06  0.00000E+00  9.000E+00
#rwgt            1           1   2.7912570887835386E-002           7      162962           0
</event>
<event>
      5   9999  3.19816E-02  2.62329E+02 -1.00000E+00  1.07521E-01
      21    -1     0     0   512   501  0.000000000E+00  0.000000000E+00  2.093719053E+03  2.093719053E+03  0.000000000E+00  0.00000E+00  9.000E+00
      21    -1     0     0   501   502  0.000000000E+00  0.000000000E+00 -2.671099258E+02  2.671099258E+02  0.000000000E+00  0.00000E+00  9.000E+00
      25     1     1     2     0     0  3.515324912E+02  2.150565130E+02  3.880595600E+02  5.796892429E+02  1.250000000E+02  0.00000E+00  9.000E+00
      25     1     1     2     0     0 -2.078193962E+02  4.404320880E+00 -6.801137411E+01  2.519103937E+02  1.250000000E+02  0.00000E+00  9.000E+00
      21     1     1     2   512   502 -1.437130951E+02 -2.194608339E+02  1.506560942E+03  1.529229342E+03  2.157918644E-05  0.00000E+00  9.000E+00
#rwgt            1           1   2.9397252699313356E-002           7      163040           0
</event>
<event>
      5   9999  3.19816E-02  1.00242E+01 -1.00000E+00  1.95636E-01
      21    -1     0     0   511   501  0.000000000E+00  0.000000000E+00  3.880080463E+02  3.880080463E+02  0.000000000E+00  0.00000E+00  9.000E+00
      21    -1     0     0   501   502  0.000000000E+00  0.000000000E+00 -1.869897484E+02  1.869897484E+02  0.000000000E+00  0.00000E+00  9.000E+00
      25     1     1     2     0     0  6.343859295E+01 -4.200628182E+00 -1.427077637E+02  2.000814988E+02  1.250000000E+02  0.00000E+00  9.000E+00
      25     1     1     2     0     0 -5.939976040E+01  1.337519961E+01  3.281778092E+02  3.564167532E+02  1.250000000E+02  0.00000E+00  9.000E+00
      21     1     1     2   511   502 -4.038832557E+00 -9.174571426E+00  1.554825239E+01  1.849954274E+01  2.920019320E-07  0.00000E+00  9.000E+00
#rwgt            1           1   3.1601371766034662E-002           7      163130           0
</event>
<event>
      5   9999  3.19816E-02  1.43908E+02 -1.00000E+00  1.17112E-01
      21    -1     0     0   502   512  0.000000000E+00  0.000000000E+00  1.109423206E+02  1.109423206E+02  0.000000000E+00  0.00000E+00  9.000E+00
      21    -1     0     0   501   502  0.000000000E+00  0.000000000E+00 -2.825200755E+03  2.825200755E+03  0.000000000E+00  0.00000E+00  9.000E+00
      25     1     1     2     0     0 -1.625255153E+02  3.967120463E+02 -1.072983572E+03  1.162202107E+03  1.250000000E+02  0.00000E+00  9.000E+00
      25     1     1     2     0     0  3.744647581E+01 -4.678798592E+02 -1.480604756E+03  1.558245566E+03  1.250000000E+02  0.00000E+00  9.000E+00
      21     1     1     2   501   512  1.250790395E+02  7.116781285E+01 -1.606701066E+02  2.156954030E+02  1.907348633E-06  0.00000E+00  9.000E+00
#rwgt            2          11   1.0158852445642370E-002           7      163433           0
</event>
<event>
      5   9999  3.19816E-02  2.40069E+01 -1.00000E+00  1.60081E-01
      21    -1     0     0   511   501  0.000000000E+00  0.000000000E+00  4.358509113E+01  4.358509113E+01  0.000000000E+00  0.00000E+00  9.000E+00
      21    -1     0     0   501   502  0.000000000E+00  0.000000000E+00 -7.628798857E+02  7.628798857E+02  0.000000000E+00  0.00000E+00  9.000E+00
      25     1     1     2     0     0 -5.947936557E+01 -1.902358757E+01 -1.413851606E+02  1.987824324E+02  1.250000000E+02  0.00000E+00  9.000E+00
      25     1     1     2     0     0  7.087234279E+01  4.015491877E+01 -5.542348505E+02  5.739656575E+02  1.250000000E+02  0.00000E+00  9.000E+00
      21     1     1     2   511   502 -1.139297722E+01 -2.113133120E+01 -2.367478350E+01  3.371688690E+01  3.371747881E-07  0.00000E+00  9.000E+00
#rwgt            1           1   3.2694687528786300E-002           7      163543           0
</event>
<event>
      5   9999  3.19816E-02  1.08629E+02 -1.00000E+00  1.22233E-01
      21    -1     0     0   502   501  0.000000000E+00  0.000000000E+00  1.548219572E+02  1.548219572E+02  0.000000000E+00  0.00000E+00  9.000E+00
       2    -1     0     0   501     0  0.000000000E+00  0.000000000E+00 -8.655200982E+02  8.655200982E+02  0.000000000E+00  0.00000E+00  9.000E+00
      25     1     1     2     0     0  2.332912007E+02  9.497925146E+01 -1.791828730E+02  3.334326686E+02  1.250000000E+02  0.00000E+00  9.000E+00
      25     1     1     2     0     0 -1.891361129E+02 -1.942289614E+02 -2.652939080E+02  3.993785376E+02  1.250000000E+02  0.00000E+00  9.000E+00
       2     1     1     2   502     0 -4.415508778E+01  9.924970993E+01 -2.662213599E+02  2.875308491E+02  5.394796609E-06  0.00000E+00  9.000E+00
#rwgt            1           1   2.7881197274234319E-002           7      163669           0
</event>
<event>
      5   9999  3.19816E-02  3.33908E+02 -1.00000E+00  1.04103E-01
      21    -1     0     0   502   501  0.000000000E+00  0.000000000E+00  2.154069040E+03  2.154069040E+03  0.000000000E+00  0.00000E+00  9.000E+00
      21    -1     0     0   511   502  0.000000000E+00  0.000000000E+00 -3.661005060E+02  3.661005060E+02  0.000000000E+00  0.00000E+00  9.000E+00
      25     1     1     2     0     0  1.481409821E+02  4.612643244E+02  2.121342300E+02  5.434486720E+02  1.250000000E+02  0.00000E+00  9.000E+00
      25     1     1     2     0     0  6.413690199E+00 -7.572496789E+02  1.406592178E+03  1.602371607E+03  1.250000000E+02  0.00000E+00  9.000E+00
      21     1     1     2   511   501 -1.545546723E+02  2.959853545E+02  1.692421267E+02  3.743492677E+02  7.136645101E-06  0.00000E+00  9.000E+00
#rwgt            2          11   3.8850416136297561E-003           7      163778           0
</event>
<event>
      5   9999  3.19816E-02  2.11102E+02 -1.00000E+00  1.10801E-01
      21    -1     0     0   502   512  0.000000000E+00  0.000000000E+00  1.077161575E+03  1.077161575E+03  0.000000000E+00  0.00000E+00  9.000E+00
      21    -1     0     0   501   502  0.000000000E+00  0.000000000E+00 -1.009234150E+03  1.009234150E+03  0.000000000E+00  0.00000E+00  9.000E+00
      25     1     1     2     0     0 -1.789722946E+02  3.920294800E+02  4.936621139E+02  6.671172896E+02  1.250000000E+02  0.00000E+00  9.000E+00
      25     1     1     2     0     0  1.577923253E+02 -6.020667649E+02 -7.807324061E+02  1.006255881E+03  1.250000000E+02  0.00000E+00  9.000E+00
      21     1     1     2   501   512  2.117996936E+01  2.100372849E+02  3.549977167E+02  4.130225551E+02  3.814697266E-06  0.00000E+00  9.000E+00
#rwgt            1           1   3.1802615322728413E-002           7      163798           0
</event>
<event>
      5   9999  3.19816E-02  1.95029E+02 -1.00000E+00  1.12047E-01
      21    -1     0     0   502   501  0.000000000E+00  0.000000000E+00  3.998543582E+02  3.998543582E+02  0.000000000E+00  0.00000E+00  9.000E+00
      -1    -1     0     0     0   502  0.000000000E+00  0.000000000E+00 -4.589445620E+02  4.589445620E+02  0.000000000E+00  0.00000E+00  9.000E+00
      25     1     1     2     0     0  2.168103622E+02 -4.344315432E+01  9.277295178E+01  2.704179383E+02  1.250000000E+02  0.00000E+00  9.000E+00
      25     1     1     2     0     0 -2.930199593E+02 -1.360792496E+02 -1.815501467E+02  3.911057587E+02  1.250000000E+02  0.00000E+00  9.000E+00
      -1     1     1     2     0   501  7.620959719E+01  1.795224039E+02  2.968699123E+01  1.972752231E+02  1.507891493E-06  0.00000E+00  9.000E+00
#rwgt            1           1   2.5567579516226013E-002           7      163848           0
</event>
<event>
      5   9999  3.19816E-02  1.83547E+01 -1.00000E+00  1.69505E-01
      21    -1     0     0   502   501  0.000000000E+00  0.000000000E+00  8.189600481E+02  8.189600481E+02  0.000000000E+00  0.00000E+00  9.000E+00
      21    -1     0     0   511   502  0.000000000E+00  0.000000000E+00 -1.343086314E+02  1.343086314E+02  0.000000000E+00  0.00000E+00  9.000E+00
      25     1     1     2     0     0  1.244694861E+02  2.433708997E+02  1.856436325E+02  3.532854456E+02  1.250000000E+02  0.00000E+00  9.000E+00
      25     1     1     2     0     0 -1.157813059E+02 -2.595391082E+02  4.885624387E+02  5.788645057E+02  1.250000000E+02  0.00000E+00  9.000E+00
      21     1     1     2   511   501 -8.688180228E+00  1.616820844E+01  1.044534557E+01  2.111872827E+01  1.685873940E-07  0.00000E+00  9.000E+00
#rwgt            1           1   2.7528408699724345E-002           7      163923           0
</event>
<event>
      5   9999  3.19816E-02  5.27989E+01 -1.00000E+00  1.37739E-01
      21    -1     0     0   512   501  0.000000000E+00  0.000000000E+00  1.401096998E+02  1.401096998E+02  0.000000000E+00  0.00000E+00  9.000E+00
      21    -1     0     0   501   502  0.000000000E+00  0.000000000E+00 -1.071505990E+03  1.071505990E+03  0.000000000E+00  0.00000E+00  9.000E+00
      25     1     1     2     0     0 -1.202125995E+02 -9.198581846E+01 -1.165372913E+01  1.966552041E+02  1.250000000E+02  0.00000E+00  9.000E+00
      25     1     1     2     0     0  1.065829092E+02  4.097642183E+01 -9.424132008E+02  9.575001957E+02  1.250000000E+02  0.00000E+00  9.000E+00
      21     1     1     2   512   502  1.362969031E+01  5.100939663E+01  2.267063988E+01  5.746028990E+01  1.261592536E-06  0.00000E+00  9.000E+00
#rwgt            1           1   2.8799471944788983E-002           7      164137           0
</event>
<event>
      5   9999  3.19816E-02  8.12805E+00 -1.00000E+00  2.06773E-01
      21    -1     0     0   502   501  0.000000000E+00  0.000000000E+00  2.963800148E+01  2.963800148E+01  0.000000000E+00  0.00000E+00  9.000E+00
      21    -1     0     0   511   502  0.000000000E+00  0.000000000E+00 -1.081642869E+03  1.081642869E+03  0.000000000E+00  0.00000E+00  9.000E+00
      25     1     1     2     0     0 -8.315749491E+01 -4.422827145E+01 -2.720684732E+02  3.138750756E+02  1.250000000E+02  0.00000E+00  9.000E+00
      25     1     1     2     0     0  8.073362061E+01  5.198649983E+01 -7.312407445E+02  7.480364564E+02  1.250000000E+02  0.00000E+00  9.000E+00
      21     1     1     2   511   501  2.423874308E+00 -7.758228375E+00 -4.869564947E+01  4.936933817E+01  6.743495762E-07  0.00000E+00  9.000E+00
#rwgt            1           1   3.4751637535506627E-002           7      164213           0
</event>
<event>
      5   9999  3.19816E-02  1.36495E+02 -1.00000E+00  1.18041E-01
      21    -1     0     0   512   501  0.000000000E+00  0.000000000E+00  5.919983526E+02  5.919983526E+02  0.000000000E+00  0.00000E+00  9.000E+00
      21    -1     0     0   501   502  0.000000000E+00  0.000000000E+00 -1.808979135E+02  1.808979135E+02  0.000000000E+00  0.00000E+00  9.000E+00
      25     1     1     2     0     0 -8.206201923E+01 -1.223300662E+02  2.462167349E+01  1.947563783E+02  1.250000000E+02  0.00000E+00  9.000E+00
      25     1     1     2     0     0  1.627869580E+01  2.419268286E+02  1.675397540E+02  3.201377134E+02  1.250000000E+02  0.00000E+00  9.000E+00
      21     1     1     2   512   502  6.578332343E+01 -1.195967624E+02  2.189390116E+02  2.580021744E+02  2.697398305E-06  0.00000E+00  9.000E+00
#rwgt            1           1   2.7983801456458745E-002           7      164428           0
</event>
<event>
      5   9999  3.19816E-02  2.55294E+01 -1.00000E+00  1.58072E-01
      21    -1     0     0   502   501  0.000000000E+00  0.000000000E+00  1.956111293E+02  1.956111293E+02  0.000000000E+00  0.00000E+00  9.000E+00
      21    -1     0     0   501   511  0.000000000E+00  0.000000000E+00 -8.353973883E+02  8.353973883E+02  0.000000000E+00  0.00000E+00  9.000E+00
      25     1     1     2     0     0 -8.014461547E+01  3.578326864E+02 -4.046943260E+02  5.602409199E+02  1.250000000E+02  0.00000E+00  9.000E+00
      25     1     1     2     0     0  5.464221492E+01 -3.566582505E+02 -2.145807135E+02  4.380191342E+02  1.250000000E+02  0.00000E+00  9.000E+00
      21     1     1     2   502   511  2.550240054E+01 -1.174435887E+00 -2.051121956E+01  3.274846349E+01  6.743495762E-07  0.00000E+00  9.000E+00
#rwgt            1           1   2.7522769954450528E-002           7      164496           0
</event>
<event>
      5   9999  3.23246E-02  1.05434E+02 -1.00000E+00  1.22803E-01
       2    -1     0     0   502     0  0.000000000E+00  0.000000000E+00  1.824085749E+03  1.824085749E+03  0.000000000E+00  0.00000E+00  9.000E+00
      21    -1     0     0   501   502  0.000000000E+00  0.000000000E+00 -7.314159430E+01  7.314159430E+01  0.000000000E+00  0.00000E+00  9.000E+00
      25     1     1     2     0     0  2.732180073E+00 -2.655461814E+02  5.181696781E+02  5.955225055E+02  1.250000000E+02  0.00000E+00  9.000E+00
      25     1     1     2     0     0 -6.180584322E+01  1.782152734E+02  1.136888685E+03  1.159190031E+03  1.250000000E+02  0.00000E+00  9.000E+00
       2     1     1     2   501     0  5.907366315E+01  8.733090794E+01  9.588579201E+01  1.425148072E+02  1.348699152E-06  0.00000E+00  9.000E+00
#rwgt            1           1   3.6251819737071193E-002           7      164638           0
</event>
<event>
      5   9999  3.19816E-02  2.42192E+02 -1.00000E+00  1.08703E-01
      21    -1     0     0   502   501  0.000000000E+00  0.000000000E+00  8.511039543E+02  8.511039543E+02  0.000000000E+00  0.00000E+00  9.000E+00
       1    -1     0     0   501     0  0.000000000E+00  0.000000000E+00 -9.424145479E+02  9.424145479E+02  0.000000000E+00  0.00000E+00  9.000E+00
      25     1     1     2     0     0  2.738907654E+02 -1.147021547E+02  7.773741982E+02  8.414917586E+02  1.250000000E+02  0.00000E+00  9.000E+00
      25     1     1     2     0     0 -3.816577665E+01  5.910799869E+01 -2.602852893E+02  2.971932264E+02  1.250000000E+02  0.00000E+00  9.000E+00
       1     1     1     2   502     0 -2.357249887E+02  5.559415602E+01 -6.083995026E+02  6.548335172E+02  7.629394531E-06  0.00000E+00  9.000E+00
#rwgt            2          12   6.9685891659211521E-004           7      164689           0
</event>
<event>
      5   9999  3.19816E-02  2.58039E+02 -1.00000E+00  1.07763E-01
      21    -1     0     0   502   511  0.000000000E+00  0.000000000E+00  7.977461941E+01  7.977461941E+01  0.000000000E+00  0.00000E+00  9.000E+00
      21    -1     0     0   501   502  0.000000000E+00  0.000000000E+00 -2.099043402E+03  2.099043402E+03  0.000000000E+00  0.00000E+00  9.000E+00
      25     1     1     2     0     0 -1.902570869E+02 -1.718834277E+02 -1.204819664E+03  1.238126445E+03  1.250000000E+02  0.00000E+00  9.000E+00
      25     1     1     2     0     0  1.432584764E+02 -8.183904098E+01 -2.911459219E+02  3.572276131E+02  1.250000000E+02  0.00000E+00  9.000E+00
      21     1     1     2   501   511  4.699861057E+01  2.537224686E+02 -5.233031963E+02  5.834639627E+02  0.000000000E+00  0.00000E+00  9.000E+00
#rwgt            1           1   2.7524156548081886E-002           7      164723           0
</event>
<event>
      5   9999  3.19816E-02  3.73689E+01 -1.00000E+00  1.46697E-01
      21    -1     0     0   502   501  0.000000000E+00  0.000000000E+00  1.297917691E+02  1.297917691E+02  0.000000000E+00  0.00000E+00  9.000E+00
      21    -1     0     0   501   512  0.000000000E+00  0.000000000E+00 -1.255670102E+03  1.255670102E+03  0.000000000E+00  0.00000E+00  9.000E+00
      25     1     1     2     0     0 -2.329404191E+02 -1.204127634E+02 -2.732944192E+02  3.988424652E+02  1.250000000E+02  0.00000E+00  9.000E+00
      25     1     1     2     0     0  2.587763216E+02  9.341389598E+01 -2.773405049E+02  4.101634994E+02  1.250000000E+02  0.00000E+00  9.000E+00
      21     1     1     2   502   512 -2.583590246E+01  2.699886742E+01 -5.752434084E+02  5.764559060E+02  1.321449896E-05  0.00000E+00  9.000E+00
#rwgt            1           1   2.8298489508369259E-002           7      164753           0
</event>
<event>
      5   9999  3.19816E-02  6.70392E+01 -1.00000E+00  1.32178E-01
      21    -1     0     0   502   501  0.000000000E+00  0.000000000E+00  1.947784912E+01  1.947784912E+01  0.000000000E+00  0.00000E+00  9.000E+00
      21    -1     0     0   501   511  0.000000000E+00  0.000000000E+00 -3.402646607E+03  3.402646607E+03  0.000000000E+00  0.00000E+00  9.000E+00
      25     1     1     2     0     0  1.508276714E+02 -3.367246917E+01 -8.150730131E+02  8.389587822E+02  1.250000000E+02  0.00000E+00  9.000E+00
      25     1     1     2     0     0 -1.386319017E+02  9.959299901E+01 -1.941136957E+03  1.952632903E+03  1.250000000E+02  0.00000E+00  9.000E+00
      21     1     1     2   502   511 -1.219576969E+01 -6.592052984E+01 -6.269587879E+02  6.305327706E+02  0.000000000E+00  0.00000E+00  9.000E+00
#rwgt            1           1   3.5467951402698691E-002           7      164955           0
</event>
<event>
      5   9999  3.19816E-02  1.78172E+02 -1.00000E+00  1.13506E-01
      21    -1     0     0   512   501  0.000000000E+00  0.000000000E+00  1.426331924E+02  1.426331924E+02  0.000000000E+00  0.00000E+00  9.000E+00
      21    -1     0     0   501   502  0.000000000E+00  0.000000000E+00 -1.126537171E+03  1.126537171E+03  0.000000000E+00  0.00000E+00  9.000E+00
      25     1     1     2     0     0  1.426594787E+02  8.038365086E+01 -2.834252613E+01  2.079460434E+02  1.250000000E+02  0.00000E+00  9.000E+00
      25     1     1     2     0     0 -1.442956976E+02  9.778058275E+01 -7.878858502E+02  8.165607165E+02  1.250000000E+02  0.00000E+00  9.000E+00
      21     1     1     2   512   502  1.636218949E+00 -1.781642336E+02 -1.676756024E+02  2.446636037E+02  0.000000000E+00  0.00000E+00  9.000E+00
#rwgt            1           1   2.9873196319254770E-002           7      165007           0
</event>
<event>
      5   9999  3.19816E-02  4.86211E+01 -1.00000E+00  1.39772E-01
      21    -1     0     0   511   501  0.000000000E+00  0.000000000E+00  4.903532420E+01  4.903532420E+01  0.000000000E+00  0.00000E+00  9.000E+00
      21    -1     0     0   501   502  0.000000000E+00  0.000000000E+00 -3.053223059E+03  3.053223059E+03  0.000000000E+00  0.00000E+00  9.000E+00
      25     1     1     2     0     0 -3.983727055E+01 -6.705600409E+01 -2.710669807E+03  2.714671125E+03  1.250000000E+02  0.00000E+00  9.000E+00
      25     1     1     2     0     0  8.665269891E+01  5.392862950E+01 -2.978666185E+02  3.387720616E+02  1.250000000E+02  0.00000E+00  9.000E+00
      21     1     1     2   511   502 -4.681542836E+01  1.312737459E+01  4.348690566E+00  4.881519647E+01  2.851694516E-06  0.00000E+00  9.000E+00
#rwgt            1           1   2.7051462697702925E-002           7      165037           0
</event>
<event>
      5   9999  3.19816E-02  1.22375E+02 -1.00000E+00  1.20008E-01
       5    -1     0     0   502     0  0.000000000E+00  0.000000000E+00  8.258768326E+02  8.258768326E+02  0.000000000E+00  0.00000E+00  9.000E+00
      21    -1     0     0   501   502  0.000000000E+00  0.000000000E+00 -2.470546265E+02  2.470546265E+02  0.000000000E+00  0.00000E+00  9.000E+00
      25     1     1     2     0     0  3.129575356E+01 -3.014239276E+02 -5.324292753E+01  3.321078404E+02  1.250000000E+02  0.00000E+00  9.000E+00
      25     1     1     2     0     0 -8.850042895E+01  1.932422543E+02  5.172663268E+02  5.730308436E+02  1.250000000E+02  0.00000E+00  9.000E+00
       5     1     1     2   501     0  5.720467540E+01  1.081816733E+02  1.147988068E+02  1.677927751E+02  2.697398305E-06  0.00000E+00  9.000E+00
#rwgt            1           1   2.9677067225044512E-002           7      165127           0
</event>
<event>
      5   9999  3.19816E-02  1.31177E+02 -1.00000E+00  1.18749E-01
      21    -1     0     0   502   501  0.000000000E+00  0.000000000E+00  3.668666168E+02  3.668666168E+02  0.000000000E+00  0.00000E+00  9.000E+00
      21    -1     0     0   511   502  0.000000000E+00  0.000000000E+00 -3.797239458E+02  3.797239458E+02  0.000000000E+00  0.00000E+00  9.000E+00
      25     1     1     2     0     0  2.556473566E+01  1.964784413E+01  2.943713707E+02  3.214328816E+02  1.250000000E+02  0.00000E+00  9.000E+00
      25     1     1     2     0     0  4.677418041E+01  8.978044843E+01 -1.452843680E+02  2.167507796E+02  1.250000000E+02  0.00000E+00  9.000E+00
      21     1     1     2   511   501 -7.233891607E+01 -1.094282926E+02 -1.619443316E+02  2.084069014E+02  2.697398305E-06  0.00000E+00  9.000E+00
#rwgt            1           1   2.5941176706785397E-002           7      165225           0
</event>
<event>
      5   9999  3.19816E-02  2.51285E+02 -1.00000E+00  1.08154E-01
      21    -1     0     0   502   501  0.000000000E+00  0.000000000E+00  3.292719230E+01  3.292719230E+01  0.000000000E+00  0.00000E+00  9.000E+00
       2    -1     0     0   501     0  0.000000000E+00  0.000000000E+00 -3.521301772E+03  3.521301772E+03  0.000000000E+00  0.00000E+00  9.000E+00
      25     1     1     2     0     0 -1.711849569E+02 -1.525482085E+02 -1.502546070E+03  1.525072109E+03  1.250000000E+02  0.00000E+00  9.000E+00
      25     1     1     2     0     0  5.797628302E+01 -7.179081096E+01 -5.508400061E+02  5.723328422E+02  1.250000000E+02  0.00000E+00  9.000E+00
       2     1     1     2   502     0  1.132086738E+02  2.243390195E+02 -1.434988504E+03  1.456824014E+03  2.157918644E-05  0.00000E+00  9.000E+00
#rwgt            1           1   8.8599756901578355E-002           7      165263           0
</event>
<event>
      5   9999  3.19816E-02  6.77503E+01 -1.00000E+00  1.31943E-01
      21    -1     0     0   502   501  0.000000000E+00  0.000000000E+00  4.821131116E+02  4.821131116E+02  0.000000000E+00  0.00000E+00  9.000E+00
      21    -1     0     0   511   502  0.000000000E+00  0.000000000E+00 -1.262535886E+03  1.262535886E+03  0.000000000E+00  0.00000E+00  9.000E+00
      25     1     1     2     0     0  7.085962614E+02  4.667695206E+01 -1.193587818E+02  7.308617641E+02  1.250000000E+02  0.00000E+00  9.000E+00
      25     1     1     2     0     0 -6.588445631E+02 -6.891917438E-01 -4.922112991E+02  8.318495033E+02  1.250000000E+02  0.00000E+00  9.000E+00
      21     1     1     2   511   501 -4.975169830E+01 -4.598776032E+01 -1.688526940E+02  1.819377307E+02  2.697398305E-06  0.00000E+00  9.000E+00
#rwgt            1           1   3.3261751242549056E-002           7      165360           0
</event>
<event>
      5   9999  3.19816E-02  2.69868E+02 -1.00000E+00  1.07108E-01
      21    -1     0     0   502   512  0.000000000E+00  0.000000000E+00  5.402803417E+02  5.402803417E+02  0.000000000E+00  0.00000E+00  9.000E+00
      21    -1     0     0   501   502  0.000000000E+00  0.000000000E+00 -4.695168959E+02  4.695168959E+02  0.000000000E+00  0.00000E+00  9.000E+00
      25     1     1     2     0     0  2.717941043E+02  2.556510844E+02 -1.424437039E+02  4.185029521E+02  1.250000000E+02  0.00000E+00  9.000E+00
      25     1     1     2     0     0 -2.338541539E+02  1.153620766E+01  1.769691324E+02  3.190045818E+02  1.250000000E+02  0.00000E+00  9.000E+00
      21     1     1     2   501   512 -3.793995044E+01 -2.671872921E+02  3.623801724E+01  2.722897038E+02  1.168007728E-06  0.00000E+00  9.000E+00
#rwgt            2          11   3.5907787041889825E-003           7      165831           0
</event>
<event>
      5   9999  3.19816E-02  1.26149E+02 -1.00000E+00  1.19454E-01
      21    -1     0     0   502   511  0.000000000E+00  0.000000000E+00  3.508895819E+02  3.508895819E+02  0.000000000E+00  0.00000E+00  9.000E+00
      21    -1     0     0   501   502  0.000000000E+00  0.000000000E+00 -5.235205802E+02  5.235205802E+02  0.000000000E+00  0.00000E+00  9.000E+00
      25     1     1     2     0     0  1.319375063E+02  2.846350301E+02 -1.296870232E+02  3.617572804E+02  1.250000000E+02  0.00000E+00  9.000E+00
      25     1     1     2     0     0 -1.787163947E+02 -1.674801510E+02 -1.782210915E+02  3.276841592E+02  1.250000000E+02  0.00000E+00  9.000E+00
      21     1     1     2   501   511  4.677888847E+01 -1.171548791E+02  1.352771164E+02  1.849687226E+02  1.907348633E-06  0.00000E+00  9.000E+00
#rwgt            1           1   2.8316317859100666E-002           7      165851           0
</event>
<event>
      5   9999  3.19816E-02  1.37879E+02 -1.00000E+00  1.17863E-01
      -3    -1     0     0     0   501  0.000000000E+00  0.000000000E+00  8.751624054E+02  8.751624054E+02  0.000000000E+00  0.00000E+00  9.000E+00
      21    -1     0     0   501   502  0.000000000E+00  0.000000000E+00 -1.839437302E+02  1.839437302E+02  0.000000000E+00  0.00000E+00  9.000E+00
      25     1     1     2     0     0 -6.135603940E+01  2.167564034E+02  3.089160474E+02  4.022462260E+02  1.250000000E+02  0.00000E+00  9.000E+00
      25     1     1     2     0     0  1.150440440E+02 -3.437534179E+02  3.404472840E+02  5.127678788E+02  1.250000000E+02  0.00000E+00  9.000E+00
      -3     1     1     2     0   502 -5.368800459E+01  1.269970145E+02  4.185534372E+01  1.440920308E+02  2.185142372E-06  0.00000E+00  9.000E+00
#rwgt            2           3   1.0048675270439416E-005           7      166113           0
</event>
<event>
      5   9999  3.19816E-02  1.25662E+01 -1.00000E+00  1.84947E-01
      21    -1     0     0   502   501  0.000000000E+00  0.000000000E+00  7.956805889E+01  7.956805889E+01  0.000000000E+00  0.00000E+00  9.000E+00
      21    -1     0     0   501   511  0.000000000E+00  0.000000000E+00 -8.848972764E+02  8.848972764E+02  0.000000000E+00  0.00000E+00  9.000E+00
      25     1     1     2     0     0 -1.251807724E+02 -1.622254159E+02 -2.807180263E+02  3.693439070E+02  1.250000000E+02  0.00000E+00  9.000E+00
      25     1     1     2     0     0  1.189144463E+02  1.513331273E+02 -3.407178506E+02  4.107992389E+02  1.250000000E+02  0.00000E+00  9.000E+00
      21     1     1     2   502   511  6.266326159E+00  1.089228861E+01 -1.838933406E+02  1.843221894E+02  0.000000000E+00  0.00000E+00  9.000E+00
#rwgt            1           1   3.7423319683122819E-002           7      166132           0
</event>
<event>
      5   9999  3.19816E-02  2.65135E+01 -1.00000E+00  1.56862E-01
      21    -1     0     0   512   501  0.000000000E+00  0.000000000E+00  1.936898632E+02  1.936898632E+02  0.000000000E+00  0.00000E+00  9.000E+00
      21    -1     0     0   501   502  0.000000000E+00  0.000000000E+00 -1.667145066E+03  1.667145066E+03  0.000000000E+00  0.00000E+00  9.000E+00
      25     1     1     2     0     0  1.138558140E+02 -1.567591122E+02 -7.332924980E+02  7.686868370E+02  1.250000000E+02  0.00000E+00  9.000E+00
      25     1     1     2     0     0 -1.368733510E+02  1.699180375E+02 -8.977726952E+02  9.323235844E+02  1.250000000E+02  0.00000E+00  9.000E+00
      21     1     1     2   512   502  2.301753698E+01 -1.315892533E+01  1.576099903E+02  1.598245080E+02  4.672030912E-06  0.00000E+00  9.000E+00
#rwgt            1           1   2.7843875556590025E-002           7      166278           0
</event>
<event>
      5   9999  3.19816E-02  1.40809E+01 -1.00000E+00  1.80010E-01
      21    -1     0     0   502   501  0.000000000E+00  0.000000000E+00  1.106495890E+02  1.106495890E+02  0.000000000E+00  0.00000E+00  9.000E+00
      21    -1     0     0   501   511  0.000000000E+00  0.000000000E+00 -2.313041734E+02  2.313041734E+02  0.000000000E+00  0.00000E+00  9.000E+00
      25     1     1     2     0     0  2.214483901E+00 -6.416924318E+01 -1.165107769E+02  1.825441230E+02  1.250000000E+02  0.00000E+00  9.000E+00
      25     1     1     2     0     0 -1.627990416E+01  6.482932045E+01  6.282980104E+00  1.418885193E+02  1.250000000E+02  0.00000E+00  9.000E+00
      21     1     1     2   502   511  1.406542025E+01 -6.600772635E-01 -1.042678763E+01  1.752112009E+01  2.920019320E-07  0.00000E+00  9.000E+00
#rwgt            1           1   5.2870473951232864E-002           7      166417           0
</event>
<event>
      5   9999  3.19816E-02  4.00723E+01 -1.00000E+00  1.44792E-01
      21    -1     0     0   502   501  0.000000000E+00  0.000000000E+00  1.105264118E+02  1.105264118E+02  0.000000000E+00  0.00000E+00  9.000E+00
       2    -1     0     0   501     0  0.000000000E+00  0.000000000E+00 -1.789738423E+03  1.789738423E+03  0.000000000E+00  0.00000E+00  9.000E+00
      25     1     1     2     0     0 -2.342484354E+02 -4.975814198E+00 -2.072253712E+02  3.368448347E+02  1.250000000E+02  0.00000E+00  9.000E+00
      25     1     1     2     0     0  1.942253595E+02  6.961899539E+00 -2.487214343E+02  3.394986159E+02  1.250000000E+02  0.00000E+00  9.000E+00
       2     1     1     2   502     0  4.002307589E+01 -1.986085341E+00 -1.223265206E+03  1.223921384E+03  2.157918644E-05  0.00000E+00  9.000E+00
#rwgt            1           1   2.4154913551380303E-002           7      166531           0
</event>
<event>
      5   9999  3.19816E-02  8.32233E+01 -1.00000E+00  1.27525E-01
      21    -1     0     0   502   501  0.000000000E+00  0.000000000E+00  2.180589771E+02  2.180589771E+02  0.000000000E+00  0.00000E+00  9.000E+00
      21    -1     0     0   501   511  0.000000000E+00  0.000000000E+00 -9.875485394E+02  9.875485394E+02  0.000000000E+00  0.00000E+00  9.000E+00
      25     1     1     2     0     0  6.847305728E+01  5.589359409E+01 -8.109771659E+02  8.253009251E+02  1.250000000E+02  0.00000E+00  9.000E+00
      25     1     1     2     0     0 -8.791532925E+01  2.502685699E+01  1.682495721E+02  2.286664978E+02  1.250000000E+02  0.00000E+00  9.000E+00
      21     1     1     2   502   511  1.944227198E+01 -8.092045107E+01 -1.267619685E+02  1.516400937E+02  2.336015456E-06  0.00000E+00  9.000E+00
#rwgt            1           1   1.8375353205820802E-002           7      166635           0
</event>
<event>
      5   9999  3.19816E-02  2.42704E+01 -1.00000E+00  1.59720E-01
      21    -1     0     0   512   501  0.000000000E+00  0.000000000E+00  5.132728618E+02  5.132728618E+02  0.000000000E+00  0.00000E+00  9.000E+00
      21    -1     0     0   501   502  0.000000000E+00  0.000000000E+00 -3.561865332E+02  3.561865332E+02  0.000000000E+00  0.00000E+00  9.000E+00
      25     1     1     2     0     0 -2.799112550E+01 -1.841299574E+02 -1.087895639E+02  2.492940303E+02  1.250000000E+02  0.00000E+00  9.000E+00
      25     1     1     2     0     0  4.967876526E+01  1.732349928E+02 -1.087141172E+02  2.447899134E+02  1.250000000E+02  0.00000E+00  9.000E+00
      21     1     1     2   512   502 -2.168763977E+01  1.089496461E+01  3.745900098E+02  3.753754513E+02  0.000000000E+00  0.00000E+00  9.000E+00
#rwgt            1           1   2.6682092083094695E-002           7      166727           0
</event>
<event>
      5   9999  3.19816E-02  3.50164E+01 -1.00000E+00  1.48518E-01
      21    -1     0     0   502   511  0.000000000E+00  0.000000000E+00  1.130440880E+03  1.130440880E+03  0.000000000E+00  0.00000E+00  9.000E+00
      21    -1     0     0   501   502  0.000000000E+00  0.000000000E+00 -2.619436914E+02  2.619436914E+02  0.000000000E+00  0.00000E+00  9.000E+00
      25     1     1     2     0     0  1.143470068E+02  3.925606555E+02  5.704976934E+02  7.129317810E+02  1.250000000E+02  0.00000E+00  9.000E+00
      25     1     1     2     0     0 -1.376272123E+02 -3.664037757E+02  3.305259597E+01  4.122019536E+02  1.250000000E+02  0.00000E+00  9.000E+00
      21     1     1     2   501   511  2.328020557E+01 -2.615687978E+01  2.649468993E+02  2.672508368E+02  0.000000000E+00  0.00000E+00  9.000E+00
#rwgt            1           1   3.0977976393491261E-002           7      166862           0
</event>
<event>
      5   9999  3.19816E-02  3.73672E+01 -1.00000E+00  1.46698E-01
      21    -1     0     0   502   512  0.000000000E+00  0.000000000E+00  2.696232566E+02  2.696232566E+02  0.000000000E+00  0.00000E+00  9.000E+00
      21    -1     0     0   501   502  0.000000000E+00  0.000000000E+00 -2.092873124E+03  2.092873124E+03  0.000000000E+00  0.00000E+00  9.000E+00
      25     1     1     2     0     0  5.967762216E+01 -2.759820821E+02 -2.734582107E+02  4.124705095E+02  1.250000000E+02  0.00000E+00  9.000E+00
      25     1     1     2     0     0 -5.628390797E+01  2.387692768E+02 -1.737223404E+03  1.758905569E+03  1.250000000E+02  0.00000E+00  9.000E+00
      21     1     1     2   501   512 -3.393714188E+00  3.721280529E+01  1.874317470E+02  1.911203023E+02  5.394796609E-06  0.00000E+00  9.000E+00
#rwgt            1           1   2.9961007135382866E-002           7      167049           0
</event>
<event>
      5   9999  3.19816E-02  1.24307E+02 -1.00000E+00  1.19722E-01
       3    -1     0     0   502     0  0.000000000E+00  0.000000000E+00  4.167132412E+03  4.167132412E+03  0.000000000E+00  0.00000E+00  9.000E+00
      21    -1     0     0   501   502  0.000000000E+00  0.000000000E+00 -9.084542889E+02  9.084542889E+02  0.000000000E+00  0.00000E+00  9.000E+00
      25     1     1     2     0     0  3.414607094E+02 -1.310933243E+03 -8.808913059E+01  1.363277697E+03  1.250000000E+02  0.00000E+00  9.000E+00
      25     1     1     2     0     0 -4.598711212E+02  1.348765955E+03  2.718806521E+03  3.072162910E+03  1.250000000E+02  0.00000E+00  9.000E+00
       3     1     1     2   501     0  1.184104118E+02 -3.783271147E+01  6.279607324E+02  6.401460936E+02  1.321449896E-05  0.00000E+00  9.000E+00
#rwgt            2          19   6.8149272389533158E-005           7      167133           0
</event>
<event>
      5   9999  3.19816E-02  3.71857E+01 -1.00000E+00  1.46833E-01
      21    -1     0     0   511   501  0.000000000E+00  0.000000000E+00  5.980746236E+02  5.980746236E+02  0.000000000E+00  0.00000E+00  9.000E+00
      21    -1     0     0   501   502  0.000000000E+00  0.000000000E+00 -2.533357767E+02  2.533357767E+02  0.000000000E+00  0.00000E+00  9.000E+00
      25     1     1     2     0     0  2.592353299E+02  2.588741393E+01  3.018169206E+02  4.178415585E+02  1.250000000E+02  0.00000E+00  9.000E+00
      25     1     1     2     0     0 -2.472190158E+02 -6.107807552E+01 -8.836169433E+01  2.971204505E+02  1.250000000E+02  0.00000E+00  9.000E+00
      21     1     1     2   511   502 -1.201631416E+01  3.519066159E+01  1.312836206E+02  1.364483913E+02  0.000000000E+00  0.00000E+00  9.000E+00
#rwgt            1           1   2.8263297195397902E-002           7      167152           0
</event>
<event>
      5   9999  3.19816E-02  1.08545E+01 -1.00000E+00  1.91729E-01
      21    -1     0     0   502   512  0.000000000E+00  0.000000000E+00  2.774741811E+02  2.774741811E+02  0.000000000E+00  0.00000E+00  9.000E+00
      21    -1     0     0   501   502  0.000000000E+00  0.000000000E+00 -3.736102393E+02  3.736102393E+02  0.000000000E+00  0.00000E+00  9.000E+00
      25     1     1     2     0     0 -2.172296796E+02 -8.096248562E+01 -2.182308091E+02  3.420428976E+02  1.250000000E+02  0.00000E+00  9.000E+00
      25     1     1     2     0     0  2.270397483E+02  8.560822724E+01  1.158284068E+02  2.965080702E+02  1.250000000E+02  0.00000E+00  9.000E+00
      21     1     1     2   501   512 -9.810068713E+00 -4.645741626E+00  6.266344098E+00  1.253345251E+01  1.192092896E-07  0.00000E+00  9.000E+00
#rwgt            1           1   2.9704012588316238E-002           7      167330           0
</event>
<event>
      5   9999  3.19816E-02  4.29060E+01 -1.00000E+00  1.42976E-01
      21    -1     0     0   502   511  0.000000000E+00  0.000000000E+00  1.728614478E+03  1.728614478E+03  0.000000000E+00  0.00000E+00  9.000E+00
      21    -1     0     0   501   502  0.000000000E+00  0.000000000E+00 -3.728530493E+02  3.728530493E+02  0.000000000E+00  0.00000E+00  9.000E+00
      25     1     1     2     0     0 -1.749913068E+02  2.885273627E+02  1.199162414E+03  1.251992609E+03  1.250000000E+02  0.00000E+00  9.000E+00
      25     1     1     2     0     0  1.939995614E+02 -3.269930932E+02 -2.292562150E+02  4.612415039E+02  1.250000000E+02  0.00000E+00  9.000E+00
      21     1     1     2   501   511 -1.900825467E+01  3.846573051E+01  3.858552295E+02  3.882334147E+02  7.629394531E-06  0.00000E+00  9.000E+00
#rwgt            1           1   3.0655609321841481E-002           7      167591           0
</event>
<event>
      5   9999  3.19816E-02  1.49813E+01 -1.00000E+00  1.77435E-01
      21    -1     0     0   502   501  0.000000000E+00  0.000000000E+00  6.127883197E+01  6.127883197E+01  0.000000000E+00  0.00000E+00  9.000E+00
      21    -1     0     0   501   512  0.000000000E+00  0.000000000E+00 -6.232280559E+02  6.232280559E+02  0.000000000E+00  0.00000E+00  9.000E+00
      25     1     1     2     0     0 -8.586498571E+01  8.505644402E+01 -2.841866817E+02  3.331583175E+02  1.250000000E+02  0.00000E+00  9.000E+00
      25     1     1     2     0     0  8.629185309E+01 -1.000316578E+02 -1.926866635E+02  2.649637084E+02  1.250000000E+02  0.00000E+00  9.000E+00
      21     1     1     2   502   512 -4.268673816E-01  1.497521379E+01 -8.507587868E+01  8.638486197E+01  9.536743164E-07  0.00000E+00  9.000E+00
#rwgt            1           1   1.6530932560650573E-002           7      167787           0
</event>
<event>
      5   9999  3.19816E-02  9.69095E+01 -1.00000E+00  1.24444E-01
       2    -1     0     0   502     0  0.000000000E+00  0.000000000E+00  1.029643468E+03  1.029643468E+03  0.000000000E+00  0.00000E+00  9.000E+00
      21    -1     0     0   501   502  0.000000000E+00  0.000000000E+00 -1.375147701E+02  1.375147701E+02  0.000000000E+00  0.00000E+00  9.000E+00
      25     1     1     2     0     0 -6.121019772E+01 -3.350697540E+01  1.861830370E+02  2.348585297E+02  1.250000000E+02  0.00000E+00  9.000E+00
      25     1     1     2     0     0  2.181096885E+01 -5.503204259E+01 -6.673404050E+01  1.535665206E+02  1.250000000E+02  0.00000E+00  9.000E+00
       2     1     1     2   501     0  3.939922887E+01  8.853901799E+01  7.726797013E+02  7.787331878E+02  1.525878906E-05  0.00000E+00  9.000E+00
#rwgt            1           1   2.6572026658984067E-002           7      167930           0
</event>
<event>
      5   9999  3.19816E-02  2.20693E+01 -1.00000E+00  1.62917E-01
      21    -1     0     0   502   511  0.000000000E+00  0.000000000E+00  6.911386815E+02  6.911386815E+02  0.000000000E+00  0.00000E+00  9.000E+00
      21    -1     0     0   501   502  0.000000000E+00  0.000000000E+00 -2.516675447E+02  2.516675447E+02  0.000000000E+00  0.00000E+00  9.000E+00
      25     1     1     2     0     0 -1.715633055E+02  1.971082631E+02  5.361922139E+02  6.094363998E+02  1.250000000E+02  0.00000E+00  9.000E+00
      25     1     1     2     0     0  1.658551792E+02 -1.757899631E+02 -1.233808944E+02  2.987606010E+02  1.250000000E+02  0.00000E+00  9.000E+00
      21     1     1     2   501   511  5.708126253E+00 -2.131829999E+01  2.665981734E+01  3.460922536E+01  3.371747881E-07  0.00000E+00  9.000E+00
#rwgt            1           1   2.8557953707856239E-002           7      167997           0
</event>
<event>
      5   9999  3.19816E-02  1.20430E+02 -1.00000E+00  1.20302E-01
      21    -1     0     0   502   501  0.000000000E+00  0.000000000E+00  5.840541400E+02  5.840541400E+02  0.000000000E+00  0.00000E+00  9.000E+00
      21    -1     0     0   512   502  0.000000000E+00  0.000000000E+00 -5.906611386E+02  5.906611386E+02  0.000000000E+00  0.00000E+00  9.000E+00
      25     1     1     2     0     0 -4.632618048E+02  4.505942105E+00  1.639804274E+02  5.070960303E+02  1.250000000E+02  0.00000E+00  9.000E+00
      25     1     1     2     0     0  4.680029323E+02 -1.248421499E+02 -5.947251489E+01  5.037601484E+02  1.250000000E+02  0.00000E+00  9.000E+00
      21     1     1     2   512   501 -4.741127478E+00  1.203362077E+02 -1.111149111E+02  1.638591000E+02  2.336015456E-06  0.00000E+00  9.000E+00
#rwgt            1           1   3.2455849603915662E-002           7      168222           0
</event>
<event>
      5   9999  3.19816E-02  1.10787E+02 -1.00000E+00  1.21860E-01
      21    -1     0     0   502   501  0.000000000E+00  0.000000000E+00  4.711871080E+01  4.711871080E+01  0.000000000E+00  0.00000E+00  9.000E+00
      21    -1     0     0   511   502  0.000000000E+00  0.000000000E+00 -2.645513645E+03  2.645513645E+03  0.000000000E+00  0.00000E+00  9.000E+00
      25     1     1     2     0     0  1.253134627E+02 -2.392983751E+02 -9.566947926E+02  1.001926695E+03  1.250000000E+02  0.00000E+00  9.000E+00
      25     1     1     2     0     0 -1.709696925E+02  1.383567016E+02 -7.361860805E+02  7.784395659E+02  1.250000000E+02  0.00000E+00  9.000E+00
      21     1     1     2   511   501  4.565622982E+01  1.009416736E+02 -9.055140611E+02  9.122660947E+02  1.525878906E-05  0.00000E+00  9.000E+00
#rwgt            1           1   2.8113963578308299E-002           7      168294           0
</event>
<event>
      5   9999  3.19816E-02  6.31656E+01 -1.00000E+00  1.33521E-01
      21    -1     0     0   502   512  0.000000000E+00  0.000000000E+00  2.746402337E+03  2.746402337E+03  0.000000000E+00  0.00000E+00  9.000E+00
      21    -1     0     0   501   502  0.000000000E+00  0.000000000E+00 -1.233488776E+03  1.233488776E+03  0.000000000E+00  0.00000E+00  9.000E+00
      25     1     1     2     0     0  4.950021418E+02 -1.167739366E+03 -1.973177103E+02  1.289651746E+03  1.250000000E+02  0.00000E+00  9.000E+00
      25     1     1     2     0     0 -4.534122450E+02  1.215280665E+03  3.784479802E+02  1.356958965E+03  1.250000000E+02  0.00000E+00  9.000E+00
      21     1     1     2   501   512 -4.158989675E+01 -4.754129894E+01  1.331783291E+03  1.333280402E+03  1.525878906E-05  0.00000E+00  9.000E+00
#rwgt            1           1   5.5771346740842151E-002           7      168349           0
</event>
<event>
      5   9999  3.19816E-02  7.35710E+01 -1.00000E+00  1.30136E-01
       2    -1     0     0   502     0  0.000000000E+00  0.000000000E+00  2.053947045E+03  2.053947045E+03  0.000000000E+00  0.00000E+00  9.000E+00
      21    -1     0     0   501   502  0.000000000E+00  0.000000000E+00 -1.967989900E+02  1.967989900E+02  0.000000000E+00  0.00000E+00  9.000E+00
      25     1     1     2     0     0  2.812689700E+01 -2.218586301E+02 -8.626413712E+01  2.703310479E+02  1.250000000E+02  0.00000E+00  9.000E+00
      25     1     1     2     0     0 -9.966054654E+01  2.390526425E+02  1.227750657E+03  1.260981787E+03  1.250000000E+02  0.00000E+00  9.000E+00
       2     1     1     2   501     0  7.153364954E+01 -1.719401242E+01  7.156615346E+02  7.194331999E+02  1.078959322E-05  0.00000E+00  9.000E+00
#rwgt            1           1   2.9216017310202631E-002           7      168497           0
</event>
<event>
      5   9999  3.19816E-02  5.12098E+01 -1.00000E+00  1.38486E-01
      21    -1     0     0   502   501  0.000000000E+00  0.000000000E+00  9.260928082E+02  9.260928082E+02  0.000000000E+00  0.00000E+00  9.000E+00
      21    -1     0     0   501   511  0.000000000E+00  0.000000000E+00 -1.290912983E+02  1.290912983E+02  0.000000000E+00  0.00000E+00  9.000E+00
      25     1     1     2     0     0  1.149043312E+02 -1.510351411E+02  3.167459907E+01  2.294404049E+02  1.250000000E+02  0.00000E+00  9.000E+00
      25     1     1     2     0     0 -1.369491555E+02  1.048132140E+02  7.371281116E+02  7.672833466E+02  1.250000000E+02  0.00000E+00  9.000E+00
      21     1     1     2   502   511  2.204482432E+01  4.622192718E+01  2.819879922E+01  5.846035502E+01  4.768371582E-07  0.00000E+00  9.000E+00
#rwgt            1           1   2.6931723007203437E-002           7      168602           0
</event>
<event>
      5   9999  3.19816E-02  1.45275E+01 -1.00000E+00  1.78703E-01
      21    -1     0     0   502   501  0.000000000E+00  0.000000000E+00  2.430092711E+02  2.430092711E+02  0.000000000E+00  0.00000E+00  9.000E+00
      21    -1     0     0   501   512  0.000000000E+00  0.000000000E+00 -4.401300957E+02  4.401300957E+02  0.000000000E+00  0.00000E+00  9.000E+00
      25     1     1     2     0     0 -1.416608241E+02  1.551803833E+02  8.025772494E+01  2.573228378E+02  1.250000000E+02  0.00000E+00  9.000E+00
      25     1     1     2     0     0  1.426255507E+02 -1.406849522E+02 -1.147479652E+02  2.625383762E+02  1.250000000E+02  0.00000E+00  9.000E+00
      21     1     1     2   502   512 -9.647265503E-01 -1.449543111E+01 -1.626305843E+02  1.632781528E+02  0.000000000E+00  0.00000E+00  9.000E+00
#rwgt            1           1   2.6891672561296678E-002           7      168714           0
</event>
<event>
      5   9999  3.19816E-02  1.15567E+02 -1.00000E+00  1.21066E-01
       2    -1     0     0   502     0  0.000000000E+00  0.000000000E+00  1.043621612E+03  1.043621612E+03  0.000000000E+00  0.00000E+00  9.000E+00
      21    -1     0     0   501   502  0.000000000E+00  0.000000000E+00 -2.765824491E+02  2.765824491E+02  0.000000000E+00  0.00000E+00  9.000E+00
      25     1     1     2     0     0  1.427118011E+02 -1.358944741E+02 -1.200790811E+02  2.624460935E+02  1.250000000E+02  0.00000E+00  9.000E+00
      25     1     1     2     0     0 -1.217889232E+02  2.223705421E+01  1.341274069E+01  1.764424269E+02  1.250000000E+02  0.00000E+00  9.000E+00
       2     1     1     2   501     0 -2.092287796E+01  1.136574199E+02  8.737055036E+02  8.813155411E+02  1.525878906E-05  0.00000E+00  9.000E+00
#rwgt            1           1   2.5967909328456575E-002           7      168833           0
</event>
<event>
      5   9999  3.19816E-02  1.21500E+02 -1.00000E+00  1.20140E-01
      21    -1     0     0   502   501  0.000000000E+00  0.000000000E+00  5.014393180E+02  5.014393180E+02  0.000000000E+00  0.00000E+00  9.000E+00
      21    -1     0     0   501   511  0.000000000E+00  0.000000000E+00 -3.463496427E+02  3.463496427E+02  0.000000000E+00  0.00000E+00  9.000E+00
      25     1     1     2     0     0  3.646744220E+02 -6.497242942E+01  1.662529160E+02  4.248221777E+02  1.250000000E+02  0.00000E+00  9.000E+00
      25     1     1     2     0     0 -2.481630780E+02  3.051554441E+01  5.458719344E+01  2.848172632E+02  1.250000000E+02  0.00000E+00  9.000E+00
      21     1     1     2   502   511 -1.165113440E+02  3.445688501E+01 -6.575043415E+01  1.381495197E+02  2.132480600E-06  0.00000E+00  9.000E+00
#rwgt            1           1   2.6944462022305420E-002           7      168892           0
</event>
<event>
      5   9999  3.19816E-02  1.17344E+02 -1.00000E+00  1.20782E-01
      21    -1     0     0   502   501  0.000000000E+00  0.000000000E+00  4.158621098E+02  4.158621098E+02  0.000000000E+00  0.00000E+00  9.000E+00
      21    -1     0     0   512   502  0.000000000E+00  0.000000000E+00 -3.338095302E+02  3.338095302E+02  0.000000000E+00  0.00000E+00  9.000E+00
      25     1     1     2     0     0 -2.351355714E+02  1.231352239E+01  5.367077125E+01  2.719299752E+02  1.250000000E+02  0.00000E+00  9.000E+00
      25     1     1     2     0     0  2.951262122E+02  8.853612431E+01  9.099729476E+01  3.447370507E+02  1.250000000E+02  0.00000E+00  9.000E+00
      21     1     1     2   512   501 -5.999064089E+01 -1.008496467E+02 -6.261548632E+01  1.330046141E+02  1.168007728E-06  0.00000E+00  9.000E+00
#rwgt            1           1   3.1740802149589090E-002           7      168954           0
</event>
<event>
      5   9999  3.19816E-02  1.97513E+02 -1.00000E+00  1.11846E-01
      21    -1     0     0   502   511  0.000000000E+00  0.000000000E+00  3.452284489E+02  3.452284489E+02  0.000000000E+00  0.00000E+00  9.000E+00
      21    -1     0     0   501   502  0.000000000E+00  0.000000000E+00 -1.143913724E+03  1.143913724E+03  0.000000000E+00  0.00000E+00  9.000E+00
      25     1     1     2     0     0  2.334295977E+02  1.188177348E+01 -2.252358144E+02  3.478314616E+02  1.250000000E+02  0.00000E+00  9.000E+00
      25     1     1     2     0     0 -2.400570187E+02  1.855201126E+02 -7.856459676E+02  8.514162735E+02  1.250000000E+02  0.00000E+00  9.000E+00
      21     1     1     2   501   511  6.627421033E+00 -1.974018861E+02  2.121965071E+02  2.898944376E+02  0.000000000E+00  0.00000E+00  9.000E+00
#rwgt            1           1   2.5293338689180649E-002           7      169004           0
</event>
<event>
      5   9999  3.19816E-02  8.41197E+01 -1.00000E+00  1.27303E-01
      21    -1     0     0   502   501  0.000000000E+00  0.000000000E+00  3.821760710E+02  3.821760710E+02  0.000000000E+00  0.00000E+00  9.000E+00
      21    -1     0     0   512   502  0.000000000E+00  0.000000000E+00 -4.993704994E+02  4.993704994E+02  0.000000000E+00  0.00000E+00  9.000E+00
      25     1     1     2     0     0 -1.359391576E+02 -2.067571180E+02  3.738380149E+00  2.772488700E+02  1.250000000E+02  0.00000E+00  9.000E+00
      25     1     1     2     0     0  6.606965597E+01  2.536013002E+02  1.455950211E+02  3.248102971E+02  1.250000000E+02  0.00000E+00  9.000E+00
      21     1     1     2   512   501  6.986950164E+01 -4.684418218E+01 -2.665278297E+02  2.794874034E+02  3.814697266E-06  0.00000E+00  9.000E+00
#rwgt            1           1   2.9359450274331594E-002           7      169092           0
</event>
<event>
      5   9999  3.19816E-02  1.03178E+02 -1.00000E+00  1.23220E-01
      21    -1     0     0   502   501  0.000000000E+00  0.000000000E+00  1.466033390E+03  1.466033390E+03  0.000000000E+00  0.00000E+00  9.000E+00
      21    -1     0     0   501   511  0.000000000E+00  0.000000000E+00 -6.002432889E+02  6.002432889E+02  0.000000000E+00  0.00000E+00  9.000E+00
      25     1     1     2     0     0 -6.614817089E+02  5.683537596E+01  3.041214168E+02  7.408799817E+02  1.250000000E+02  0.00000E+00  9.000E+00
      25     1     1     2     0     0  7.449970101E+02  3.753068376E+00  7.788086724E+02  1.084989668E+03  1.250000000E+02  0.00000E+00  9.000E+00
      21     1     1     2   502   511 -8.351530125E+01 -6.058844434E+01 -2.171399885E+02  2.404070293E+02  6.031565972E-06  0.00000E+00  9.000E+00
#rwgt            1           1   2.4453270998059020E-002           7      169138           0
</event>
<event>
      5   9999  3.19816E-02  3.70124E+01 -1.00000E+00  1.46962E-01
      21    -1     0     0   502   501  0.000000000E+00  0.000000000E+00  9.452514010E+02  9.452514010E+02  0.000000000E+00  0.00000E+00  9.000E+00
      21    -1     0     0   512   502  0.000000000E+00  0.000000000E+00 -6.959753689E+01  6.959753689E+01  0.000000000E+00  0.00000E+00  9.000E+00
      25     1     1     2     0     0  4.787863733E+00  9.408720294E+01  9.495178159E+01  1.830742096E+02  1.250000000E+02  0.00000E+00  9.000E+00
      25     1     1     2     0     0 -1.139367317E+01 -5.766911049E+01  7.826161747E+02  7.947129160E+02  1.250000000E+02  0.00000E+00  9.000E+00
      21     1     1     2   512   501  6.605809440E+00 -3.641809245E+01 -1.914092162E+00  3.706181222E+01  5.434329071E-07  0.00000E+00  9.000E+00
#rwgt            1           1   2.8001931966918279E-002           7      169248           0
</event>
<event>
      5   9999  3.19816E-02  5.02845E+01 -1.00000E+00  1.38935E-01
      21    -1     0     0   502   501  0.000000000E+00  0.000000000E+00  1.216478377E+03  1.216478377E+03  0.000000000E+00  0.00000E+00  9.000E+00
      21    -1     0     0   501   511  0.000000000E+00  0.000000000E+00 -2.302478012E+02  2.302478012E+02  0.000000000E+00  0.00000E+00  9.000E+00
      25     1     1     2     0     0  1.826495050E+02 -2.367057777E+01  4.108858096E+02  4.673042761E+02  1.250000000E+02  0.00000E+00  9.000E+00
      25     1     1     2     0     0 -2.249485976E+02 -3.519873290E+00  7.524856099E+02  7.952822481E+02  1.250000000E+02  0.00000E+00  9.000E+00
      21     1     1     2   502   511  4.229909253E+01  2.719045106E+01 -1.771408435E+02  1.841396543E+02  1.907348633E-06  0.00000E+00  9.000E+00
#rwgt            1           1   2.5499405128790498E-002           7      169314           0
</event>
<event>
      5   9999  3.19816E-02  5.39838E+01 -1.00000E+00  1.37202E-01
      21    -1     0     0   502   512  0.000000000E+00  0.000000000E+00  6.608834704E+02  6.608834704E+02  0.000000000E+00  0.00000E+00  9.000E+00
      21    -1     0     0   501   502  0.000000000E+00  0.000000000E+00 -9.778210986E+02  9.778210986E+02  0.000000000E+00  0.00000E+00  9.000E+00
      25     1     1     2     0     0 -7.500590560E+02  1.190333562E+02 -3.830436400E+02  8.597121365E+02  1.250000000E+02  0.00000E+00  9.000E+00
      25     1     1     2     0     0  7.018441147E+02 -9.475225225E+01  4.351793407E+01  7.204734286E+02  1.250000000E+02  0.00000E+00  9.000E+00
      21     1     1     2   501   512  4.821494130E+01 -2.428110398E+01  2.258807777E+01  5.851900403E+01  6.307962682E-07  0.00000E+00  9.000E+00
#rwgt            1           1   3.5321904918381997E-002           7      169427           0
</event>
<event>
      5   9999  3.19816E-02  3.59894E+01 -1.00000E+00  1.47744E-01
      21    -1     0     0   511   501  0.000000000E+00  0.000000000E+00  2.062768343E+02  2.062768343E+02  0.000000000E+00  0.00000E+00  9.000E+00
      21    -1     0     0   501   502  0.000000000E+00  0.000000000E+00 -4.146791822E+02  4.146791822E+02  0.000000000E+00  0.00000E+00  9.000E+00
      25     1     1     2     0     0  2.335838002E+01  2.224842360E+02 -2.458918806E+02  3.551516100E+02  1.250000000E+02  0.00000E+00  9.000E+00
      25     1     1     2     0     0 -2.720687938E+01 -1.867011475E+02  3.956038669E+01  2.297554285E+02  1.250000000E+02  0.00000E+00  9.000E+00
      21     1     1     2   511   502  3.848499356E+00 -3.578308851E+01 -2.070853954E+00  3.604897789E+01  4.777675731E-07  0.00000E+00  9.000E+00
#rwgt            1           1   2.9563197944532757E-002           7      169598           0
</event>
<event>
      5   9999  3.19816E-02  9.86562E+01 -1.00000E+00  1.24093E-01
      21    -1     0     0   502   501  0.000000000E+00  0.000000000E+00  3.520367805E+02  3.520367805E+02  0.000000000E+00  0.00000E+00  9.000E+00
       2    -1     0     0   501     0  0.000000000E+00  0.000000000E+00 -2.074583707E+03  2.074583707E+03  0.000000000E+00  0.00000E+00  9.000E+00
      25     1     1     2     0     0 -5.407337804E+01 -5.475765504E+01  3.287141197E+02  3.600004215E+02  1.250000000E+02  0.00000E+00  9.000E+00
      25     1     1     2     0     0 -3.745001614E+01  1.792666289E+01 -7.382577816E+02  7.499156092E+02  1.250000000E+02  0.00000E+00  9.000E+00
       2     1     1     2   502     0  9.152339418E+01  3.683099216E+01 -1.313003265E+03  1.316704457E+03  0.000000000E+00  0.00000E+00  9.000E+00
#rwgt            1           1   2.8766068957569817E-002           7      169703           0
</event>
<event>
      5   9999  3.19816E-02  2.76128E+02 -1.00000E+00  1.06775E-01
      21    -1     0     0   511   501  0.000000000E+00  0.000000000E+00  3.520561464E+02  3.520561464E+02  0.000000000E+00  0.00000E+00  9.000E+00
      21    -1     0     0   501   502  0.000000000E+00  0.000000000E+00 -5.720257288E+02  5.720257288E+02  0.000000000E+00  0.00000E+00  9.000E+00
      25     1     1     2     0     0  2.006344934E+02  1.789525364E+02 -8.760481256E+01  3.091566163E+02  1.250000000E+02  0.00000E+00  9.000E+00
      25     1     1     2     0     0 -2.859622368E+02  8.366102168E+01 -9.130938512E+01  3.357617775E+02  1.250000000E+02  0.00000E+00  9.000E+00
      21     1     1     2   511   502  8.532774344E+01 -2.626135581E+02 -4.105538469E+01  2.791634814E+02  4.768371582E-06  0.00000E+00  9.000E+00
#rwgt            1           1   2.5902482373596356E-002           7      169802           0
</event>
<event>
      5   9999  3.19816E-02  6.66905E+01 -1.00000E+00  1.32295E-01
      21    -1     0     0   502   501  0.000000000E+00  0.000000000E+00  4.250348881E+02  4.250348881E+02  0.000000000E+00  0.00000E+00  9.000E+00
      21    -1     0     0   512   502  0.000000000E+00  0.000000000E+00 -6.650025313E+02  6.650025313E+02  0.000000000E+00  0.00000E+00  9.000E+00
      25     1     1     2     0     0  9.966297303E+01  3.312991016E+02 -2.986822584E+02  4.738437447E+02  1.250000000E+02  0.00000E+00  9.000E+00
      25     1     1     2     0     0 -1.654250667E+02 -3.202097693E+02  2.209089661E+02  4.408236839E+02  1.250000000E+02  0.00000E+00  9.000E+00
      21     1     1     2   512   501  6.576209362E+01 -1.108933233E+01 -1.621943508E+02  1.753699908E+02  2.697398305E-06  0.00000E+00  9.000E+00
#rwgt            1           1   3.5090572916046336E-002           7      169834           0
</event>
<event>
      5   9999  3.19816E-02  1.71223E+02 -1.00000E+00  1.14161E-01
      21    -1     0     0   502   501  0.000000000E+00  0.000000000E+00  6.620818120E+02  6.620818120E+02  0.000000000E+00  0.00000E+00  9.000E+00
       2    -1     0     0   501     0  0.000000000E+00  0.000000000E+00 -1.115811235E+03  1.115811235E+03  0.000000000E+00  0.00000E+00  9.000E+00
      25     1     1     2     0     0 -1.207145610E+02  2.150799186E+02 -4.954940320E+02  5.674246314E+02  1.250000000E+02  0.00000E+00  9.000E+00
      25     1     1     2     0     0 -4.687628871E+01 -2.501578981E+02  5.800287283E+02  6.456273586E+02  1.250000000E+02  0.00000E+00  9.000E+00
       2     1     1     2   502     0  1.675908498E+02  3.507797958E+01 -5.382641195E+02  5.648410572E+02  0.000000000E+00  0.00000E+00  9.000E+00
#rwgt            1           1   2.5112303207205741E-002           7      169975           0
</event>
<event>
      5   9999  3.19816E-02  2.51601E+02 -1.00000E+00  1.08136E-01
       4    -1     0     0   502     0  0.000000000E+00  0.000000000E+00  1.249295283E+03  1.249295283E+03  0.000000000E+00  0.00000E+00  9.000E+00
      21    -1     0     0   501   502  0.000000000E+00  0.000000000E+00 -8.553408818E+02  8.553408818E+02  0.000000000E+00  0.00000E+00  9.000E+00
      25     1     1     2     0     0  6.414346791E+01  1.996535098E+02  1.579354188E+02  2.907653779E+02  1.250000000E+02  0.00000E+00  9.000E+00
      25     1     1     2     0     0  4.778521859E+01 -4.249870580E+02 -7.082019135E+02  8.367032788E+02  1.250000000E+02  0.00000E+00  9.000E+00
       4     1     1     2   501     0 -1.119286865E+02  2.253335482E+02  9.442208953E+02  9.771675076E+02  1.078959322E-05  0.00000E+00  9.000E+00
#rwgt            2          20   5.3963281366807550E-005           7      170110           0
</event>
<event>
      5   9999  3.19816E-02  4.36736E+01 -1.00000E+00  1.42513E-01
      21    -1     0     0   502   501  0.000000000E+00  0.000000000E+00  1.023203037E+02  1.023203037E+02  0.000000000E+00  0.00000E+00  9.000E+00
      21    -1     0     0   501   511  0.000000000E+00  0.000000000E+00 -5.179799023E+02  5.179799023E+02  0.000000000E+00  0.00000E+00  9.000E+00
      25     1     1     2     0     0 -1.058412681E+02  1.377766407E+02 -1.458452418E+02  2.589992496E+02  1.250000000E+02  0.00000E+00  9.000E+00
      25     1     1     2     0     0  6.227874785E+01 -1.346642604E+02 -1.976792167E+02  2.769750497E+02  1.250000000E+02  0.00000E+00  9.000E+00
      21     1     1     2   502   511  4.356252027E+01 -3.112380318E+00 -7.213514011E+01  8.432590659E+01  9.536743164E-07  0.00000E+00  9.000E+00
#rwgt            1           1   2.5658950342339934E-002           7      170144           0
</event>
<event>
      5   9999  3.19816E-02  5.56871E+01 -1.00000E+00  1.36458E-01
      21    -1     0     0   512   501  0.000000000E+00  0.000000000E+00  4.748328563E+02  4.748328563E+02  0.000000000E+00  0.00000E+00  9.000E+00
      21    -1     0     0   501   502  0.000000000E+00  0.000000000E+00 -9.498432154E+02  9.498432154E+02  0.000000000E+00  0.00000E+00  9.000E+00
      25     1     1     2     0     0 -3.391687177E+02  3.402306181E+02 -6.029681152E+02  7.810171832E+02  1.250000000E+02  0.00000E+00  9.000E+00
      25     1     1     2     0     0  3.750360088E+02 -2.976326315E+02 -9.946567162E+00  4.949354761E+02  1.250000000E+02  0.00000E+00  9.000E+00
      21     1     1     2   512   502 -3.586729113E+01 -4.259798652E+01  1.379043233E+02  1.487234124E+02  2.697398305E-06  0.00000E+00  9.000E+00
#rwgt            1           1   2.4920242037491734E-002           7      170230           0
</event>
<event>
      5   9999  3.19816E-02  2.29877E+01 -1.00000E+00  1.61530E-01
      21    -1     0     0   502   501  0.000000000E+00  0.000000000E+00  3.138438485E+02  3.138438485E+02  0.000000000E+00  0.00000E+00  9.000E+00
      21    -1     0     0   511   502  0.000000000E+00  0.000000000E+00 -1.987849958E+02  1.987849958E+02  0.000000000E+00  0.00000E+00  9.000E+00
      25     1     1     2     0     0 -5.381735685E+01 -1.319002375E+02  1.581051808E+02  2.468121325E+02  1.250000000E+02  0.00000E+00  9.000E+00
      25     1     1     2     0     0  7.664920946E+01  1.292275954E+02  2.213808341E+01  1.966976549E+02  1.250000000E+02  0.00000E+00  9.000E+00
      21     1     1     2   511   501 -2.283185261E+01  2.672642100E+00 -6.518441158E+01  6.911905687E+01  0.000000000E+00  0.00000E+00  9.000E+00
#rwgt            1           1   2.8924035619197097E-002           7      170353           0
</event>
<event>
      5   9999  3.19816E-02  3.02252E+01 -1.00000E+00  1.52815E-01
      21    -1     0     0   502   501  0.000000000E+00  0.000000000E+00  1.790546687E+02  1.790546687E+02  0.000000000E+00  0.00000E+00  9.000E+00
      21    -1     0     0   512   502  0.000000000E+00  0.000000000E+00 -1.010360975E+03  1.010360975E+03  0.000000000E+00  0.00000E+00  9.000E+00
      25     1     1     2     0     0  2.310412788E+02  2.667206896E+02 -1.829523635E+02  4.166732126E+02  1.250000000E+02  0.00000E+00  9.000E+00
      25     1     1     2     0     0 -2.607568233E+02 -2.611934369E+02 -5.907655829E+02  7.077041093E+02  1.250000000E+02  0.00000E+00  9.000E+00
      21     1     1     2   512   501  2.971554455E+01 -5.527252700E+00 -5.758836020E+01  6.503832209E+01  0.000000000E+00  0.00000E+00  9.000E+00
#rwgt            1           1   3.3405566763292392E-002           7      170449           0
</event>
<event>
      5   9999  3.19816E-02  2.73294E+01 -1.00000E+00  1.55906E-01
      21    -1     0     0   502   501  0.000000000E+00  0.000000000E+00  2.066428004E+02  2.066428004E+02  0.000000000E+00  0.00000E+00  9.000E+00
      21    -1     0     0   511   502  0.000000000E+00  0.000000000E+00 -9.912468141E+02  9.912468141E+02  0.000000000E+00  0.00000E+00  9.000E+00
      25     1     1     2     0     0 -7.184651792E+01  3.859825856E+02 -3.768134324E+02  5.583527929E+02  1.250000000E+02  0.00000E+00  9.000E+00
      25     1     1     2     0     0  9.899785661E+01 -3.828681412E+02 -2.605818175E+02  4.898126915E+02  1.250000000E+02  0.00000E+00  9.000E+00
      21     1     1     2   511   501 -2.715133869E+01 -3.114444370E+00 -1.472087638E+02  1.497241300E+02  2.697398305E-06  0.00000E+00  9.000E+00
#rwgt            1           1   1.7415664556979914E-002           7      170615           0
</event>
<event>
      5   9999  3.19816E-02  1.19943E+03 -1.00000E+00  8.91347E-02
       2    -1     0     0   502     0  0.000000000E+00  0.000000000E+00  3.614889461E+03  3.614889461E+03  0.000000000E+00  0.00000E+00  9.000E+00
      21    -1     0     0   501   502  0.000000000E+00  0.000000000E+00 -3.623372619E+03  3.623372619E+03  0.000000000E+00  0.00000E+00  9.000E+00
      25     1     1     2     0     0 -1.704281027E+02 -4.915847042E+02  1.765612213E+02  5.634714939E+02  1.250000000E+02  0.00000E+00  9.000E+00
      25     1     1     2     0     0 -9.966789054E+02  7.681469776E+02 -3.194201940E+03  3.435399489E+03  1.250000000E+02  0.00000E+00  9.000E+00
       2     1     1     2   501     0  1.167107008E+03 -2.765622734E+02  3.009157560E+03  3.239391097E+03  0.000000000E+00  0.00000E+00  9.000E+00
#rwgt            2          18   6.6130785865451053E-004           7      170768           0
</event>
<event>
      5   9999  3.19816E-02  3.26444E+02 -1.00000E+00  1.04413E-01
      21    -1     0     0   502   501  0.000000000E+00  0.000000000E+00  1.103552754E+03  1.103552754E+03  0.000000000E+00  0.00000E+00  9.000E+00
       3    -1     0     0   501     0  0.000000000E+00  0.000000000E+00 -2.731886362E+02  2.731886362E+02  0.000000000E+00  0.00000E+00  9.000E+00
      25     1     1     2     0     0 -1.922054805E+02  2.441463918E+02  3.780631394E+02  5.050813249E+02  1.250000000E+02  0.00000E+00  9.000E+00
      25     1     1     2     0     0 -7.632698422E+01 -5.852273488E+01  5.155579394E+02  5.391434947E+02  1.250000000E+02  0.00000E+00  9.000E+00
       3     1     1     2   502     0  2.685324647E+02 -1.856236569E+02 -6.325696096E+01  3.325165706E+02  7.478898593E-06  0.00000E+00  9.000E+00
#rwgt            2          14   1.5778467722269321E-004           7      170832           0
</event>
<event>
      5   9999  3.19816E-02  2.77927E+01 -1.00000E+00  1.55381E-01
      21    -1     0     0   502   501  0.000000000E+00  0.000000000E+00  2.484878644E+02  2.484878644E+02  0.000000000E+00  0.00000E+00  9.000E+00
      21    -1     0     0   501   511  0.000000000E+00  0.000000000E+00 -1.897810257E+02  1.897810257E+02  0.000000000E+00  0.00000E+00  9.000E+00
      25     1     1     2     0     0 -2.143367505E+00  8.705168149E+01 -1.002816718E+02  1.823842180E+02  1.250000000E+02  0.00000E+00  9.000E+00
      25     1     1     2     0     0  2.891724474E+01 -9.450773595E+01  1.628273206E+02  2.278281271E+02  1.250000000E+02  0.00000E+00  9.000E+00
      21     1     1     2   502   511 -2.677387723E+01  7.456054460E+00 -3.838810033E+00  2.805654492E+01  3.650024150E-07  0.00000E+00  9.000E+00
#rwgt            1           1   2.3708943595156358E-002           7      170881           0
</event>
<event>
      5   9999  3.19816E-02  7.10170E+01 -1.00000E+00  1.30904E-01
      21    -1     0     0   502   512  0.000000000E+00  0.000000000E+00  4.379324702E+02  4.379324702E+02  0.000000000E+00  0.00000E+00  9.000E+00
      21    -1     0     0   501   502  0.000000000E+00  0.000000000E+00 -3.538886497E+02  3.538886497E+02  0.000000000E+00  0.00000E+00  9.000E+00
      25     1     1     2     0     0  1.022542948E+02  1.538981089E+02 -1.473207349E+02  2.673368056E+02  1.250000000E+02  0.00000E+00  9.000E+00
      25     1     1     2     0     0 -8.297668313E+01 -2.222485901E+02 -1.452630718E+01  2.685434403E+02  1.250000000E+02  0.00000E+00  9.000E+00
      21     1     1     2   501   512 -1.927761165E+01  6.835048123E+01  2.458908626E+02  2.559408739E+02  0.000000000E+00  0.00000E+00  9.000E+00
#rwgt            1           1   3.1380654554536799E-002           7      171030           0
</event>
<event>
      5   9999  3.19816E-02  1.98349E+02 -1.00000E+00  1.11779E-01
      21    -1     0     0   502   501  0.000000000E+00  0.000000000E+00  3.085612910E+02  3.085612910E+02  0.000000000E+00  0.00000E+00  9.000E+00
       2    -1     0     0   501     0  0.000000000E+00  0.000000000E+00 -1.840792318E+03  1.840792318E+03  0.000000000E+00  0.00000E+00  9.000E+00
      25     1     1     2     0     0 -1.400348250E+02 -7.371370469E+01  2.187732125E+02  2.975402174E+02  1.250000000E+02  0.00000E+00  9.000E+00
      25     1     1     2     0     0  2.361394697E+02 -9.979777221E+01 -4.299335571E+02  5.159353719E+02  1.250000000E+02  0.00000E+00  9.000E+00
       2     1     1     2   502     0 -9.610464469E+01  1.735114769E+02 -1.321070682E+03  1.335878020E+03  2.642899792E-05  0.00000E+00  9.000E+00
#rwgt            2          13   2.2948024531546582E-003           7      171224           0
</event>
<event>
      5   9999  3.19816E-02  1.38223E+02 -1.00000E+00  1.17819E-01
      21    -1     0     0   502   501  0.000000000E+00  0.000000000E+00  1.243683081E+02  1.243683081E+02  0.000000000E+00  0.00000E+00  9.000E+00
      21    -1     0     0   511   502  0.000000000E+00  0.000000000E+00 -5.108771569E+02  5.108771569E+02  0.000000000E+00  0.00000E+00  9.000E+00
      25     1     1     2     0     0  2.725381697E+01 -2.047984801E+01 -1.905826370E+02  2.304537616E+02  1.250000000E+02  0.00000E+00  9.000E+00
      25     1     1     2     0     0 -3.231855874E+01  1.586098707E+02 -6.550037643E+01  2.147484101E+02  1.250000000E+02  0.00000E+00  9.000E+00
      21     1     1     2   511   501  5.064741768E+00 -1.381300227E+02 -1.304258354E+02  1.900432933E+02  3.814697266E-06  0.00000E+00  9.000E+00
#rwgt            1           1   2.9538407985929965E-002           7      171243           0
</event>
<event>
      5   9999  3.19816E-02  1.72542E+02 -1.00000E+00  1.14034E-01
       2    -1     0     0   502     0  0.000000000E+00  0.000000000E+00  1.540178298E+03  1.540178298E+03  0.000000000E+00  0.00000E+00  9.000E+00
      21    -1     0     0   501   502  0.000000000E+00  0.000000000E+00 -3.419030637E+02  3.419030637E+02  0.000000000E+00  0.00000E+00  9.000E+00
      25     1     1     2     0     0 -4.777491774E+02  1.453220540E+02  7.778252864E+01  5.206130018E+02  1.250000000E+02  0.00000E+00  9.000E+00
      25     1     1     2     0     0  3.068089546E+02 -1.218689342E+02  1.634644262E+02  3.890107844E+02  1.250000000E+02  0.00000E+00  9.000E+00
       2     1     1     2   501     0  1.709402228E+02 -2.345311978E+01  9.570282792E+02  9.724575753E+02  1.078959322E-05  0.00000E+00  9.000E+00
#rwgt            1           1   2.7648198357158798E-002           7      171275           0
</event>
<event>
      5   9999  3.19816E-02  1.53938E+01 -1.00000E+00  1.76330E-01
      21    -1     0     0   502   501  0.000000000E+00  0.000000000E+00  2.981427130E+02  2.981427130E+02  0.000000000E+00  0.00000E+00  9.000E+00
      21    -1     0     0   501   511  0.000000000E+00  0.000000000E+00 -3.484124387E+02  3.484124387E+02  0.000000000E+00  0.00000E+00  9.000E+00
      25     1     1     2     0     0 -2.050916626E+01 -7.528329586E+01  2.057108303E+02  2.530417875E+02  1.250000000E+02  0.00000E+00  9.000E+00
      25     1     1     2     0     0  2.176053714E+01  5.994044294E+01 -3.300445579E+00  1.403647770E+02  1.250000000E+02  0.00000E+00  9.000E+00
      21     1     1     2   502   511 -1.251370881E+00  1.534285292E+01 -2.526801103E+02  2.531485872E+02  3.814697266E-06  0.00000E+00  9.000E+00
#rwgt            1           1   2.5686063278479158E-002           7      171324           0
</event>
<event>
      5   9999  3.19816E-02  9.80316E+01 -1.00000E+00  1.24217E-01
      21    -1     0     0   512   501  0.000000000E+00  0.000000000E+00  1.316090880E+02  1.316090880E+02  0.000000000E+00  0.00000E+00  9.000E+00
      21    -1     0     0   501   502  0.000000000E+00  0.000000000E+00 -9.107636464E+02  9.107636464E+02  0.000000000E+00  0.00000E+00  9.000E+00
      25     1     1     2     0     0  2.275685340E+02  1.186662156E+02 -1.887632417E+02  3.422362777E+02  1.250000000E+02  0.00000E+00  9.000E+00
      25     1     1     2     0     0 -1.688676181E+02 -4.015252631E+01 -5.568600743E+02  5.965288259E+02  1.250000000E+02  0.00000E+00  9.000E+00
      21     1     1     2   512   502 -5.870091584E+01 -7.851368932E+01 -3.353124248E+01  1.036076308E+02  6.743495762E-07  0.00000E+00  9.000E+00
#rwgt            1           1   3.0626153714903678E-002           7      171482           0
</event>
<event>
      5   9999  3.19816E-02  1.13808E+02 -1.00000E+00  1.21353E-01
      21    -1     0     0   502   501  0.000000000E+00  0.000000000E+00  8.789669045E+02  8.789669045E+02  0.000000000E+00  0.00000E+00  9.000E+00
      21    -1     0     0   501   511  0.000000000E+00  0.000000000E+00 -1.073389955E+02  1.073389955E+02  0.000000000E+00  0.00000E+00  9.000E+00
      25     1     1     2     0     0  1.511681547E+02 -1.983057085E+01  2.999441936E+02  3.589381309E+02  1.250000000E+02  0.00000E+00  9.000E+00
      25     1     1     2     0     0 -2.568167802E+02  6.214756213E+01  3.895226647E+02  4.870011133E+02  1.250000000E+02  0.00000E+00  9.000E+00
      21     1     1     2   502   511  1.056486255E+02 -4.231699128E+01  8.216105062E+01  1.403666558E+02  2.697398305E-06  0.00000E+00  9.000E+00
#rwgt            2          11   3.2205426743601119E-003           7      171524           0
</event>
<event>
      5   9999  3.19816E-02  1.39026E+01 -1.00000E+00  1.80549E-01
      21    -1     0     0   502   501  0.000000000E+00  0.000000000E+00  2.637901333E+02  2.637901333E+02  0.000000000E+00  0.00000E+00  9.000E+00
      21    -1     0     0   512   502  0.000000000E+00  0.000000000E+00 -1.624009646E+02  1.624009646E+02  0.000000000E+00  0.00000E+00  9.000E+00
      25     1     1     2     0     0  6.869972562E+00  1.020981646E+01  2.115393493E+02  2.460189691E+02  1.250000000E+02  0.00000E+00  9.000E+00
      25     1     1     2     0     0  2.661466565E+00 -2.033078947E+01 -1.072372792E+02  1.659676428E+02  1.250000000E+02  0.00000E+00  9.000E+00
      21     1     1     2   512   501 -9.531439127E+00  1.012097302E+01 -2.912901318E+00  1.420448594E+01  2.021291847E-07  0.00000E+00  9.000E+00
#rwgt            1           1   2.6246794590783475E-002           7      171544           0
</event>
<event>
      5   9999  3.19816E-02  7.57408E+01 -1.00000E+00  1.29510E-01
      21    -1     0     0   502   511  0.000000000E+00  0.000000000E+00  7.606223342E+02  7.606223342E+02  0.000000000E+00  0.00000E+00  9.000E+00
      21    -1     0     0   501   502  0.000000000E+00  0.000000000E+00 -1.008062671E+02  1.008062671E+02  0.000000000E+00  0.00000E+00  9.000E+00
      25     1     1     2     0     0  7.997442886E+01  1.922186164E+02  1.814610141E+02  3.031451887E+02  1.250000000E+02  0.00000E+00  9.000E+00
      25     1     1     2     0     0 -2.967457906E+01 -1.355918365E+02  2.177243534E+02  2.868703903E+02  1.250000000E+02  0.00000E+00  9.000E+00
      21     1     1     2   501   511 -5.029984979E+01 -5.662678000E+01  2.606306997E+02  2.714130224E+02  0.000000000E+00  0.00000E+00  9.000E+00
#rwgt            1           1   2.6237329977077416E-002           7      171676           0
</event>
<event>
      5   9999  3.19816E-02  3.89867E+02 -1.00000E+00  1.02022E-01
      21    -1     0     0   512   501  0.000000000E+00  0.000000000E+00  1.699229692E+03  1.699229692E+03  0.000000000E+00  0.00000E+00  9.000E+00
      21    -1     0     0   501   502  0.000000000E+00  0.000000000E+00 -2.650970140E+03  2.650970140E+03  0.000000000E+00  0.00000E+00  9.000E+00
      25     1     1     2     0     0 -1.969320464E+03 -3.499758975E+02 -6.302237845E+01  2.005069335E+03  1.250000000E+02  0.00000E+00  9.000E+00
      25     1     1     2     0     0  1.643916532E+03  5.647044051E+02 -8.865981679E+02  1.955258024E+03  1.250000000E+02  0.00000E+00  9.000E+00
      21     1     1     2   512   502  3.254039318E+02 -2.147285075E+02 -2.119901771E+00  3.898724725E+02  3.636616101E-06  0.00000E+00  9.000E+00
#rwgt            2          11   8.0723796759889690E-003           7      171769           0
</event>
<event>
      5   9999  3.19816E-02  5.23012E+01 -1.00000E+00  1.37970E-01
      21    -1     0     0   502   501  0.000000000E+00  0.000000000E+00  2.666363369E+03  2.666363369E+03  0.000000000E+00  0.00000E+00  9.000E+00
      21    -1     0     0   501   511  0.000000000E+00  0.000000000E+00 -8.022880385E+01  8.022880385E+01  0.000000000E+00  0.00000E+00  9.000E+00
      25     1     1     2     0     0  2.566683961E+02 -1.141269912E+02  2.223725324E+03  2.244879273E+03  1.250000000E+02  0.00000E+00  9.000E+00
      25     1     1     2     0     0 -2.122979978E+02  1.418160351E+02  2.534301704E+02  3.808334005E+02  1.250000000E+02  0.00000E+00  9.000E+00
      21     1     1     2   502   511 -4.437039828E+01 -2.768904393E+01  1.089790710E+02  1.208794991E+02  1.348699152E-06  0.00000E+00  9.000E+00
#rwgt            1           1   4.2276907655990119E-002           7      171819           0
</event>
<event>
      5   9999  3.19816E-02  1.37495E+02 -1.00000E+00  1.17912E-01
      21    -1     0     0   512   501  0.000000000E+00  0.000000000E+00  7.080303379E+02  7.080303379E+02  0.000000000E+00  0.00000E+00  9.000E+00
      21    -1     0     0   501   502  0.000000000E+00  0.000000000E+00 -4.344774719E+02  4.344774719E+02  0.000000000E+00  0.00000E+00  9.000E+00
      25     1     1     2     0     0  4.089235346E+02 -2.322212755E+02  2.461207433E+02  5.452940475E+02  1.250000000E+02  0.00000E+00  9.000E+00
      25     1     1     2     0     0 -3.154372358E+02  1.313993799E+02 -1.316562037E+02  3.869428934E+02  1.250000000E+02  0.00000E+00  9.000E+00
      21     1     1     2   512   502 -9.348629879E+01  1.008218957E+02  1.590883264E+02  2.102708689E+02  2.697398305E-06  0.00000E+00  9.000E+00
#rwgt            1           1   2.8975106985916498E-002           7      171905           0
</event>
<event>
      5   9999  3.19816E-02  2.25261E+02 -1.00000E+00  1.09799E-01
      21    -1     0     0   511   501  0.000000000E+00  0.000000000E+00  1.695318645E+03  1.695318645E+03  0.000000000E+00  0.00000E+00  9.000E+00
      21    -1     0     0   501   502  0.000000000E+00  0.000000000E+00 -2.916893991E+02  2.916893991E+02  0.000000000E+00  0.00000E+00  9.000E+00
      25     1     1     2     0     0  1.795686983E+02 -2.213545016E+02 -1.110556625E+02  3.304558866E+02  1.250000000E+02  0.00000E+00  9.000E+00
      25     1     1     2     0     0  3.413545946E+01  1.501291460E+02  9.642522306E+01  2.205148832E+02  1.250000000E+02  0.00000E+00  9.000E+00
      21     1     1     2   511   502 -2.137041577E+02  7.122535564E+01  1.418259686E+03  1.436037275E+03  1.525878906E-05  0.00000E+00  9.000E+00
#rwgt            2          11   2.9160048189926977E-003           7      171962           0
</event>
<event>
      5   9999  3.19816E-02  5.31371E+01 -1.00000E+00  1.37584E-01
      21    -1     0     0   502   501  0.000000000E+00  0.000000000E+00  2.848981424E+02  2.848981424E+02  0.000000000E+00  0.00000E+00  9.000E+00
      21    -1     0     0   512   502  0.000000000E+00  0.000000000E+00 -9.302509544E+02  9.302509544E+02  0.000000000E+00  0.00000E+00  9.000E+00
      25     1     1     2     0     0 -1.204655817E+02 -1.098368883E+02  1.806003746E+02  2.735280492E+02  1.250000000E+02  0.00000E+00  9.000E+00
      25     1     1     2     0     0  1.707790791E+02  9.274585280E+01 -1.784812678E+02  2.919723446E+02  1.250000000E+02  0.00000E+00  9.000E+00
      21     1     1     2   512   501 -5.031349732E+01  1.709103552E+01 -6.474719189E+02  6.496487029E+02  7.629394531E-06  0.00000E+00  9.000E+00
#rwgt            1           1   2.6829275300932699E-002           7      171982           0
</event>
<event>
      5   9999  3.19816E-02  2.38426E+01 -1.00000E+00  1.60308E-01
      21    -1     0     0   502   511  0.000000000E+00  0.000000000E+00  4.328119078E+02  4.328119078E+02  0.000000000E+00  0.00000E+00  9.000E+00
      21    -1     0     0   501   502  0.000000000E+00  0.000000000E+00 -5.964107362E+02  5.964107362E+02  0.000000000E+00  0.00000E+00  9.000E+00
      25     1     1     2     0     0 -3.394342399E+02  3.150084915E+02  2.904347778E+01  4.805356142E+02  1.250000000E+02  0.00000E+00  9.000E+00
      25     1     1     2     0     0  3.576547551E+02 -2.996304585E+02 -2.013302780E+02  5.233108219E+02  1.250000000E+02  0.00000E+00  9.000E+00
      21     1     1     2   501   511 -1.822051518E+01 -1.537803302E+01  8.687971864E+00  2.537620792E+01  3.371747881E-07  0.00000E+00  9.000E+00
#rwgt            1           1   2.4187422636063209E-002           7      172175           0
</event>
<event>
      5   9999  3.19816E-02  9.26936E+01 -1.00000E+00  1.25328E-01
      21    -1     0     0   502   501  0.000000000E+00  0.000000000E+00  1.025466129E+03  1.025466129E+03  0.000000000E+00  0.00000E+00  9.000E+00
      21    -1     0     0   501   512  0.000000000E+00  0.000000000E+00 -1.437937275E+03  1.437937275E+03  0.000000000E+00  0.00000E+00  9.000E+00
      25     1     1     2     0     0 -7.592675480E+02  6.618140164E+02  3.086301040E+02  1.060831062E+03  1.250000000E+02  0.00000E+00  9.000E+00
      25     1     1     2     0     0  8.277966501E+02 -7.242308619E+02 -6.356044919E+02  1.276470017E+03  1.250000000E+02  0.00000E+00  9.000E+00
      21     1     1     2   502   512 -6.852910207E+01  6.241684551E+01 -8.549675798E+01  1.261023238E+02  1.907348633E-06  0.00000E+00  9.000E+00
#rwgt            1           1   6.4118459947015011E-002           7      172361           0
</event>
<event>
      5   9999  3.19816E-02  4.37508E+01 -1.00000E+00  1.42467E-01
      21    -1     0     0   502   501  0.000000000E+00  0.000000000E+00  7.415730269E+02  7.415730269E+02  0.000000000E+00  0.00000E+00  9.000E+00
      -1    -1     0     0     0   502  0.000000000E+00  0.000000000E+00 -1.153276069E+03  1.153276069E+03  0.000000000E+00  0.00000E+00  9.000E+00
      25     1     1     2     0     0  3.773099215E+02 -2.558177359E+02  5.601914778E+02  7.329699739E+02  1.250000000E+02  0.00000E+00  9.000E+00
      25     1     1     2     0     0 -3.335815301E+02  2.544171140E+02 -4.147897728E+02  6.030590856E+02  1.250000000E+02  0.00000E+00  9.000E+00
      -1     1     1     2     0   501 -4.372839138E+01  1.400621913E+00 -5.571047466E+02  5.588200360E+02  0.000000000E+00  0.00000E+00  9.000E+00
#rwgt            1           1   3.0845280358032495E-002           7      172521           0
</event>
<event>
      5   9999  3.19816E-02  6.31613E+01 -1.00000E+00  1.33522E-01
      21    -1     0     0   502   501  0.000000000E+00  0.000000000E+00  3.004202442E+02  3.004202442E+02  0.000000000E+00  0.00000E+00  9.000E+00
      21    -1     0     0   501   511  0.000000000E+00  0.000000000E+00 -1.026478953E+03  1.026478953E+03  0.000000000E+00  0.00000E+00  9.000E+00
      25     1     1     2     0     0  3.784242957E+01 -1.213008143E+02  2.517042288E+02  3.084249597E+02  1.250000000E+02  0.00000E+00  9.000E+00
      25     1     1     2     0     0  1.582061945E+00  1.706471199E+02 -6.178027999E+02  6.530147334E+02  1.250000000E+02  0.00000E+00  9.000E+00
      21     1     1     2   502   511 -3.942449152E+01 -4.934630565E+01 -3.599601378E+02  3.654595042E+02  3.814697266E-06  0.00000E+00  9.000E+00
#rwgt            2          11   1.6537395321276189E-003           7      172728           0
</event>
<event>
      5   9999  3.19816E-02  1.97314E+01 -1.00000E+00  1.66855E-01
      21    -1     0     0   502   501  0.000000000E+00  0.000000000E+00  5.529842602E+02  5.529842602E+02  0.000000000E+00  0.00000E+00  9.000E+00
      21    -1     0     0   501   512  0.000000000E+00  0.000000000E+00 -1.471952417E+02  1.471952417E+02  0.000000000E+00  0.00000E+00  9.000E+00
      25     1     1     2     0     0 -5.129113996E+00  1.750008884E+02  4.261607670E+02  4.773778567E+02  1.250000000E+02  0.00000E+00  9.000E+00
      25     1     1     2     0     0 -5.853628793E+00 -1.586086339E+02 -1.657577344E+01  2.027084606E+02  1.250000000E+02  0.00000E+00  9.000E+00
      21     1     1     2   502   512  1.098274279E+01 -1.639225443E+01 -3.795974964E+00  2.009318467E+01  5.247240323E-07  0.00000E+00  9.000E+00
#rwgt            1           1   2.8167936813611211E-002           7      172778           0
</event>
<event>
      5   9999  3.19816E-02  2.64145E+02 -1.00000E+00  1.07420E-01
      21    -1     0     0   502   501  0.000000000E+00  0.000000000E+00  9.242020765E+01  9.242020765E+01  0.000000000E+00  0.00000E+00  9.000E+00
      21    -1     0     0   501   511  0.000000000E+00  0.000000000E+00 -1.765670450E+03  1.765670450E+03  0.000000000E+00  0.00000E+00  9.000E+00
      25     1     1     2     0     0  2.204971741E+02  1.361836922E+02 -3.073977043E+02  4.210502944E+02  1.250000000E+02  0.00000E+00  9.000E+00
      25     1     1     2     0     0 -7.207600697E+01  8.232024564E+01 -7.269030528E+02  7.456437634E+02  1.250000000E+02  0.00000E+00  9.000E+00
      21     1     1     2   502   511 -1.484211671E+02 -2.185039378E+02 -6.389494853E+02  6.913965999E+02  7.629394531E-06  0.00000E+00  9.000E+00
#rwgt            2          11   2.1509338533271315E-003           7      172941           0
</event>
<event>
      5   9999  3.19816E-02  1.98413E+02 -1.00000E+00  1.11774E-01
      21    -1     0     0   502   501  0.000000000E+00  0.000000000E+00  4.882514764E+02  4.882514764E+02  0.000000000E+00  0.00000E+00  9.000E+00
      21    -1     0     0   512   502  0.000000000E+00  0.000000000E+00 -2.923007327E+02  2.923007327E+02  0.000000000E+00  0.00000E+00  9.000E+00
      25     1     1     2     0     0 -9.881567738E+01 -1.865830536E+02  2.892563257E+01  2.470616648E+02  1.250000000E+02  0.00000E+00  9.000E+00
      25     1     1     2     0     0  1.907428842E+02  1.075032980E+01  2.312306352E+02  3.249477252E+02  1.250000000E+02  0.00000E+00  9.000E+00
      21     1     1     2   512   501 -9.192720683E+01  1.758327238E+02 -6.420552403E+01  2.085428192E+02  1.348699152E-06  0.00000E+00  9.000E+00
#rwgt            2          11   3.1063467369783588E-003           7      172976           0
</event>
<event>
      5   9999  3.19816E-02  3.51117E+02 -1.00000E+00  1.03418E-01
      21    -1     0     0   511   501  0.000000000E+00  0.000000000E+00  1.605204849E+03  1.605204849E+03  0.000000000E+00  0.00000E+00  9.000E+00
      21    -1     0     0   501   502  0.000000000E+00  0.000000000E+00 -6.720154755E+02  6.720154755E+02  0.000000000E+00  0.00000E+00  9.000E+00
      25     1     1     2     0     0 -1.426695877E+02  6.711050988E+02 -2.312445743E+02  7.347351346E+02  1.250000000E+02  0.00000E+00  9.000E+00
      25     1     1     2     0     0  1.429392194E+02 -3.199879863E+02  5.169129339E+01  3.756606469E+02  1.250000000E+02  0.00000E+00  9.000E+00
      21     1     1     2   511   502 -2.696317419E-01 -3.511171125E+02  1.112742654E+03  1.166824543E+03  0.000000000E+00  0.00000E+00  9.000E+00
#rwgt            1           1   2.9508057334864831E-002           7      173011           0
</event>
<event>
      5   9999  3.19816E-02  4.46015E+01 -1.00000E+00  1.41967E-01
      21    -1     0     0   502   501  0.000000000E+00  0.000000000E+00  1.033903013E+02  1.033903013E+02  0.000000000E+00  0.00000E+00  9.000E+00
      21    -1     0     0   512   502  0.000000000E+00  0.000000000E+00 -1.108587650E+03  1.108587650E+03  0.000000000E+00  0.00000E+00  9.000E+00
      25     1     1     2     0     0 -2.423164520E+02 -2.706762087E+01 -2.301933758E+02  3.578601812E+02  1.250000000E+02  0.00000E+00  9.000E+00
      25     1     1     2     0     0  2.858343574E+02  3.683949588E+01 -6.890796381E+02  7.573071874E+02  1.250000000E+02  0.00000E+00  9.000E+00
      21     1     1     2   512   501 -4.351790546E+01 -9.771875007E+00 -8.592433466E+01  9.681058270E+01  0.000000000E+00  0.00000E+00  9.000E+00
#rwgt            1           1   3.3402268680842902E-002           7      173053           0
</event>
<event>
      5   9999  3.19816E-02  1.53971E+01 -1.00000E+00  1.76321E-01
      21    -1     0     0   502   511  0.000000000E+00  0.000000000E+00  3.927498782E+02  3.927498782E+02  0.000000000E+00  0.00000E+00  9.000E+00
      21    -1     0     0   501   502  0.000000000E+00  0.000000000E+00 -1.463266680E+02  1.463266680E+02  0.000000000E+00  0.00000E+00  9.000E+00
      25     1     1     2     0     0 -6.446406500E+01  9.323806945E+01  2.709756924E+02  3.192205807E+02  1.250000000E+02  0.00000E+00  9.000E+00
      25     1     1     2     0     0  7.135507747E+01 -1.070070326E+02 -5.342053320E+01  1.871384661E+02  1.250000000E+02  0.00000E+00  9.000E+00
      21     1     1     2   501   511 -6.891012471E+00  1.376896316E+01  2.886805109E+01  3.271749950E+01  3.371747881E-07  0.00000E+00  9.000E+00
#rwgt            1           1   3.5629334734883375E-002           7      173121           0
</event>
<event>
      5   9999  3.19816E-02  1.62187E+02 -1.00000E+00  1.15065E-01
      21    -1     0     0   502   512  0.000000000E+00  0.000000000E+00  1.905902670E+02  1.905902670E+02  0.000000000E+00  0.00000E+00  9.000E+00
      21    -1     0     0   501   502  0.000000000E+00  0.000000000E+00 -5.070074243E+02  5.070074243E+02  0.000000000E+00  0.00000E+00  9.000E+00
      25     1     1     2     0     0 -8.309700129E+01 -1.134545475E+01  6.763548880E+01  1.650254232E+02  1.250000000E+02  0.00000E+00  9.000E+00
      25     1     1     2     0     0 -7.908311432E+01  9.860973403E+00 -3.297428148E+02  3.615338181E+02  1.250000000E+02  0.00000E+00  9.000E+00
      21     1     1     2   501   512  1.621801156E+02  1.484481348E+00 -5.430983132E+01  1.710384500E+02  3.754619538E-06  0.00000E+00  9.000E+00
#rwgt            1           1   2.6475602286099745E-002           7      173330           0
</event>
<event>
      5   9999  3.19816E-02  7.32875E+01 -1.00000E+00  1.30219E-01
      21    -1     0     0   502   501  0.000000000E+00  0.000000000E+00  3.181819122E+02  3.181819122E+02  0.000000000E+00  0.00000E+00  9.000E+00
       2    -1     0     0   501     0  0.000000000E+00  0.000000000E+00 -3.094271933E+02  3.094271933E+02  0.000000000E+00  0.00000E+00  9.000E+00
      25     1     1     2     0     0  2.644740023E+00 -2.339381538E+02 -2.602680114E+01  2.665266381E+02  1.250000000E+02  0.00000E+00  9.000E+00
      25     1     1     2     0     0  6.930955253E+01  2.478533015E+02  2.700807934E+01  2.873839061E+02  1.250000000E+02  0.00000E+00  9.000E+00
       2     1     1     2   502     0 -7.195429256E+01 -1.391514765E+01  7.773440635E+00  7.369856125E+01  1.059555342E-06  0.00000E+00  9.000E+00
#rwgt            1           1   2.3519008806083652E-002           7      173398           0
</event>
<event>
      5   9999  3.19816E-02  1.03485E+01 -1.00000E+00  1.94053E-01
       2    -1     0     0   502     0  0.000000000E+00  0.000000000E+00  1.043013942E+03  1.043013942E+03  0.000000000E+00  0.00000E+00  9.000E+00
      21    -1     0     0   501   502  0.000000000E+00  0.000000000E+00 -2.792519928E+02  2.792519928E+02  0.000000000E+00  0.00000E+00  9.000E+00
      25     1     1     2     0     0 -9.212440768E+01  2.100722716E+02 -9.631922403E+01  2.784235240E+02  1.250000000E+02  0.00000E+00  9.000E+00
      25     1     1     2     0     0  8.786726959E+01 -2.195045351E+02  1.028514859E+02  2.865420146E+02  1.250000000E+02  0.00000E+00  9.000E+00
       2     1     1     2   501     0  4.257138089E+00  9.432263444E+00  7.572296877E+02  7.573003967E+02  0.000000000E+00  0.00000E+00  9.000E+00
#rwgt            1           1   2.6774668561454478E-002           7      173439           0
</event>
<event>
      5   9999  3.19816E-02  3.09200E+01 -1.00000E+00  1.52134E-01
      21    -1     0     0   511   501  0.000000000E+00  0.000000000E+00  2.081146456E+02  2.081146456E+02  0.000000000E+00  0.00000E+00  9.000E+00
      21    -1     0     0   501   502  0.000000000E+00  0.000000000E+00 -7.201741431E+02  7.201741431E+02  0.000000000E+00  0.00000E+00  9.000E+00
      25     1     1     2     0     0  4.987922650E+01  6.656936997E+01 -6.564176055E+02  6.733709906E+02  1.250000000E+02  0.00000E+00  9.000E+00
      25     1     1     2     0     0 -6.295437134E+01 -9.458871967E+01  8.760649868E+01  1.902897196E+02  1.250000000E+02  0.00000E+00  9.000E+00
      21     1     1     2   511   502  1.307514484E+01  2.801934970E+01  5.675160926E+01  6.462807845E+01  1.348699152E-06  0.00000E+00  9.000E+00
#rwgt            1           1   2.6690534261440167E-002           7      173665           0
</event>
<event>
      5   9999  3.19816E-02  2.09544E+02 -1.00000E+00  1.10916E-01
      21    -1     0     0   502   501  0.000000000E+00  0.000000000E+00  5.266979341E+02  5.266979341E+02  0.000000000E+00  0.00000E+00  9.000E+00
      21    -1     0     0   501   512  0.000000000E+00  0.000000000E+00 -1.432231147E+03  1.432231147E+03  0.000000000E+00  0.00000E+00  9.000E+00
      25     1     1     2     0     0  2.584391364E+02  5.095283374E+02 -1.080798205E+03  1.228885541E+03  1.250000000E+02  0.00000E+00  9.000E+00
      25     1     1     2     0     0 -1.477242577E+02 -3.316207932E+02  2.990455415E+02  4.866703635E+02  1.250000000E+02  0.00000E+00  9.000E+00
      21     1     1     2   502   512 -1.107148787E+02 -1.779075442E+02 -1.237805502E+02  2.433731770E+02  0.000000000E+00  0.00000E+00  9.000E+00
#rwgt            1           1   2.9558016092200642E-002           7      173758           0
</event>
<event>
      5   9999  3.19816E-02  1.07135E+02 -1.00000E+00  1.22496E-01
      21    -1     0     0   502   501  0.000000000E+00  0.000000000E+00  1.600669559E+02  1.600669559E+02  0.000000000E+00  0.00000E+00  9.000E+00
       2    -1     0     0   501     0  0.000000000E+00  0.000000000E+00 -1.307993358E+03  1.307993358E+03  0.000000000E+00  0.00000E+00  9.000E+00
      25     1     1     2     0     0  2.920217466E+01  8.624512032E+01  9.974683634E+01  1.840255937E+02  1.250000000E+02  0.00000E+00  9.000E+00
      25     1     1     2     0     0  7.387015674E-01  1.662134251E+01 -2.439976782E+02  2.746573896E+02  1.250000000E+02  0.00000E+00  9.000E+00
       2     1     1     2   502     0 -2.994087622E+01 -1.028664628E+02 -1.003675560E+03  1.009377330E+03  0.000000000E+00  0.00000E+00  9.000E+00
#rwgt            1           1   2.8285572929512039E-002           7      173819           0
</event>
<event>
      5   9999  3.19816E-02  1.41030E+02 -1.00000E+00  1.17465E-01
      21    -1     0     0   502   501  0.000000000E+00  0.000000000E+00  1.262299766E+03  1.262299766E+03  0.000000000E+00  0.00000E+00  9.000E+00
      21    -1     0     0   501   511  0.000000000E+00  0.000000000E+00 -3.404586099E+02  3.404586099E+02  0.000000000E+00  0.00000E+00  9.000E+00
      25     1     1     2     0     0 -3.034141911E+02  2.122943915E+02  6.169815903E+02  7.303563259E+02  1.250000000E+02  0.00000E+00  9.000E+00
      25     1     1     2     0     0  4.400565640E+02 -1.773889143E+02  4.530501653E+02  6.678293635E+02  1.250000000E+02  0.00000E+00  9.000E+00
      21     1     1     2   502   511 -1.366423729E+02 -3.490547726E+01 -1.481905993E+02  2.045726867E+02  2.697398305E-06  0.00000E+00  9.000E+00
#rwgt            1           1   3.5030183240998158E-002           7      173866           0
</event>
<event>
      5   9999  3.19816E-02  6.00567E+01 -1.00000E+00  1.34681E-01
      21    -1     0     0   502   501  0.000000000E+00  0.000000000E+00  1.396454646E+02  1.396454646E+02  0.000000000E+00  0.00000E+00  9.000E+00
      21    -1     0     0   512   502  0.000000000E+00  0.000000000E+00 -8.791909705E+02  8.791909705E+02  0.000000000E+00  0.00000E+00  9.000E+00
      25     1     1     2     0     0  1.843534465E+02 -1.781640519E+02 -1.070889628E+02  3.046664875E+02  1.250000000E+02  0.00000E+00  9.000E+00
      25     1     1     2     0     0 -1.259909032E+02  1.640001211E+02 -3.494722596E+02  4.248830517E+02  1.250000000E+02  0.00000E+00  9.000E+00
      21     1     1     2   512   501 -5.836254336E+01  1.416393079E+01 -2.829842836E+02  2.892868959E+02  0.000000000E+00  0.00000E+00  9.000E+00
#rwgt            1           1   2.9629578044054566E-002           7      173942           0
</event>
<event>
      5   9999  3.19816E-02  2.52591E+01 -1.00000E+00  1.58416E-01
      21    -1     0     0   511   501  0.000000000E+00  0.000000000E+00  9.019315555E+01  9.019315555E+01  0.000000000E+00  0.00000E+00  9.000E+00
      21    -1     0     0   501   502  0.000000000E+00  0.000000000E+00 -7.905594513E+02  7.905594513E+02  0.000000000E+00  0.00000E+00  9.000E+00
      25     1     1     2     0     0 -1.884081763E+01  6.128709451E+00 -6.880681301E+02  6.996108126E+02  1.250000000E+02  0.00000E+00  9.000E+00
      25     1     1     2     0     0 -1.676790425E+00  8.603961235E+00 -5.070183974E+01  1.351758718E+02  1.250000000E+02  0.00000E+00  9.000E+00
      21     1     1     2   511   502  2.051760805E+01 -1.473267069E+01  3.840367415E+01  4.596592231E+01  1.507891493E-06  0.00000E+00  9.000E+00
#rwgt            1           1   2.8813104352548361E-002           7      174026           0
</event>
<event>
      5   9999  3.19816E-02  1.30573E+02 -1.00000E+00  1.18832E-01
      21    -1     0     0   502   501  0.000000000E+00  0.000000000E+00  4.524224711E+02  4.524224711E+02  0.000000000E+00  0.00000E+00  9.000E+00
      21    -1     0     0   501   512  0.000000000E+00  0.000000000E+00 -6.862108491E+02  6.862108491E+02  0.000000000E+00  0.00000E+00  9.000E+00
      25     1     1     2     0     0  5.944252656E+01  3.716714564E+02 -1.731907673E+02  4.327737600E+02  1.250000000E+02  0.00000E+00  9.000E+00
      25     1     1     2     0     0 -1.545928115E+02 -4.610902871E+02  8.611782517E+01  5.094550716E+02  1.250000000E+02  0.00000E+00  9.000E+00
      21     1     1     2   502   512  9.515028491E+01  8.941883071E+01 -1.467154359E+02  1.964044886E+02  3.303624740E-06  0.00000E+00  9.000E+00
#rwgt            1           1   2.7870119032794190E-002           7      174149           0
</event>
<event>
      5   9999  3.19816E-02  4.20610E+01 -1.00000E+00  1.43500E-01
      21    -1     0     0   511   501  0.000000000E+00  0.000000000E+00  2.300404423E+02  2.300404423E+02  0.000000000E+00  0.00000E+00  9.000E+00
      21    -1     0     0   501   502  0.000000000E+00  0.000000000E+00 -1.002893538E+03  1.002893538E+03  0.000000000E+00  0.00000E+00  9.000E+00
      25     1     1     2     0     0 -2.406125426E+02 -9.080496703E+01 -7.124818832E+02  7.677208943E+02  1.250000000E+02  0.00000E+00  9.000E+00
      25     1     1     2     0     0  2.825180655E+02  9.441794975E+01 -1.574826455E+02  3.593841819E+02  1.250000000E+02  0.00000E+00  9.000E+00
      21     1     1     2   511   502 -4.190552291E+01 -3.612982721E+00  9.711143305E+01  1.058289040E+02  1.348699152E-06  0.00000E+00  9.000E+00
#rwgt            1           1   2.6999387223091750E-002           7      174227           0
</event>
<event>
      5   9999  3.19816E-02  1.05399E+01 -1.00000E+00  1.93154E-01
      21    -1     0     0   502   501  0.000000000E+00  0.000000000E+00  6.590963478E+02  6.590963478E+02  0.000000000E+00  0.00000E+00  9.000E+00
      21    -1     0     0   501   512  0.000000000E+00  0.000000000E+00 -1.801562780E+02  1.801562780E+02  0.000000000E+00  0.00000E+00  9.000E+00
      25     1     1     2     0     0  2.007614177E+02  1.844725304E+02  3.948258378E+02  4.958303173E+02  1.250000000E+02  0.00000E+00  9.000E+00
      25     1     1     2     0     0 -1.997204198E+02 -1.739841484E+02  1.120298682E+02  3.135831968E+02  1.250000000E+02  0.00000E+00  9.000E+00
      21     1     1     2   502   512 -1.040997895E+00 -1.048838207E+01 -2.791563626E+01  2.983911163E+01  4.768371582E-07  0.00000E+00  9.000E+00
#rwgt            1           1   3.0170707289020007E-002           7      174339           0
</event>
<event>
      5   9999  3.19816E-02  2.85011E+01 -1.00000E+00  1.54602E-01
      21    -1     0     0   502   501  0.000000000E+00  0.000000000E+00  1.785273708E+02  1.785273708E+02  0.000000000E+00  0.00000E+00  9.000E+00
      21    -1     0     0   511   502  0.000000000E+00  0.000000000E+00 -7.785933262E+02  7.785933262E+02  0.000000000E+00  0.00000E+00  9.000E+00
      25     1     1     2     0     0 -4.558671298E+01 -3.063419088E+02 -1.890980429E+02  3.838053977E+02  1.250000000E+02  0.00000E+00  9.000E+00
      25     1     1     2     0     0  2.683690322E+01  3.278071297E+02 -3.117890451E+02  4.701224758E+02  1.250000000E+02  0.00000E+00  9.000E+00
      21     1     1     2   511   501  1.874980976E+01 -2.146522096E+01 -9.917886747E+01  1.031928235E+02  1.907348633E-06  0.00000E+00  9.000E+00
#rwgt            1           1   3.2507515936850244E-002           7      174580           0
</event>
<event>
      5   9999  3.19816E-02  7.24881E+02 -1.00000E+00  9.44760E-02
      21    -1     0     0   502   501  0.000000000E+00  0.000000000E+00  2.422059688E+02  2.422059688E+02  0.000000000E+00  0.00000E+00  9.000E+00
      -1    -1     0     0     0   502  0.000000000E+00  0.000000000E+00 -2.448968478E+03  2.448968478E+03  0.000000000E+00  0.00000E+00  9.000E+00
      25     1     1     2     0     0  5.030602205E+01  1.012179798E+02 -2.417571139E+02  2.946986213E+02  1.250000000E+02  0.00000E+00  9.000E+00
      25     1     1     2     0     0 -1.413810381E+02  6.179187800E+02 -8.844835383E+02  1.095330245E+03  1.250000000E+02  0.00000E+00  9.000E+00
      -1     1     1     2     0   501  9.107501605E+01 -7.191367598E+02 -1.080521857E+03  1.301145581E+03  2.157918644E-05  0.00000E+00  9.000E+00
#rwgt            2          10   3.2681098874041070E-005           7      174688           0
</event>
<event>
      5   9999  3.19816E-02  3.99344E+01 -1.00000E+00  1.44884E-01
      21    -1     0     0   502   501  0.000000000E+00  0.000000000E+00  4.010471542E+02  4.010471542E+02  0.000000000E+00  0.00000E+00  9.000E+00
      -1    -1     0     0     0   502  0.000000000E+00  0.000000000E+00 -7.251714305E+02  7.251714305E+02  0.000000000E+00  0.00000E+00  9.000E+00
      25     1     1     2     0     0  1.306343515E+02 -1.280269159E+02  1.631030679E+02  2.751069532E+02  1.250000000E+02  0.00000E+00  9.000E+00
      25     1     1     2     0     0 -9.071656074E+01  1.291786832E+02  1.253855124E+02  2.371985525E+02  1.250000000E+02  0.00000E+00  9.000E+00
      -1     1     1     2     0   501 -3.991779074E+01 -1.151767321E+00 -6.126128566E+02  6.139130790E+02  0.000000000E+00  0.00000E+00  9.000E+00
#rwgt            1           1   2.9054233805860294E-002           7      174707           0
</event>
<event>
      5   9999  3.19816E-02  4.79999E+01 -1.00000E+00  1.40095E-01
       2    -1     0     0   502     0  0.000000000E+00  0.000000000E+00  1.252842179E+03  1.252842179E+03  0.000000000E+00  0.00000E+00  9.000E+00
      21    -1     0     0   501   502  0.000000000E+00  0.000000000E+00 -3.420600783E+02  3.420600783E+02  0.000000000E+00  0.00000E+00  9.000E+00
      25     1     1     2     0     0 -2.067232624E+02  8.202639344E+01  4.749909373E+02  5.391699426E+02  1.250000000E+02  0.00000E+00  9.000E+00
      25     1     1     2     0     0  1.854907209E+02 -3.897794498E+01 -2.674650557E+02  3.508399119E+02  1.250000000E+02  0.00000E+00  9.000E+00
       2     1     1     2   501     0  2.123254147E+01 -4.304844845E+01  7.032562193E+02  7.048924030E+02  0.000000000E+00  0.00000E+00  9.000E+00
#rwgt            1           1   2.9242303513573282E-002           7      174825           0
</event>
<event>
      5   9999  3.19816E-02  1.08137E+02 -1.00000E+00  1.22319E-01
      21    -1     0     0   502   501  0.000000000E+00  0.000000000E+00  2.006276194E+02  2.006276194E+02  0.000000000E+00  0.00000E+00  9.000E+00
      21    -1     0     0   511   502  0.000000000E+00  0.000000000E+00 -5.226687080E+02  5.226687080E+02  0.000000000E+00  0.00000E+00  9.000E+00
      25     1     1     2     0     0  2.182499272E+02 -1.813566258E+00 -1.366232876E+01  2.518888227E+02  1.250000000E+02  0.00000E+00  9.000E+00
      25     1     1     2     0     0 -1.737377631E+02  1.003641136E+02 -1.511681633E+02  2.805968268E+02  1.250000000E+02  0.00000E+00  9.000E+00
      21     1     1     2   511   501 -4.451216410E+01 -9.855054738E+01 -1.572105966E+02  1.908106779E+02  3.303624740E-06  0.00000E+00  9.000E+00
#rwgt            1           1   2.7618905984758638E-002           7      174969           0
</event>
<event>
      5   9999  3.19816E-02  1.73569E+01 -1.00000E+00  1.71614E-01
      21    -1     0     0   502   501  0.000000000E+00  0.000000000E+00  4.988229826E+01  4.988229826E+01  0.000000000E+00  0.00000E+00  9.000E+00
      21    -1     0     0   501   512  0.000000000E+00  0.000000000E+00 -1.618231736E+03  1.618231736E+03  0.000000000E+00  0.00000E+00  9.000E+00
      25     1     1     2     0     0 -1.614470504E+01 -2.073021090E+02 -1.004292820E+03  1.033181438E+03  1.250000000E+02  0.00000E+00  9.000E+00
      25     1     1     2     0     0  2.867789159E+00  2.184817593E+02 -4.187193931E+02  4.885626199E+02  1.250000000E+02  0.00000E+00  9.000E+00
      21     1     1     2   502   512  1.327691588E+01 -1.117965026E+01 -1.453372242E+02  1.463699758E+02  1.907348633E-06  0.00000E+00  9.000E+00
#rwgt            1           1   3.2375195137803549E-002           7      175017           0
</event>
<event>
      5   9999  3.19816E-02  5.92605E+01 -1.00000E+00  1.34992E-01
      21    -1     0     0   511   501  0.000000000E+00  0.000000000E+00  1.291131953E+03  1.291131953E+03  0.000000000E+00  0.00000E+00  9.000E+00
      21    -1     0     0   501   502  0.000000000E+00  0.000000000E+00 -1.021687620E+02  1.021687620E+02  0.000000000E+00  0.00000E+00  9.000E+00
      25     1     1     2     0     0 -2.748130615E+02 -6.427467724E+01  3.269839710E+02  4.496631741E+02  1.250000000E+02  0.00000E+00  9.000E+00
      25     1     1     2     0     0  2.157777924E+02  5.911269008E+01  3.819370259E+02  4.599513644E+02  1.250000000E+02  0.00000E+00  9.000E+00
      21     1     1     2   511   502  5.903526908E+01  5.161987164E+00  4.800421944E+02  4.836861767E+02  5.394796609E-06  0.00000E+00  9.000E+00
#rwgt            1           1   3.0452594845639433E-002           7      175174           0
</event>
<event>
      5   9999  3.19816E-02  7.16982E+01 -1.00000E+00  1.30696E-01
      21    -1     0     0   502   501  0.000000000E+00  0.000000000E+00  2.288226033E+02  2.288226033E+02  0.000000000E+00  0.00000E+00  9.000E+00
      21    -1     0     0   501   512  0.000000000E+00  0.000000000E+00 -5.881405992E+02  5.881405992E+02  0.000000000E+00  0.00000E+00  9.000E+00
      25     1     1     2     0     0 -1.433952503E+02 -1.121955327E+02 -3.376129687E+01  2.234163390E+02  1.250000000E+02  0.00000E+00  9.000E+00
      25     1     1     2     0     0  1.991797881E+02  1.572367597E+02 -2.435173495E+01  2.839260354E+02  1.250000000E+02  0.00000E+00  9.000E+00
      21     1     1     2   502   512 -5.578453783E+01 -4.504122704E+01 -3.012049641E+02  3.096208281E+02  5.394796609E-06  0.00000E+00  9.000E+00
#rwgt            1           1   2.5431345811421917E-002           7      175287           0
</event>
<event>
      5   9999  3.19816E-02  1.63112E+02 -1.00000E+00  1.14969E-01
      21    -1     0     0   502   501  0.000000000E+00  0.000000000E+00  3.159891912E+02  3.159891912E+02  0.000000000E+00  0.00000E+00  9.000E+00
      21    -1     0     0   511   502  0.000000000E+00  0.000000000E+00 -4.650175161E+02  4.650175161E+02  0.000000000E+00  0.00000E+00  9.000E+00
      25     1     1     2     0     0  3.671857159E+01  2.303778427E+02 -2.787377544E+01  2.661280730E+02  1.250000000E+02  0.00000E+00  9.000E+00
      25     1     1     2     0     0 -1.996024437E+02 -2.389982731E+02 -6.106327012E+01  3.410498982E+02  1.250000000E+02  0.00000E+00  9.000E+00
      21     1     1     2   511   501  1.628838721E+02  8.620430454E+00 -6.009127929E+01  1.738287360E+02  6.743495762E-07  0.00000E+00  9.000E+00
#rwgt            1           1   2.8553551160999752E-002           7      175366           0
</event>
<event>
      5   9999  3.19816E-02  1.13511E+02 -1.00000E+00  1.21402E-01
      21    -1     0     0   502   512  0.000000000E+00  0.000000000E+00  5.961572237E+02  5.961572237E+02  0.000000000E+00  0.00000E+00  9.000E+00
      21    -1     0     0   501   502  0.000000000E+00  0.000000000E+00 -1.151170971E+02  1.151170971E+02  0.000000000E+00  0.00000E+00  9.000E+00
      25     1     1     2     0     0 -1.222945830E+02 -2.131756383E+01  2.381441995E+02  2.962229960E+02  1.250000000E+02  0.00000E+00  9.000E+00
      25     1     1     2     0     0  1.170849515E+02  1.347086578E+02  1.241783582E+02  2.507998664E+02  1.250000000E+02  0.00000E+00  9.000E+00
      21     1     1     2   501   512  5.209631559E+00 -1.133910940E+02  1.187175688E+02  1.642514584E+02  3.303624740E-06  0.00000E+00  9.000E+00
#rwgt            2          11   2.7781222659086354E-003           7      175418           0
</event>
<event>
      5   9999  3.19816E-02  2.78397E+02 -1.00000E+00  1.06657E-01
      21    -1     0     0   502   511  0.000000000E+00  0.000000000E+00  1.067858270E+03  1.067858270E+03  0.000000000E+00  0.00000E+00  9.000E+00
      21    -1     0     0   501   502  0.000000000E+00  0.000000000E+00 -2.365873903E+03  2.365873903E+03  0.000000000E+00  0.00000E+00  9.000E+00
      25     1     1     2     0     0 -1.109537445E+03  2.498987990E+02 -1.694900867E+03  2.044953960E+03  1.250000000E+02  0.00000E+00  9.000E+00
      25     1     1     2     0     0  8.319833818E+02 -2.715425555E+02 -2.373037863E+01  8.843753942E+02  1.250000000E+02  0.00000E+00  9.000E+00
      21     1     1     2   501   511  2.775540628E+02  2.164375646E+01  4.206156123E+02  5.044028185E+02  7.629394531E-06  0.00000E+00  9.000E+00
#rwgt            1           1   5.5239497692448472E-002           7      175438           0
</event>
<event>
      5   9999  3.19816E-02  5.32870E+02 -1.00000E+00  9.80728E-02
      21    -1     0     0   502   501  0.000000000E+00  0.000000000E+00  6.844344899E+02  6.844344899E+02  0.000000000E+00  0.00000E+00  9.000E+00
       2    -1     0     0   501     0  0.000000000E+00  0.000000000E+00 -2.083790658E+03  2.083790658E+03  0.000000000E+00  0.00000E+00  9.000E+00
      25     1     1     2     0     0 -9.960366942E+01 -8.376090594E+02 -1.337251462E+03  1.585993789E+03  1.250000000E+02  0.00000E+00  9.000E+00
      25     1     1     2     0     0 -1.968106108E+02  3.947893663E+02  2.909454864E+02  5.430168840E+02  1.250000000E+02  0.00000E+00  9.000E+00
       2     1     1     2   502     0  2.964142802E+02  4.428196932E+02 -3.530501927E+02  6.392144748E+02  1.078959322E-05  0.00000E+00  9.000E+00
#rwgt            1           1   3.0622353077875600E-002           7      175529           0
</event>
<event>
      5   9999  3.19816E-02  5.68199E+01 -1.00000E+00  1.35980E-01
      21    -1     0     0   502   501  0.000000000E+00  0.000000000E+00  3.578944056E+02  3.578944056E+02  0.000000000E+00  0.00000E+00  9.000E+00
      21    -1     0     0   501   511  0.000000000E+00  0.000000000E+00 -3.603183225E+02  3.603183225E+02  0.000000000E+00  0.00000E+00  9.000E+00
      25     1     1     2     0     0  1.532545966E+02 -1.581430897E+01 -6.314741256E+01  2.082058103E+02  1.250000000E+02  0.00000E+00  9.000E+00
      25     1     1     2     0     0 -1.641376087E+02 -3.995357311E+01  2.417217406E+02  3.202996135E+02  1.250000000E+02  0.00000E+00  9.000E+00
      21     1     1     2   502   511  1.088301207E+01  5.576788208E+01 -1.809982449E+02  1.897073042E+02  1.907348633E-06  0.00000E+00  9.000E+00
#rwgt            1           1   2.8461564309010430E-002           7      175576           0
</event>
<event>
      5   9999  3.19816E-02  2.00110E+02 -1.00000E+00  1.11639E-01
       2    -1     0     0   502     0  0.000000000E+00  0.000000000E+00  2.219814444E+03  2.219814444E+03  0.000000000E+00  0.00000E+00  9.000E+00
      21    -1     0     0   501   502  0.000000000E+00  0.000000000E+00 -5.915623520E+01  5.915623520E+01  0.000000000E+00  0.00000E+00  9.000E+00
      25     1     1     2     0     0  4.050209260E+01 -2.516103295E+02  5.431660685E+02  6.128642226E+02  1.250000000E+02  0.00000E+00  9.000E+00
      25     1     1     2     0     0  9.245327223E+01  1.020545574E+02  5.669120642E+02  5.966381054E+02  1.250000000E+02  0.00000E+00  9.000E+00
       2     1     1     2   501     0 -1.329553648E+02  1.495557721E+02  1.050580077E+03  1.069468352E+03  1.525878906E-05  0.00000E+00  9.000E+00
#rwgt            1           1   2.8298499006946011E-002           7      175648           0
</event>
<event>
      5   9999  3.19816E-02  8.98760E+02 -1.00000E+00  9.21180E-02
      21    -1     0     0   511   501  0.000000000E+00  0.000000000E+00  5.081014382E+02  5.081014382E+02  0.000000000E+00  0.00000E+00  9.000E+00
      21    -1     0     0   501   502  0.000000000E+00  0.000000000E+00 -1.861244979E+03  1.861244979E+03  0.000000000E+00  0.00000E+00  9.000E+00
      25     1     1     2     0     0 -7.118143501E+02  3.783504048E+02 -7.779762114E+02  1.127253602E+03  1.250000000E+02  0.00000E+00  9.000E+00
      25     1     1     2     0     0 -9.576387474E+01  1.609450024E+01 -2.302737778E+02  2.794293567E+02  1.250000000E+02  0.00000E+00  9.000E+00
      21     1     1     2   511   502  8.075782248E+02 -3.944449050E+02 -3.448935515E+02  9.626634584E+02  1.078959322E-05  0.00000E+00  9.000E+00
#rwgt            2          11   1.0454127901804444E-002           7      175770           0
</event>
<event>
      5   9999  3.19816E-02  4.70485E+01 -1.00000E+00  1.40600E-01
      21    -1     0     0   512   501  0.000000000E+00  0.000000000E+00  1.382769491E+02  1.382769491E+02  0.000000000E+00  0.00000E+00  9.000E+00
      21    -1     0     0   501   502  0.000000000E+00  0.000000000E+00 -4.984186030E+02  4.984186030E+02  0.000000000E+00  0.00000E+00  9.000E+00
      25     1     1     2     0     0 -1.347376852E+02  8.650317872E+01 -1.358447957E+02  2.443682718E+02  1.250000000E+02  0.00000E+00  9.000E+00
      25     1     1     2     0     0  1.706959777E+02 -1.168439961E+02 -2.420348603E+02  3.420460639E+02  1.250000000E+02  0.00000E+00  9.000E+00
      21     1     1     2   512   502 -3.595829254E+01  3.034081736E+01  1.773800215E+01  5.028121638E+01  0.000000000E+00  0.00000E+00  9.000E+00
#rwgt            2          11   1.8181708851430329E-003           7      175790           0
</event>
<event>
      5   9999  3.19816E-02  9.22937E+01 -1.00000E+00  1.25415E-01
      21    -1     0     0   502   511  0.000000000E+00  0.000000000E+00  7.768623302E+02  7.768623302E+02  0.000000000E+00  0.00000E+00  9.000E+00
      21    -1     0     0   501   502  0.000000000E+00  0.000000000E+00 -8.935141427E+02  8.935141427E+02  0.000000000E+00  0.00000E+00  9.000E+00
      25     1     1     2     0     0 -4.304738666E+02 -2.856588244E+02  3.588551236E+02  6.413351023E+02  1.250000000E+02  0.00000E+00  9.000E+00
      25     1     1     2     0     0  3.872769549E+02  2.040981097E+02 -6.721485885E+02  8.118178387E+02  1.250000000E+02  0.00000E+00  9.000E+00
      21     1     1     2   501   511  4.319691169E+01  8.156071465E+01  1.966416524E+02  2.172235319E+02  2.697398305E-06  0.00000E+00  9.000E+00
#rwgt            1           1   2.8545936045785845E-002           7      175900           0
</event>
<event>
      5   9999  3.19816E-02  1.36814E+02 -1.00000E+00  1.18000E-01
      21    -1     0     0   502   501  0.000000000E+00  0.000000000E+00  6.437793755E+02  6.437793755E+02  0.000000000E+00  0.00000E+00  9.000E+00
      21    -1     0     0   512   502  0.000000000E+00  0.000000000E+00 -2.528359608E+02  2.528359608E+02  0.000000000E+00  0.00000E+00  9.000E+00
      25     1     1     2     0     0 -2.682948338E+02 -2.054909816E+02  3.477886161E+02  5.007899588E+02  1.250000000E+02  0.00000E+00  9.000E+00
      25     1     1     2     0     0  1.904187700E+02  9.300366453E+01  7.127263090E+01  2.561518641E+02  1.250000000E+02  0.00000E+00  9.000E+00
      21     1     1     2   512   501  7.787606384E+01  1.124873171E+02 -2.811783228E+01  1.396735133E+02  2.920019320E-06  0.00000E+00  9.000E+00
#rwgt            1           1   2.7290949916446660E-002           7      175991           0
</event>
<event>
      5   9999  3.19816E-02  1.65316E+02 -1.00000E+00  1.14744E-01
      21    -1     0     0   502   511  0.000000000E+00  0.000000000E+00  1.392743420E+03  1.392743420E+03  0.000000000E+00  0.00000E+00  9.000E+00
      21    -1     0     0   501   502  0.000000000E+00  0.000000000E+00 -1.894460146E+03  1.894460146E+03  0.000000000E+00  0.00000E+00  9.000E+00
      25     1     1     2     0     0 -4.940353804E+01  1.003487564E+03 -1.453251427E+03  1.771155756E+03  1.250000000E+02  0.00000E+00  9.000E+00
      25     1     1     2     0     0 -1.158296027E+02 -9.982386425E+02  7.841311876E+02  1.280774611E+03  1.250000000E+02  0.00000E+00  9.000E+00
      21     1     1     2   501   511  1.652331407E+02 -5.248921842E+00  1.674035136E+02  2.352731994E+02  2.697398305E-06  0.00000E+00  9.000E+00
#rwgt            1           1   4.0520678519195448E-002           7      176033           0
</event>
<event>
      5   9999  3.19816E-02  7.20258E+01 -1.00000E+00  1.30596E-01
      21    -1     0     0   502   501  0.000000000E+00  0.000000000E+00  1.752627073E+02  1.752627073E+02  0.000000000E+00  0.00000E+00  9.000E+00
      21    -1     0     0   501   512  0.000000000E+00  0.000000000E+00 -8.467340927E+02  8.467340927E+02  0.000000000E+00  0.00000E+00  9.000E+00
      25     1     1     2     0     0  1.808080109E+02  2.244850628E+02 -3.002602434E+02  4.345874986E+02  1.250000000E+02  0.00000E+00  9.000E+00
      25     1     1     2     0     0 -2.456711891E+02 -2.557977075E+02 -2.689394482E+02  4.623204810E+02  1.250000000E+02  0.00000E+00  9.000E+00
      21     1     1     2   502   512  6.486317821E+01  3.131264479E+01 -1.022716939E+02  1.250888204E+02  1.348699152E-06  0.00000E+00  9.000E+00
#rwgt            1           1   2.7196071677811184E-002           7      176169           0
</event>
<event>
      5   9999  3.19816E-02  8.90686E+01 -1.00000E+00  1.26132E-01
      21    -1     0     0   502   511  0.000000000E+00  0.000000000E+00  2.419602693E+02  2.419602693E+02  0.000000000E+00  0.00000E+00  9.000E+00
      21    -1     0     0   501   502  0.000000000E+00  0.000000000E+00 -3.368088428E+02  3.368088428E+02  0.000000000E+00  0.00000E+00  9.000E+00
      25     1     1     2     0     0 -1.813432481E+01  1.244683411E+02 -1.787586923E+02  2.517953370E+02  1.250000000E+02  0.00000E+00  9.000E+00
      25     1     1     2     0     0 -6.712846354E+01 -1.502263170E+02  3.026251666E+00  2.066599505E+02  1.250000000E+02  0.00000E+00  9.000E+00
      21     1     1     2   501   511  8.526278835E+01  2.575797588E+01  8.088386719E+01  1.203138245E+02  0.000000000E+00  0.00000E+00  9.000E+00
#rwgt            1           1   2.6905071691405477E-002           7      176280           0
</event>
<event>
      5   9999  3.19816E-02  2.64113E+02 -1.00000E+00  1.07422E-01
      21    -1     0     0   502   501  0.000000000E+00  0.000000000E+00  9.615858139E+02  9.615858139E+02  0.000000000E+00  0.00000E+00  9.000E+00
       3    -1     0     0   501     0  0.000000000E+00  0.000000000E+00 -2.504875524E+02  2.504875524E+02  0.000000000E+00  0.00000E+00  9.000E+00
      25     1     1     2     0     0  8.676938527E+01  2.921823450E+02  3.337894425E+02  4.689774417E+02  1.250000000E+02  0.00000E+00  9.000E+00
      25     1     1     2     0     0 -2.277716612E+02 -6.885705960E+01  3.956853148E+02  4.783441153E+02  1.250000000E+02  0.00000E+00  9.000E+00
       3     1     1     2   502     0  1.410022759E+02 -2.233252854E+02 -1.837649578E+01  2.647518093E+02  5.239787334E-06  0.00000E+00  9.000E+00
#rwgt            1           1   2.9927705904884441E-002           7      176369           0
</event>
<event>
      5   9999  3.19816E-02  2.40746E+01 -1.00000E+00  1.59988E-01
      21    -1     0     0   502   501  0.000000000E+00  0.000000000E+00  4.569179238E+02  4.569179238E+02  0.000000000E+00  0.00000E+00  9.000E+00
      21    -1     0     0   511   502  0.000000000E+00  0.000000000E+00 -2.172035775E+02  2.172035775E+02  0.000000000E+00  0.00000E+00  9.000E+00
      25     1     1     2     0     0  5.904576843E+01 -2.479621465E+02  1.286460774E+02  3.116832400E+02  1.250000000E+02  0.00000E+00  9.000E+00
      25     1     1     2     0     0 -3.778105361E+01  2.366751502E+02  1.555418856E+02  3.118666589E+02  1.250000000E+02  0.00000E+00  9.000E+00
      21     1     1     2   511   501 -2.126471482E+01  1.128699629E+01 -4.447361674E+01  5.057160238E+01  0.000000000E+00  0.00000E+00  9.000E+00
#rwgt            1           1   3.4002216394409500E-002           7      176438           0
</event>
<event>
      5   9999  3.19816E-02  1.45861E+02 -1.00000E+00  1.16877E-01
      21    -1     0     0   512   501  0.000000000E+00  0.000000000E+00  5.886232228E+02  5.886232228E+02  0.000000000E+00  0.00000E+00  9.000E+00
      21    -1     0     0   501   502  0.000000000E+00  0.000000000E+00 -1.793687591E+02  1.793687591E+02  0.000000000E+00  0.00000E+00  9.000E+00
      25     1     1     2     0     0 -1.522025165E+02 -1.160112969E+02  2.619235443E+02  3.476394254E+02  1.250000000E+02  0.00000E+00  9.000E+00
      25     1     1     2     0     0  8.501789916E+00  9.099811383E+01 -6.066672615E+01  1.663081141E+02  1.250000000E+02  0.00000E+00  9.000E+00
      21     1     1     2   512   502  1.437007266E+02  2.501318306E+01  2.079976455E+02  2.540444423E+02  0.000000000E+00  0.00000E+00  9.000E+00
#rwgt            1           1   2.6477147600416084E-002           7      176572           0
</event>
<event>
      5   9999  3.19816E-02  5.00553E+01 -1.00000E+00  1.39048E-01
      21    -1     0     0   502   511  0.000000000E+00  0.000000000E+00  4.993175743E+02  4.993175743E+02  0.000000000E+00  0.00000E+00  9.000E+00
      21    -1     0     0   501   502  0.000000000E+00  0.000000000E+00 -2.219235626E+02  2.219235626E+02  0.000000000E+00  0.00000E+00  9.000E+00
      25     1     1     2     0     0 -2.241274817E+01  6.273138595E+01  1.846719704E+02  2.327365350E+02  1.250000000E+02  0.00000E+00  9.000E+00
      25     1     1     2     0     0 -7.652643605E+00 -2.271134594E+01 -1.748626978E+02  2.162783652E+02  1.250000000E+02  0.00000E+00  9.000E+00
      21     1     1     2   501   511  3.006539178E+01 -4.002004000E+01  2.675847390E+02  2.722262367E+02  3.814697266E-06  0.00000E+00  9.000E+00
#rwgt            1           1   3.0856673025886908E-002           7      176618           0
</event>
<event>
      5   9999  3.19816E-02  5.43058E+01 -1.00000E+00  1.37059E-01
      21    -1     0     0   502   501  0.000000000E+00  0.000000000E+00  4.500567961E+02  4.500567961E+02  0.000000000E+00  0.00000E+00  9.000E+00
      21    -1     0     0   501   512  0.000000000E+00  0.000000000E+00 -1.835448295E+03  1.835448295E+03  0.000000000E+00  0.00000E+00  9.000E+00
      25     1     1     2     0     0  7.935569567E+02 -1.405618951E+02 -3.411677288E+02  8.840309435E+02  1.250000000E+02  0.00000E+00  9.000E+00
      25     1     1     2     0     0 -8.003594382E+02  8.668386654E+01 -7.668246564E+02  1.118809357E+03  1.250000000E+02  0.00000E+00  9.000E+00
      21     1     1     2   502   512  6.802481529E+00  5.387802853E+01 -2.773991141E+02  2.826647913E+02  5.394796609E-06  0.00000E+00  9.000E+00
#rwgt            1           1   2.9567981727388892E-002           7      176707           0
</event>
<event>
      5   9999  3.19816E-02  3.39999E+01 -1.00000E+00  1.49358E-01
      21    -1     0     0   502   501  0.000000000E+00  0.000000000E+00  4.316161998E+02  4.316161998E+02  0.000000000E+00  0.00000E+00  9.000E+00
      21    -1     0     0   501   511  0.000000000E+00  0.000000000E+00 -2.147711263E+02  2.147711263E+02  0.000000000E+00  0.00000E+00  9.000E+00
      25     1     1     2     0     0  2.610956436E+02 -8.320546799E+01  1.088939973E+02  3.202764238E+02  1.250000000E+02  0.00000E+00  9.000E+00
      25     1     1     2     0     0 -2.326103510E+02  6.464253947E+01  1.067998749E+02  2.920915038E+02  1.250000000E+02  0.00000E+00  9.000E+00
      21     1     1     2   502   511 -2.848529265E+01  1.856292852E+01  1.151201306E+00  3.401939854E+01  3.143403397E-07  0.00000E+00  9.000E+00
#rwgt            1           1   2.7104461863255571E-002           7      176869           0
</event>
<event>
      5   9999  3.19816E-02  2.12782E+01 -1.00000E+00  1.64179E-01
      21    -1     0     0   502   512  0.000000000E+00  0.000000000E+00  1.860868958E+03  1.860868958E+03  0.000000000E+00  0.00000E+00  9.000E+00
      21    -1     0     0   501   502  0.000000000E+00  0.000000000E+00 -6.333620555E+02  6.333620555E+02  0.000000000E+00  0.00000E+00  9.000E+00
      25     1     1     2     0     0  1.983574415E+02 -2.081946918E+02 -9.503174884E+01  3.276381199E+02  1.250000000E+02  0.00000E+00  9.000E+00
      25     1     1     2     0     0 -1.848620041E+02  1.917436727E+02 -3.706731021E+02  4.732474461E+02  1.250000000E+02  0.00000E+00  9.000E+00
      21     1     1     2   501   512 -1.349543735E+01  1.645101912E+01  1.693211753E+03  1.693345447E+03  0.000000000E+00  0.00000E+00  9.000E+00
#rwgt            1           1   2.7835417387195589E-002           7      176963           0
</event>
<event>
      5   9999  3.19816E-02  3.26372E+01 -1.00000E+00  1.50541E-01
      21    -1     0     0   502   501  0.000000000E+00  0.000000000E+00  8.817880247E+01  8.817880247E+01  0.000000000E+00  0.00000E+00  9.000E+00
      21    -1     0     0   501   511  0.000000000E+00  0.000000000E+00 -1.003904827E+03  1.003904827E+03  0.000000000E+00  0.00000E+00  9.000E+00
      25     1     1     2     0     0  2.253915795E+02 -5.122219051E+01 -6.667578930E+02  7.166701925E+02  1.250000000E+02  0.00000E+00  9.000E+00
      25     1     1     2     0     0 -1.932353160E+02  5.680429215E+01 -1.752546342E+02  2.947978999E+02  1.250000000E+02  0.00000E+00  9.000E+00
      21     1     1     2   502   511 -3.215626355E+01 -5.582101642E+00 -7.371349749E+01  8.061553732E+01  9.536743164E-07  0.00000E+00  9.000E+00
#rwgt            1           1   2.7547891220185913E-002           7      177065           0
</event>
<event>
      5   9999  3.19816E-02  2.57009E+02 -1.00000E+00  1.07822E-01
      21    -1     0     0   502   501  0.000000000E+00  0.000000000E+00  1.373182557E+02  1.373182557E+02  0.000000000E+00  0.00000E+00  9.000E+00
      21    -1     0     0   501   512  0.000000000E+00  0.000000000E+00 -1.350620185E+03  1.350620185E+03  0.000000000E+00  0.00000E+00  9.000E+00
      25     1     1     2     0     0  2.136014228E+01  1.956721600E+02 -1.378562874E+02  2.708748896E+02  1.250000000E+02  0.00000E+00  9.000E+00
      25     1     1     2     0     0 -2.610522209E+02 -1.029282289E+02 -4.999347073E+02  5.867726936E+02  1.250000000E+02  0.00000E+00  9.000E+00
      21     1     1     2   502   512  2.396920786E+02 -9.274393102E+01 -5.755109349E+02  6.302908579E+02  1.321449896E-05  0.00000E+00  9.000E+00
#rwgt            2          11   2.5555768683447411E-003           7      177218           0
</event>
<event>
      5   9999  3.74477E-02  1.02358E+02 -1.00000E+00  1.23374E-01
      21    -1     0     0   511   501  0.000000000E+00  0.000000000E+00  1.894824892E+02  1.894824892E+02  0.000000000E+00  0.00000E+00  9.000E+00
      21    -1     0     0   501   502  0.000000000E+00  0.000000000E+00 -2.015093641E+03  2.015093641E+03  0.000000000E+00  0.00000E+00  9.000E+00
      25     1     1     2     0     0 -1.622218193E+02  1.672403269E+02 -1.580758099E+03  1.602718445E+03  1.250000000E+02  0.00000E+00  9.000E+00
      25     1     1     2     0     0  1.847795196E+02 -6.739915482E+01 -3.717902517E+02  4.387927850E+02  1.250000000E+02  0.00000E+00  9.000E+00
      21     1     1     2   511   502 -2.255770028E+01 -9.984117213E+01  1.269371985E+02  1.630649008E+02  4.264961200E-06  0.00000E+00  9.000E+00
#rwgt            1           1  0.11381399713307462                7      177253           0
</event>
<event>
      5   9999  3.19816E-02  1.65105E+01 -1.00000E+00  1.73546E-01
      21    -1     0     0   502   512  0.000000000E+00  0.000000000E+00  1.479790000E+02  1.479790000E+02  0.000000000E+00  0.00000E+00  9.000E+00
      21    -1     0     0   501   502  0.000000000E+00  0.000000000E+00 -3.836545197E+02  3.836545197E+02  0.000000000E+00  0.00000E+00  9.000E+00
      25     1     1     2     0     0  5.203408964E+01  9.275348598E+01 -3.024135159E+02  3.440780293E+02  1.250000000E+02  0.00000E+00  9.000E+00
      25     1     1     2     0     0 -3.573623094E+01 -9.011238879E+01  6.475827569E+01  1.709267536E+02  1.250000000E+02  0.00000E+00  9.000E+00
      21     1     1     2   501   512 -1.629785870E+01 -2.641097191E+00  1.979720579E+00  1.662873676E+01  4.134904422E-07  0.00000E+00  9.000E+00
#rwgt            1           1   2.6214053351246252E-002           7      177335           0
</event>
<event>
      5   9999  3.19816E-02  1.41150E+01 -1.00000E+00  1.79908E-01
      21    -1     0     0   502   511  0.000000000E+00  0.000000000E+00  2.992992462E+02  2.992992462E+02  0.000000000E+00  0.00000E+00  9.000E+00
      21    -1     0     0   501   502  0.000000000E+00  0.000000000E+00 -1.254828178E+02  1.254828178E+02  0.000000000E+00  0.00000E+00  9.000E+00
      25     1     1     2     0     0  1.686529661E+01  4.215433883E+01 -4.243818742E+01  1.395973720E+02  1.250000000E+02  0.00000E+00  9.000E+00
      25     1     1     2     0     0 -1.147202719E+01 -5.519829058E+01  1.041467986E+02  1.721917952E+02  1.250000000E+02  0.00000E+00  9.000E+00
      21     1     1     2   501   511 -5.393269422E+00  1.304395174E+01  1.121078172E+02  1.129928967E+02  1.348699152E-06  0.00000E+00  9.000E+00
#rwgt            1           1   5.6339058003127246E-002           7      177479           0
</event>
<event>
      5   9999  3.19816E-02  6.26821E+01 -1.00000E+00  1.33696E-01
      21    -1     0     0   512   501  0.000000000E+00  0.000000000E+00  9.244534431E+02  9.244534431E+02  0.000000000E+00  0.00000E+00  9.000E+00
      21    -1     0     0   501   502  0.000000000E+00  0.000000000E+00 -1.342974418E+02  1.342974418E+02  0.000000000E+00  0.00000E+00  9.000E+00
      25     1     1     2     0     0  2.433395258E+02  9.701330464E+01  1.198846680E+02  3.140430539E+02  1.250000000E+02  0.00000E+00  9.000E+00
      25     1     1     2     0     0 -2.244604583E+02 -3.724181935E+01  5.022586787E+02  5.653832601E+02  1.250000000E+02  0.00000E+00  9.000E+00
      21     1     1     2   512   502 -1.887906744E+01 -5.977148529E+01  1.680126546E+02  1.793245709E+02  0.000000000E+00  0.00000E+00  9.000E+00
#rwgt            1           1   2.8142663394018708E-002           7      177623           0
</event>
<event>
      5   9999  3.19816E-02  2.72435E+01 -1.00000E+00  1.56005E-01
      21    -1     0     0   502   501  0.000000000E+00  0.000000000E+00  3.390311390E+02  3.390311390E+02  0.000000000E+00  0.00000E+00  9.000E+00
       2    -1     0     0   501     0  0.000000000E+00  0.000000000E+00 -7.763911354E+02  7.763911354E+02  0.000000000E+00  0.00000E+00  9.000E+00
      25     1     1     2     0     0 -1.600623953E+02  4.417668575E+02 -1.392252473E+02  5.057534936E+02  1.250000000E+02  0.00000E+00  9.000E+00
      25     1     1     2     0     0  1.377796637E+02 -4.260923687E+02 -1.970323023E+02  5.049600682E+02  1.250000000E+02  0.00000E+00  9.000E+00
       2     1     1     2   502     0  2.228273164E+01 -1.567448886E+01 -1.011024468E+02  1.047087126E+02  0.000000000E+00  0.00000E+00  9.000E+00
#rwgt            1           1   2.6575866224861848E-002           7      177704           0
</event>
<event>
      5   9999  3.19816E-02  8.17178E+01 -1.00000E+00  1.27904E-01
      21    -1     0     0   502   511  0.000000000E+00  0.000000000E+00  4.527436393E+02  4.527436393E+02  0.000000000E+00  0.00000E+00  9.000E+00
      21    -1     0     0   501   502  0.000000000E+00  0.000000000E+00 -2.272818451E+02  2.272818451E+02  0.000000000E+00  0.00000E+00  9.000E+00
      25     1     1     2     0     0 -1.939078895E+00  1.978445402E+02 -6.722485290E+01  2.434962073E+02  1.250000000E+02  0.00000E+00  9.000E+00
      25     1     1     2     0     0  8.290277213E+01 -1.867685593E+02  1.929291226E+02  3.075743987E+02  1.250000000E+02  0.00000E+00  9.000E+00
      21     1     1     2   501   511 -8.096369323E+01 -1.107598090E+01  9.975752454E+01  1.289548785E+02  1.348699152E-06  0.00000E+00  9.000E+00
#rwgt            1           1   2.5185858050988923E-002           7      177850           0
</event>
<event>
      5   9999  3.19816E-02  2.25028E+01 -1.00000E+00  1.62252E-01
      21    -1     0     0   512   501  0.000000000E+00  0.000000000E+00  4.727351224E+02  4.727351224E+02  0.000000000E+00  0.00000E+00  9.000E+00
      21    -1     0     0   501   502  0.000000000E+00  0.000000000E+00 -8.055291878E+02  8.055291878E+02  0.000000000E+00  0.00000E+00  9.000E+00
      25     1     1     2     0     0  1.185809451E+02  9.402888107E+01 -2.075301247E+01  1.973792252E+02  1.250000000E+02  0.00000E+00  9.000E+00
      25     1     1     2     0     0 -1.047803813E+02 -1.118030268E+02 -6.820777984E+02  7.101647472E+02  1.250000000E+02  0.00000E+00  9.000E+00
      21     1     1     2   512   502 -1.380056384E+01  1.777414573E+01  3.700367455E+02  3.707203378E+02  0.000000000E+00  0.00000E+00  9.000E+00
#rwgt            1           1   2.8722592926522142E-002           7      177928           0
</event>
<event>
      5   9999  3.19816E-02  8.57154E+02 -1.00000E+00  9.26274E-02
      21    -1     0     0   502   501  0.000000000E+00  0.000000000E+00  1.038883925E+03  1.038883925E+03  0.000000000E+00  0.00000E+00  9.000E+00
      21    -1     0     0   501   511  0.000000000E+00  0.000000000E+00 -8.326748245E+02  8.326748245E+02  0.000000000E+00  0.00000E+00  9.000E+00
      25     1     1     2     0     0 -2.019809733E+02 -6.542390395E+02 -2.264157866E+01  6.963926159E+02  1.250000000E+02  0.00000E+00  9.000E+00
      25     1     1     2     0     0 -1.008491607E+02 -1.476379792E+02  2.313803519E+02  3.180084800E+02  1.250000000E+02  0.00000E+00  9.000E+00
      21     1     1     2   502   511  3.028301340E+02  8.018770187E+02 -2.529673125E+00  8.571576532E+02  2.978741750E-06  0.00000E+00  9.000E+00
#rwgt            2          11   2.3005212285015079E-003           7      178044           0
</event>
<event>
      5   9999  3.19816E-02  2.74856E+01 -1.00000E+00  1.55728E-01
      21    -1     0     0   502   501  0.000000000E+00  0.000000000E+00  6.612794695E+01  6.612794695E+01  0.000000000E+00  0.00000E+00  9.000E+00
      21    -1     0     0   501   512  0.000000000E+00  0.000000000E+00 -1.196058851E+03  1.196058851E+03  0.000000000E+00  0.00000E+00  9.000E+00
      25     1     1     2     0     0  1.938195219E+02  3.874814050E+01 -3.001831368E+02  3.805290279E+02  1.250000000E+02  0.00000E+00  9.000E+00
      25     1     1     2     0     0 -2.182759209E+02 -2.620443261E+01 -6.121652151E+02  6.623460580E+02  1.250000000E+02  0.00000E+00  9.000E+00
      21     1     1     2   502   512  2.445639899E+01 -1.254370789E+01 -2.175825518E+02  2.193117118E+02  2.697398305E-06  0.00000E+00  9.000E+00
#rwgt            1           1   2.8642038881507178E-002           7      178064           0
</event>
<event>
      5   9999  3.19816E-02  2.85946E+01 -1.00000E+00  1.54501E-01
      21    -1     0     0   511   501  0.000000000E+00  0.000000000E+00  7.509665570E+02  7.509665570E+02  0.000000000E+00  0.00000E+00  9.000E+00
      21    -1     0     0   501   502  0.000000000E+00  0.000000000E+00 -8.009810679E+01  8.009810679E+01  0.000000000E+00  0.00000E+00  9.000E+00
      25     1     1     2     0     0  4.569120833E+01 -1.817410748E+02  1.937371216E+02  2.971137443E+02  1.250000000E+02  0.00000E+00  9.000E+00
      25     1     1     2     0     0 -2.852166384E+01  1.588750100E+02  3.648452405E+02  4.180810969E+02  1.250000000E+02  0.00000E+00  9.000E+00
      21     1     1     2   511   502 -1.716954448E+01  2.286606484E+01  1.122860882E+02  1.158698225E+02  1.348699152E-06  0.00000E+00  9.000E+00
#rwgt            1           1   2.5692800925051829E-002           7      178248           0
</event>
<event>
      5   9999  3.19816E-02  2.00899E+02 -1.00000E+00  1.11577E-01
      21    -1     0     0   512   501  0.000000000E+00  0.000000000E+00  4.978535386E+02  4.978535386E+02  0.000000000E+00  0.00000E+00  9.000E+00
      21    -1     0     0   501   502  0.000000000E+00  0.000000000E+00 -3.239230290E+02  3.239230290E+02  0.000000000E+00  0.00000E+00  9.000E+00
      25     1     1     2     0     0  2.491177930E+01 -1.517152745E+02  1.979315025E+02  2.800714212E+02  1.250000000E+02  0.00000E+00  9.000E+00
      25     1     1     2     0     0  1.723105330E+02  1.899746442E+02 -1.311515136E+02  3.140175230E+02  1.250000000E+02  0.00000E+00  9.000E+00
      21     1     1     2   512   502 -1.972223123E+02 -3.825936969E+01  1.071505207E+02  2.276876235E+02  4.264961200E-06  0.00000E+00  9.000E+00
#rwgt            1           1   2.6393288693177960E-002           7      178334           0
</event>
<event>
      5   9999  3.19816E-02  1.54852E+02 -1.00000E+00  1.15848E-01
      21    -1     0     0   502   511  0.000000000E+00  0.000000000E+00  1.654526887E+03  1.654526887E+03  0.000000000E+00  0.00000E+00  9.000E+00
      21    -1     0     0   501   502  0.000000000E+00  0.000000000E+00 -9.105014990E+02  9.105014990E+02  0.000000000E+00  0.00000E+00  9.000E+00
      25     1     1     2     0     0 -1.106737927E+03 -3.235130358E+01  6.618008579E+02  1.295963280E+03  1.250000000E+02  0.00000E+00  9.000E+00
      25     1     1     2     0     0  1.054483471E+03  1.781206609E+02 -3.113906566E+01  1.077152265E+03  1.250000000E+02  0.00000E+00  9.000E+00
      21     1     1     2   501   511  5.225445626E+01 -1.457693573E+02  1.133635959E+02  1.919128412E+02  2.697398305E-06  0.00000E+00  9.000E+00
#rwgt            1           1   2.4089638406116210E-002           7      178395           0
</event>
<event>
      5   9999  3.19816E-02  2.29093E+01 -1.00000E+00  1.61645E-01
      21    -1     0     0   502   501  0.000000000E+00  0.000000000E+00  4.159762587E+02  4.159762587E+02  0.000000000E+00  0.00000E+00  9.000E+00
      21    -1     0     0   512   502  0.000000000E+00  0.000000000E+00 -5.077119422E+02  5.077119422E+02  0.000000000E+00  0.00000E+00  9.000E+00
      25     1     1     2     0     0 -1.373545588E+02 -1.612891824E+02  3.392902911E+02  4.190744287E+02  1.250000000E+02  0.00000E+00  9.000E+00
      25     1     1     2     0     0  1.152780552E+02  1.674100082E+02 -3.804415477E+02  4.490834132E+02  1.250000000E+02  0.00000E+00  9.000E+00
      21     1     1     2   512   501  2.207650359E+01 -6.120825729E+00 -5.058442687E+01  5.553035891E+01  6.743495762E-07  0.00000E+00  9.000E+00
#rwgt            1           1   2.8358392718506372E-002           7      178499           0
</event>
<event>
      5   9999  3.19816E-02  7.08837E+01 -1.00000E+00  1.30945E-01
      21    -1     0     0   502   501  0.000000000E+00  0.000000000E+00  1.660394581E+03  1.660394581E+03  0.000000000E+00  0.00000E+00  9.000E+00
      21    -1     0     0   511   502  0.000000000E+00  0.000000000E+00 -3.625293491E+02  3.625293491E+02  0.000000000E+00  0.00000E+00  9.000E+00
      25     1     1     2     0     0  4.278313467E+02  2.890597752E+02  1.236118794E+03  1.345440407E+03  1.250000000E+02  0.00000E+00  9.000E+00
      25     1     1     2     0     0 -4.584862300E+02 -3.529720284E+02  1.421132221E+01  5.921366714E+02  1.250000000E+02  0.00000E+00  9.000E+00
      21     1     1     2   511   501  3.065488337E+01  6.391225320E+01  4.753511615E+01  8.534685261E+01  9.536743164E-07  0.00000E+00  9.000E+00
#rwgt            1           1   3.1141490611800011E-002           7      178660           0
</event>
<event>
      5   9999  3.19816E-02  6.78402E+01 -1.00000E+00  1.31914E-01
      21    -1     0     0   502   512  0.000000000E+00  0.000000000E+00  1.644427232E+03  1.644427232E+03  0.000000000E+00  0.00000E+00  9.000E+00
      21    -1     0     0   501   502  0.000000000E+00  0.000000000E+00 -1.483520793E+02  1.483520793E+02  0.000000000E+00  0.00000E+00  9.000E+00
      25     1     1     2     0     0 -2.155219554E+01 -5.926535646E+01 -1.032255109E+02  1.739465024E+02  1.250000000E+02  0.00000E+00  9.000E+00
      25     1     1     2     0     0  4.321635428E+01  1.235534746E+02  1.246148368E+03  1.259223519E+03  1.250000000E+02  0.00000E+00  9.000E+00
      21     1     1     2   501   512 -2.166415874E+01 -6.428811817E+01  3.531522956E+02  3.596092905E+02  5.394796609E-06  0.00000E+00  9.000E+00
#rwgt            1           1   2.9168183820237396E-002           7      178740           0
</event>
<event>
      5   9999  3.19816E-02  1.10084E+02 -1.00000E+00  1.21980E-01
      21    -1     0     0   502   501  0.000000000E+00  0.000000000E+00  1.929760168E+02  1.929760168E+02  0.000000000E+00  0.00000E+00  9.000E+00
       2    -1     0     0   501     0  0.000000000E+00  0.000000000E+00 -2.800319595E+03  2.800319595E+03  0.000000000E+00  0.00000E+00  9.000E+00
      25     1     1     2     0     0  4.113667855E+01  2.995063549E+02 -6.712862727E+01  3.339573858E+02  1.250000000E+02  0.00000E+00  9.000E+00
      25     1     1     2     0     0  6.860728497E+01 -3.081470082E+02 -4.377631065E+02  5.540063859E+02  1.250000000E+02  0.00000E+00  9.000E+00
       2     1     1     2   502     0 -1.097439635E+02  8.640653260E+00 -2.102451844E+03  2.105331840E+03  4.315837288E-05  0.00000E+00  9.000E+00
#rwgt            2          13   1.9645187117004379E-003           7      178977           0
</event>
<event>
      5   9999  3.19816E-02  1.40021E+01 -1.00000E+00  1.80247E-01
      21    -1     0     0   511   501  0.000000000E+00  0.000000000E+00  1.035199576E+02  1.035199576E+02  0.000000000E+00  0.00000E+00  9.000E+00
      21    -1     0     0   501   502  0.000000000E+00  0.000000000E+00 -1.061368720E+03  1.061368720E+03  0.000000000E+00  0.00000E+00  9.000E+00
      25     1     1     2     0     0 -1.354528876E+02 -2.365334553E+02 -6.676266374E+02  7.318783282E+02  1.250000000E+02  0.00000E+00  9.000E+00
      25     1     1     2     0     0  1.488721737E+02  2.325355970E+02 -2.892755907E+02  4.189762467E+02  1.250000000E+02  0.00000E+00  9.000E+00
      21     1     1     2   511   502 -1.341928608E+01  3.997858312E+00 -9.465342031E-01  1.403410264E+01  2.661432490E-07  0.00000E+00  9.000E+00
#rwgt            1           1   3.3153483231870930E-002           7      179011           0
</event>
<event>
      5   9999  3.19816E-02  1.50824E+02 -1.00000E+00  1.16299E-01
      21    -1     0     0   502   501  0.000000000E+00  0.000000000E+00  5.506846391E+02  5.506846391E+02  0.000000000E+00  0.00000E+00  9.000E+00
      21    -1     0     0   512   502  0.000000000E+00  0.000000000E+00 -7.948112023E+02  7.948112023E+02  0.000000000E+00  0.00000E+00  9.000E+00
      25     1     1     2     0     0 -3.654990668E+02 -2.185828642E+02 -1.258882400E+01  4.440174713E+02  1.250000000E+02  0.00000E+00  9.000E+00
      25     1     1     2     0     0  4.962408793E+02  1.433874191E+02  9.676503941E+01  5.401883330E+02  1.250000000E+02  0.00000E+00  9.000E+00
      21     1     1     2   512   501 -1.307418125E+02  7.519544512E+01 -3.283027786E+02  3.612900371E+02  0.000000000E+00  0.00000E+00  9.000E+00
#rwgt            1           1   2.4598429431161653E-002           7      179218           0
</event>
<event>
      5   9999  3.19816E-02  3.25385E+01 -1.00000E+00  1.50629E-01
      21    -1     0     0   511   501  0.000000000E+00  0.000000000E+00  2.042324212E+03  2.042324212E+03  0.000000000E+00  0.00000E+00  9.000E+00
      21    -1     0     0   501   502  0.000000000E+00  0.000000000E+00 -2.614726258E+02  2.614726258E+02  0.000000000E+00  0.00000E+00  9.000E+00
      25     1     1     2     0     0  3.101979019E+02  5.505889124E+02  1.262717316E+03  1.417551025E+03  1.250000000E+02  0.00000E+00  9.000E+00
      25     1     1     2     0     0 -2.800246711E+02 -5.627678951E+02  3.816238385E+02  7.459110364E+02  1.250000000E+02  0.00000E+00  9.000E+00
      21     1     1     2   511   502 -3.017323079E+01  1.217898268E+01  1.365104311E+02  1.403347757E+02  1.907348633E-06  0.00000E+00  9.000E+00
#rwgt            1           1   2.4650140566904465E-002           7      179345           0
</event>
<event>
      5   9999  3.19816E-02  9.76980E+01 -1.00000E+00  1.24285E-01
      21    -1     0     0   512   501  0.000000000E+00  0.000000000E+00  9.511216546E+02  9.511216546E+02  0.000000000E+00  0.00000E+00  9.000E+00
      21    -1     0     0   501   502  0.000000000E+00  0.000000000E+00 -6.764496898E+02  6.764496898E+02  0.000000000E+00  0.00000E+00  9.000E+00
      25     1     1     2     0     0 -3.100441384E+02 -3.015782512E+02  3.657763267E+01  4.517075742E+02  1.250000000E+02  0.00000E+00  9.000E+00
      25     1     1     2     0     0  3.944183407E+02  2.523248978E+02 -3.384459465E+02  5.911043396E+02  1.250000000E+02  0.00000E+00  9.000E+00
      21     1     1     2   512   502 -8.437420232E+01  4.925335341E+01  5.765402787E+02  5.847594307E+02  7.629394531E-06  0.00000E+00  9.000E+00
#rwgt            1           1   3.2134591571072367E-002           7      179632           0
</event>
<event>
      5   9999  3.19816E-02  2.25884E+01 -1.00000E+00  1.62123E-01
      21    -1     0     0   502   501  0.000000000E+00  0.000000000E+00  5.543633809E+02  5.543633809E+02  0.000000000E+00  0.00000E+00  9.000E+00
      21    -1     0     0   511   502  0.000000000E+00  0.000000000E+00 -1.162524307E+03  1.162524307E+03  0.000000000E+00  0.00000E+00  9.000E+00
      25     1     1     2     0     0 -4.115778955E+01 -4.473157437E+02  3.832971839E+02  6.035951204E+02  1.250000000E+02  0.00000E+00  9.000E+00
      25     1     1     2     0     0  2.903066785E+01  4.663727818E+02 -9.515328111E+02  1.067420274E+03  1.250000000E+02  0.00000E+00  9.000E+00
      21     1     1     2   511   501  1.212712170E+01 -1.905703812E+01 -3.992529896E+01  4.587229316E+01  0.000000000E+00  0.00000E+00  9.000E+00
#rwgt            1           1   3.4889780847808680E-002           7      179742           0
</event>
<event>
      5   9999  3.19816E-02  1.26306E+01 -1.00000E+00  1.84719E-01
      21    -1     0     0   502   501  0.000000000E+00  0.000000000E+00  2.097720586E+02  2.097720586E+02  0.000000000E+00  0.00000E+00  9.000E+00
      21    -1     0     0   501   512  0.000000000E+00  0.000000000E+00 -1.906832027E+02  1.906832027E+02  0.000000000E+00  0.00000E+00  9.000E+00
      25     1     1     2     0     0  1.066025838E+02  5.177473035E+01 -5.036249620E+01  1.794606213E+02  1.250000000E+02  0.00000E+00  9.000E+00
      25     1     1     2     0     0 -9.594336158E+01 -4.499872159E+01  9.718135442E+01  1.905235661E+02  1.250000000E+02  0.00000E+00  9.000E+00
      21     1     1     2   502   512 -1.065922222E+01 -6.776008757E+00 -2.773000235E+01  3.047107387E+01  3.371747881E-07  0.00000E+00  9.000E+00
#rwgt            1           1   3.3451186126061808E-002           7      179922           0
</event>
<event>
      5   9999  3.19816E-02  8.97505E+01 -1.00000E+00  1.25978E-01
      21    -1     0     0   502   501  0.000000000E+00  0.000000000E+00  3.758917101E+02  3.758917101E+02  0.000000000E+00  0.00000E+00  9.000E+00
      21    -1     0     0   511   502  0.000000000E+00  0.000000000E+00 -2.982186061E+02  2.982186061E+02  0.000000000E+00  0.00000E+00  9.000E+00
      25     1     1     2     0     0 -3.600221591E+01  1.068657087E+02  2.766214515E+02  3.238222764E+02  1.250000000E+02  0.00000E+00  9.000E+00
      25     1     1     2     0     0  1.239937371E+02 -8.918388636E+01 -1.216945953E+02  2.318680378E+02  1.250000000E+02  0.00000E+00  9.000E+00
      21     1     1     2   511   501 -8.799152122E+01 -1.768182230E+01 -7.725375213E+01  1.184200020E+02  1.907348633E-06  0.00000E+00  9.000E+00
#rwgt            1           1   3.1654438233948111E-002           7      180073           0
</event>
<event>
      5   9999  3.19816E-02  4.41548E+01 -1.00000E+00  1.42228E-01
      21    -1     0     0   502   512  0.000000000E+00  0.000000000E+00  3.745818836E+01  3.745818836E+01  0.000000000E+00  0.00000E+00  9.000E+00
      21    -1     0     0   501   502  0.000000000E+00  0.000000000E+00 -7.286173148E+02  7.286173148E+02  0.000000000E+00  0.00000E+00  9.000E+00
      25     1     1     2     0     0  7.468280514E+01 -1.692194264E+01 -3.602969266E+02  3.889765402E+02  1.250000000E+02  0.00000E+00  9.000E+00
      25     1     1     2     0     0 -5.146091661E+01 -2.063316389E+01 -2.528289127E+02  2.874394066E+02  1.250000000E+02  0.00000E+00  9.000E+00
      21     1     1     2   501   512 -2.322188853E+01  3.755510653E+01 -7.803328714E+01  8.965955630E+01  0.000000000E+00  0.00000E+00  9.000E+00
#rwgt            1           1   2.3625824743937849E-002           7      180234           0
</event>
<event>
      5   9999  3.19816E-02  2.88251E+02 -1.00000E+00  1.06159E-01
      21    -1     0     0   502   501  0.000000000E+00  0.000000000E+00  6.711113404E+02  6.711113404E+02  0.000000000E+00  0.00000E+00  9.000E+00
      21    -1     0     0   511   502  0.000000000E+00  0.000000000E+00 -9.307710987E+02  9.307710987E+02  0.000000000E+00  0.00000E+00  9.000E+00
      25     1     1     2     0     0 -9.426056228E+00  4.434384284E+02  4.941614189E+02  6.756826165E+02  1.250000000E+02  0.00000E+00  9.000E+00
      25     1     1     2     0     0  8.494613618E+01 -1.652566386E+02 -4.750988927E+02  5.252328631E+02  1.250000000E+02  0.00000E+00  9.000E+00
      21     1     1     2   511   501 -7.552007995E+01 -2.781817898E+02 -2.787222846E+02  4.009669595E+02  6.607249480E-06  0.00000E+00  9.000E+00
#rwgt            1           1   3.0910877993538245E-002           7      180346           0
</event>
<event>
      5   9999  3.19816E-02  3.19618E+01 -1.00000E+00  1.51153E-01
      21    -1     0     0   502   501  0.000000000E+00  0.000000000E+00  1.023434679E+03  1.023434679E+03  0.000000000E+00  0.00000E+00  9.000E+00
      21    -1     0     0   501   512  0.000000000E+00  0.000000000E+00 -9.674225449E+01  9.674225449E+01  0.000000000E+00  0.00000E+00  9.000E+00
      25     1     1     2     0     0 -1.938431511E+02  4.830710402E+01  1.380714052E+02  2.731253493E+02  1.250000000E+02  0.00000E+00  9.000E+00
      25     1     1     2     0     0  1.784154244E+02 -7.629895274E+01  7.807213179E+02  8.141279814E+02  1.250000000E+02  0.00000E+00  9.000E+00
      21     1     1     2   502   512  1.542772675E+01  2.799184872E+01  7.899701660E+00  3.292360299E+01  8.800520337E-07  0.00000E+00  9.000E+00
#rwgt            1           1   2.8523406512811322E-002           7      180501           0
</event>
<event>
      5   9999  3.19816E-02  5.42221E+01 -1.00000E+00  1.37096E-01
      21    -1     0     0   502   501  0.000000000E+00  0.000000000E+00  2.432968861E+03  2.432968861E+03  0.000000000E+00  0.00000E+00  9.000E+00
      21    -1     0     0   511   502  0.000000000E+00  0.000000000E+00 -3.324226556E+01  3.324226556E+01  0.000000000E+00  0.00000E+00  9.000E+00
      25     1     1     2     0     0  2.149192331E+02 -3.043185081E+01  7.932324431E+02  8.318407799E+02  1.250000000E+02  0.00000E+00  9.000E+00
      25     1     1     2     0     0 -1.966558552E+02 -2.062187361E+01  1.449997057E+03  1.468746150E+03  1.250000000E+02  0.00000E+00  9.000E+00
      21     1     1     2   511   501 -1.826337788E+01  5.105372441E+01  1.564970947E+02  1.656241963E+02  3.303624740E-06  0.00000E+00  9.000E+00
#rwgt            1           1   6.8384712513953144E-002           7      180597           0
</event>
<event>
      5   9999  3.19816E-02  1.10863E+01 -1.00000E+00  1.90719E-01
      21    -1     0     0   502   501  0.000000000E+00  0.000000000E+00  5.935689057E+02  5.935689057E+02  0.000000000E+00  0.00000E+00  9.000E+00
      21    -1     0     0   512   502  0.000000000E+00  0.000000000E+00 -1.602483408E+02  1.602483408E+02  0.000000000E+00  0.00000E+00  9.000E+00
      25     1     1     2     0     0  2.209186962E+02 -3.368746441E+01  4.218435948E+02  4.934743500E+02  1.250000000E+02  0.00000E+00  9.000E+00
      25     1     1     2     0     0 -2.118149266E+02  2.736079045E+01  5.026401604E+00  2.475165463E+02  1.250000000E+02  0.00000E+00  9.000E+00
      21     1     1     2   512   501 -9.103769648E+00  6.326673960E+00  6.450568497E+00  1.282635019E+01  1.460009660E-07  0.00000E+00  9.000E+00
#rwgt            1           1   2.7868560126019539E-002           7      180647           0
</event>
<event>
      5   9999  3.19816E-02  5.75788E+01 -1.00000E+00  1.35666E-01
      21    -1     0     0   502   501  0.000000000E+00  0.000000000E+00  2.034573026E+02  2.034573026E+02  0.000000000E+00  0.00000E+00  9.000E+00
      21    -1     0     0   511   502  0.000000000E+00  0.000000000E+00 -1.920279869E+03  1.920279869E+03  0.000000000E+00  0.00000E+00  9.000E+00
      25     1     1     2     0     0 -1.705090965E+02 -4.672160476E+02 -3.895791882E+02  6.440195114E+02  1.250000000E+02  0.00000E+00  9.000E+00
      25     1     1     2     0     0  2.280447069E+02  4.649871437E+02 -8.794575692E+02  1.028245130E+03  1.250000000E+02  0.00000E+00  9.000E+00
      21     1     1     2   511   501 -5.753561034E+01  2.228903838E+00 -4.477858092E+02  4.514725301E+02  5.394796609E-06  0.00000E+00  9.000E+00
#rwgt            2          11   1.5688561398448308E-003           7      180897           0
</event>
<event>
      5   9999  3.19816E-02  2.89655E+01 -1.00000E+00  1.54106E-01
      21    -1     0     0   502   501  0.000000000E+00  0.000000000E+00  3.249943378E+02  3.249943378E+02  0.000000000E+00  0.00000E+00  9.000E+00
      21    -1     0     0   501   512  0.000000000E+00  0.000000000E+00 -1.014834190E+03  1.014834190E+03  0.000000000E+00  0.00000E+00  9.000E+00
      25     1     1     2     0     0  2.218453698E+02 -3.358073704E+02  9.798511414E+01  4.326754450E+02  1.250000000E+02  0.00000E+00  9.000E+00
      25     1     1     2     0     0 -1.953280759E+02  3.474620851E+02 -7.057449120E+02  8.201120891E+02  1.250000000E+02  0.00000E+00  9.000E+00
      21     1     1     2   502   512 -2.651729396E+01 -1.165471476E+01 -8.208005407E+01  8.704099340E+01  0.000000000E+00  0.00000E+00  9.000E+00
#rwgt            1           1   3.0661082273125848E-002           7      180917           0
</event>
<event>
      5   9999  3.19816E-02  2.72397E+01 -1.00000E+00  1.56010E-01
      21    -1     0     0   502   501  0.000000000E+00  0.000000000E+00  8.942020627E+02  8.942020627E+02  0.000000000E+00  0.00000E+00  9.000E+00
      21    -1     0     0   511   502  0.000000000E+00  0.000000000E+00 -1.458799351E+02  1.458799351E+02  0.000000000E+00  0.00000E+00  9.000E+00
      25     1     1     2     0     0  1.106699729E+02 -1.622586432E+02  7.194588418E+02  7.561889547E+02  1.250000000E+02  0.00000E+00  9.000E+00
      25     1     1     2     0     0 -1.108219404E+02  1.894979430E+02  1.434341204E+01  2.530251101E+02  1.250000000E+02  0.00000E+00  9.000E+00
      21     1     1     2   511   501  1.519674572E-01 -2.723929985E+01  1.451987379E+01  3.086793296E+01  4.460403188E-07  0.00000E+00  9.000E+00
#rwgt            1           1   3.1652627745588691E-002           7      181055           0
</event>
<event>
      5   9999  3.19816E-02  3.32856E+01 -1.00000E+00  1.49970E-01
      21    -1     0     0   512   501  0.000000000E+00  0.000000000E+00  5.907205855E+02  5.907205855E+02  0.000000000E+00  0.00000E+00  9.000E+00
      21    -1     0     0   501   502  0.000000000E+00  0.000000000E+00 -4.126587378E+02  4.126587378E+02  0.000000000E+00  0.00000E+00  9.000E+00
      25     1     1     2     0     0  1.276346618E+02  2.345023561E+02 -2.856704614E+02  4.105052672E+02  1.250000000E+02  0.00000E+00  9.000E+00
      25     1     1     2     0     0 -1.033058224E+02 -2.117859273E+02  2.168690719E+02  3.437769135E+02  1.250000000E+02  0.00000E+00  9.000E+00
      21     1     1     2   512   502 -2.432883937E+01 -2.271642888E+01  2.468632372E+02  2.490971426E+02  0.000000000E+00  0.00000E+00  9.000E+00
#rwgt            1           1   2.9418257211609709E-002           7      181172           0
</event>
<event>
      5   9999  3.19816E-02  2.59939E+01 -1.00000E+00  1.57493E-01
      -3    -1     0     0     0   501  0.000000000E+00  0.000000000E+00  1.224267876E+03  1.224267876E+03  0.000000000E+00  0.00000E+00  9.000E+00
      21    -1     0     0   501   502  0.000000000E+00  0.000000000E+00 -3.757399178E+02  3.757399178E+02  0.000000000E+00  0.00000E+00  9.000E+00
      25     1     1     2     0     0  4.618845145E+02  4.103721193E+00  5.839443673E+02  7.549636875E+02  1.250000000E+02  0.00000E+00  9.000E+00
      25     1     1     2     0     0 -4.363173691E+02 -8.794678171E+00 -1.119976916E+02  4.675667608E+02  1.250000000E+02  0.00000E+00  9.000E+00
      -3     1     1     2     0   502 -2.556714546E+01  4.690956978E+00  3.765812830E+02  3.774773460E+02  5.394796609E-06  0.00000E+00  9.000E+00
#rwgt            1           1   3.0760152732281498E-002           7      181264           0
</event>
<event>
      5   9999  3.19816E-02  7.72375E+01 -1.00000E+00  1.29093E-01
       1    -1     0     0   502     0  0.000000000E+00  0.000000000E+00  2.397716940E+03  2.397716940E+03  0.000000000E+00  0.00000E+00  9.000E+00
      21    -1     0     0   501   502  0.000000000E+00  0.000000000E+00 -8.854615056E+01  8.854615056E+01  0.000000000E+00  0.00000E+00  9.000E+00
      25     1     1     2     0     0 -4.013495870E+01 -1.934009766E+02  1.271509976E+03  1.292817609E+03  1.250000000E+02  0.00000E+00  9.000E+00
      25     1     1     2     0     0 -3.575092818E+01  1.790147692E+02  8.398848335E+01  2.366505479E+02  1.250000000E+02  0.00000E+00  9.000E+00
       1     1     1     2   501     0  7.588588688E+01  1.438620733E+01  9.536723304E+02  9.567949334E+02  0.000000000E+00  0.00000E+00  9.000E+00
#rwgt            1           1   2.6740459635221734E-002           7      181513           0
</event>
<event>
      5   9999  3.19816E-02  1.67883E+01 -1.00000E+00  1.72896E-01
      21    -1     0     0   502   501  0.000000000E+00  0.000000000E+00  8.625015313E+01  8.625015313E+01  0.000000000E+00  0.00000E+00  9.000E+00
      21    -1     0     0   501   511  0.000000000E+00  0.000000000E+00 -8.253401146E+02  8.253401146E+02  0.000000000E+00  0.00000E+00  9.000E+00
      25     1     1     2     0     0 -8.351610066E+01  1.454053487E+02 -5.936454863E+02  6.294105321E+02  1.250000000E+02  0.00000E+00  9.000E+00
      25     1     1     2     0     0  9.004301605E+01 -1.299377375E+02 -8.375444232E+01  2.182461156E+02  1.250000000E+02  0.00000E+00  9.000E+00
      21     1     1     2   502   511 -6.526915395E+00 -1.546761119E+01 -6.169003289E+01  6.393362009E+01  9.536743164E-07  0.00000E+00  9.000E+00
#rwgt            1           1   1.6350398304591552E-002           7      181578           0
</event>
<event>
      5   9999  3.19816E-02  1.85945E+01 -1.00000E+00  1.69023E-01
      21    -1     0     0   512   501  0.000000000E+00  0.000000000E+00  1.015219427E+02  1.015219427E+02  0.000000000E+00  0.00000E+00  9.000E+00
      21    -1     0     0   501   502  0.000000000E+00  0.000000000E+00 -3.340210665E+02  3.340210665E+02  0.000000000E+00  0.00000E+00  9.000E+00
      25     1     1     2     0     0 -9.698126614E+01 -4.940273222E+01 -1.705525066E+02  2.378216841E+02  1.250000000E+02  0.00000E+00  9.000E+00
      25     1     1     2     0     0  9.185176172E+01  6.727567934E+01 -5.764595795E+01  1.786359976E+02  1.250000000E+02  0.00000E+00  9.000E+00
      21     1     1     2   512   502  5.129504421E+00 -1.787294713E+01 -4.300659285E+00  1.908532748E+01  3.371747881E-07  0.00000E+00  9.000E+00
#rwgt            1           1   2.4047998298562315E-002           7      181748           0
</event>
<event>
      5   9999  3.19816E-02  3.91988E+01 -1.00000E+00  1.45387E-01
      21    -1     0     0   502   511  0.000000000E+00  0.000000000E+00  1.243542239E+03  1.243542239E+03  0.000000000E+00  0.00000E+00  9.000E+00
      21    -1     0     0   501   502  0.000000000E+00  0.000000000E+00 -1.304418011E+02  1.304418011E+02  0.000000000E+00  0.00000E+00  9.000E+00
      25     1     1     2     0     0 -2.338906587E+02  8.769728824E+01  9.343540619E+02  9.752118578E+02  1.250000000E+02  0.00000E+00  9.000E+00
      25     1     1     2     0     0  2.619969120E+02 -6.037362468E+01  1.037114113E+02  3.141152866E+02  1.250000000E+02  0.00000E+00  9.000E+00
      21     1     1     2   501   511 -2.810625336E+01 -2.732366356E+01  7.503496451E+01  8.465689556E+01  0.000000000E+00  0.00000E+00  9.000E+00
#rwgt            1           1   3.5165639709455854E-002           7      181915           0
</event>
<event>
      5   9999  3.19816E-02  2.32883E+02 -1.00000E+00  1.09293E-01
      21    -1     0     0   502   501  0.000000000E+00  0.000000000E+00  1.793202654E+02  1.793202654E+02  0.000000000E+00  0.00000E+00  9.000E+00
       2    -1     0     0   501     0  0.000000000E+00  0.000000000E+00 -2.651822474E+03  2.651822474E+03  0.000000000E+00  0.00000E+00  9.000E+00
      25     1     1     2     0     0  1.291501348E+02  1.776333425E+02 -4.081270624E+01  2.559766370E+02  1.250000000E+02  0.00000E+00  9.000E+00
      25     1     1     2     0     0 -2.297177398E+02  3.241577454E+01 -1.986400399E+02  3.300058907E+02  1.250000000E+02  0.00000E+00  9.000E+00
       2     1     1     2   502     0  1.005676050E+02 -2.100491170E+02 -2.233049462E+03  2.245160211E+03  3.051757812E-05  0.00000E+00  9.000E+00
#rwgt            1           1   2.7801950821734114E-002           7      182055           0
</event>
<event>
      5   9999  3.19816E-02  1.86596E+01 -1.00000E+00  1.68894E-01
      21    -1     0     0   511   501  0.000000000E+00  0.000000000E+00  1.850057155E+03  1.850057155E+03  0.000000000E+00  0.00000E+00  9.000E+00
      21    -1     0     0   501   502  0.000000000E+00  0.000000000E+00 -1.209155236E+03  1.209155236E+03  0.000000000E+00  0.00000E+00  9.000E+00
      25     1     1     2     0     0  1.580066275E+02  1.260247051E+03 -4.712455897E+02  1.360472759E+03  1.250000000E+02  0.00000E+00  9.000E+00
      25     1     1     2     0     0 -1.703517666E+02 -1.246255028E+03  1.104384865E+03  1.678529788E+03  1.250000000E+02  0.00000E+00  9.000E+00
      21     1     1     2   511   502  1.234513907E+01 -1.399202290E+01  7.762643093E+00  2.020984392E+01  1.685873940E-07  0.00000E+00  9.000E+00
#rwgt            1           1   3.5019397470573296E-002           7      182109           0
</event>
<event>
      5   9999  3.19816E-02  1.03805E+02 -1.00000E+00  1.23103E-01
       2    -1     0     0   502     0  0.000000000E+00  0.000000000E+00  9.181034895E+02  9.181034895E+02  0.000000000E+00  0.00000E+00  9.000E+00
      21    -1     0     0   501   502  0.000000000E+00  0.000000000E+00 -1.473667481E+02  1.473667481E+02  0.000000000E+00  0.00000E+00  9.000E+00
      25     1     1     2     0     0  1.375557090E+02 -8.410384652E+01  3.315449256E+02  3.892840451E+02  1.250000000E+02  0.00000E+00  9.000E+00
      25     1     1     2     0     0 -1.187829309E+02  1.861970842E+02  3.178354954E+01  2.557614765E+02  1.250000000E+02  0.00000E+00  9.000E+00
       2     1     1     2   501     0 -1.877277818E+01 -1.020932377E+02  4.074082662E+02  4.204247159E+02  0.000000000E+00  0.00000E+00  9.000E+00
#rwgt            1           1   2.7623226985289521E-002           7      182386           0
</event>
<event>
      5   9999  3.19816E-02  3.45744E+01 -1.00000E+00  1.48879E-01
      21    -1     0     0   502   501  0.000000000E+00  0.000000000E+00  2.641982109E+03  2.641982109E+03  0.000000000E+00  0.00000E+00  9.000E+00
      21    -1     0     0   501   511  0.000000000E+00  0.000000000E+00 -7.199393330E+02  7.199393330E+02  0.000000000E+00  0.00000E+00  9.000E+00
      25     1     1     2     0     0  5.248589046E+02  8.568008547E+01 -5.045492425E+02  7.436483611E+02  1.250000000E+02  0.00000E+00  9.000E+00
      25     1     1     2     0     0 -4.993256155E+02 -6.236827906E+01  2.491420081E+03  2.544801543E+03  1.250000000E+02  0.00000E+00  9.000E+00
      21     1     1     2   502   511 -2.553328909E+01 -2.331180642E+01 -6.482806264E+01  7.347153786E+01  2.336015456E-06  0.00000E+00  9.000E+00
#rwgt            1           1   6.2655610058500399E-002           7      182429           0
</event>
<event>
      5   9999  3.19816E-02  5.41440E+02 -1.00000E+00  9.78794E-02
      21    -1     0     0   512   501  0.000000000E+00  0.000000000E+00  1.467683334E+03  1.467683334E+03  0.000000000E+00  0.00000E+00  9.000E+00
      21    -1     0     0   501   502  0.000000000E+00  0.000000000E+00 -2.761867652E+02  2.761867652E+02  0.000000000E+00  0.00000E+00  9.000E+00
      25     1     1     2     0     0  1.526667385E+02  3.339520736E+02  7.868188357E+01  3.957865073E+02  1.250000000E+02  0.00000E+00  9.000E+00
      25     1     1     2     0     0  3.273615302E+01  1.747552800E+02  3.656045787E+02  4.253266645E+02  1.250000000E+02  0.00000E+00  9.000E+00
      21     1     1     2   512   502 -1.854028915E+02 -5.087073537E+02  7.472101067E+02  9.227569276E+02  1.078959322E-05  0.00000E+00  9.000E+00
#rwgt            2          11   2.4500468861944668E-003           7      182680           0
</event>
<event>
      5   9999  3.19816E-02  3.45712E+02 -1.00000E+00  1.03629E-01
      21    -1     0     0   502   511  0.000000000E+00  0.000000000E+00  9.730392718E+02  9.730392718E+02  0.000000000E+00  0.00000E+00  9.000E+00
      21    -1     0     0   501   502  0.000000000E+00  0.000000000E+00 -5.380020470E+02  5.380020470E+02  0.000000000E+00  0.00000E+00  9.000E+00
      25     1     1     2     0     0  3.283350810E+02 -3.804648360E+02 -2.380437970E+02  5.699537403E+02  1.250000000E+02  0.00000E+00  9.000E+00
      25     1     1     2     0     0 -2.776810110E+02  3.848437468E+01  3.751045986E+02  4.846815974E+02  1.250000000E+02  0.00000E+00  9.000E+00
      21     1     1     2   501   511 -5.065407005E+01  3.419804613E+02  2.979764232E+02  4.564059810E+02  8.529922400E-06  0.00000E+00  9.000E+00
#rwgt            2          11   2.7903364477499981E-003           7      182970           0
</event>
<event>
      5   9999  3.30939E-02  2.67990E+01 -1.00000E+00  1.56523E-01
      21    -1     0     0   512   501  0.000000000E+00  0.000000000E+00  5.615831742E+01  5.615831742E+01  0.000000000E+00  0.00000E+00  9.000E+00
      21    -1     0     0   501   502  0.000000000E+00  0.000000000E+00 -1.892576916E+03  1.892576916E+03  0.000000000E+00  0.00000E+00  9.000E+00
      25     1     1     2     0     0  1.073457885E+02  4.773293916E+01 -1.556327184E+03  1.565752488E+03  1.250000000E+02  0.00000E+00  9.000E+00
      25     1     1     2     0     0 -1.278938908E+02 -3.052936074E+01 -2.993130089E+02  3.500030950E+02  1.250000000E+02  0.00000E+00  9.000E+00
      21     1     1     2   512   502  2.054810230E+01 -1.720357841E+01  1.922159433E+01  3.297964990E+01  8.920806376E-07  0.00000E+00  9.000E+00
#rwgt            1           1  0.10126722119697526                7      182990           0
</event>
<event>
      5   9999  3.19816E-02  1.15018E+02 -1.00000E+00  1.21155E-01
      21    -1     0     0   502   501  0.000000000E+00  0.000000000E+00  5.713909569E+02  5.713909569E+02  0.000000000E+00  0.00000E+00  9.000E+00
      -1    -1     0     0     0   502  0.000000000E+00  0.000000000E+00 -2.699637658E+02  2.699637658E+02  0.000000000E+00  0.00000E+00  9.000E+00
      25     1     1     2     0     0  2.031612260E+02  3.764746033E+01  4.044670275E+01  2.448525082E+02  1.250000000E+02  0.00000E+00  9.000E+00
      25     1     1     2     0     0 -3.136171662E+02 -6.972111110E+01  3.172145824E+02  4.684728931E+02  1.250000000E+02  0.00000E+00  9.000E+00
      -1     1     1     2     0   501  1.104559403E+02  3.207365076E+01 -5.623409398E+01  1.280293214E+02  1.784161275E-06  0.00000E+00  9.000E+00
#rwgt            1           1   2.7642521331075174E-002           7      183168           0
</event>
<event>
      5   9999  3.19816E-02  3.37616E+01 -1.00000E+00  1.49560E-01
      21    -1     0     0   502   511  0.000000000E+00  0.000000000E+00  1.072040192E+03  1.072040192E+03  0.000000000E+00  0.00000E+00  9.000E+00
      21    -1     0     0   501   502  0.000000000E+00  0.000000000E+00 -1.441392953E+02  1.441392953E+02  0.000000000E+00  0.00000E+00  9.000E+00
      25     1     1     2     0     0 -9.736231848E+01  2.538647805E+02  7.552388779E+01  3.086350684E+02  1.250000000E+02  0.00000E+00  9.000E+00
      25     1     1     2     0     0  7.986697979E+01 -2.249898580E+02  8.081863207E+02  8.519326849E+02  1.250000000E+02  0.00000E+00  9.000E+00
      21     1     1     2   501   511  1.749533869E+01 -2.887492251E+01  4.419068831E+01  5.561173400E+01  4.768371582E-07  0.00000E+00  9.000E+00
#rwgt            1           1   2.7763948997193651E-002           7      183226           0
</event>
<event>
      5   9999  3.19816E-02  2.56737E+02 -1.00000E+00  1.07837E-01
      21    -1     0     0   502   501  0.000000000E+00  0.000000000E+00  3.981408848E+02  3.981408848E+02  0.000000000E+00  0.00000E+00  9.000E+00
      21    -1     0     0   512   502  0.000000000E+00  0.000000000E+00 -1.003708136E+03  1.003708136E+03  0.000000000E+00  0.00000E+00  9.000E+00
      25     1     1     2     0     0 -7.325657758E+01  2.797064942E+02 -1.078925099E+02  3.329685312E+02  1.250000000E+02  0.00000E+00  9.000E+00
      25     1     1     2     0     0 -1.775273038E+02 -2.247409539E+02  1.684448916E+02  3.549973542E+02  1.250000000E+02  0.00000E+00  9.000E+00
      21     1     1     2   512   501  2.507838813E+02 -5.496554029E+01 -6.661196325E+02  7.138831351E+02  7.629394531E-06  0.00000E+00  9.000E+00
#rwgt            1           1   2.9209388789430819E-002           7      183391           0
</event>
<event>
      5   9999  3.19816E-02  2.19696E+01 -1.00000E+00  1.63072E-01
      21    -1     0     0   502   511  0.000000000E+00  0.000000000E+00  2.433329716E+02  2.433329716E+02  0.000000000E+00  0.00000E+00  9.000E+00
      21    -1     0     0   501   502  0.000000000E+00  0.000000000E+00 -1.369997197E+03  1.369997197E+03  0.000000000E+00  0.00000E+00  9.000E+00
      25     1     1     2     0     0  3.527980559E+01  2.965834080E+02  1.810399164E+01  3.242824958E+02  1.250000000E+02  0.00000E+00  9.000E+00
      25     1     1     2     0     0 -1.606659124E+01 -2.859289388E+02 -1.194492325E+03  1.234686360E+03  1.250000000E+02  0.00000E+00  9.000E+00
      21     1     1     2   501   511 -1.921321435E+01 -1.065446923E+01  4.972410838E+01  5.436131229E+01  1.907348633E-06  0.00000E+00  9.000E+00
#rwgt            1           1   1.7459038217391462E-002           7      183435           0
</event>
<event>
      5   9999  3.19816E-02  1.80895E+02 -1.00000E+00  1.13259E-01
      21    -1     0     0   502   501  0.000000000E+00  0.000000000E+00  4.616506979E+02  4.616506979E+02  0.000000000E+00  0.00000E+00  9.000E+00
       1    -1     0     0   501     0  0.000000000E+00  0.000000000E+00 -4.028240634E+02  4.028240634E+02  0.000000000E+00  0.00000E+00  9.000E+00
      25     1     1     2     0     0 -1.505897671E+02  1.973225168E+02 -1.136652929E+02  3.002636382E+02  1.250000000E+02  0.00000E+00  9.000E+00
      25     1     1     2     0     0  2.676238531E+01 -3.291927958E+02  1.426792299E+02  3.808759441E+02  1.250000000E+02  0.00000E+00  9.000E+00
       1     1     1     2   502     0  1.238273818E+02  1.318702790E+02  2.981269750E+01  1.833351791E+02  3.303624740E-06  0.00000E+00  9.000E+00
#rwgt            1           1   2.6979986127157275E-002           7      183613           0
</event>
<event>
      5   9999  3.19816E-02  5.47170E+01 -1.00000E+00  1.36878E-01
      21    -1     0     0   502   501  0.000000000E+00  0.000000000E+00  4.094746504E+02  4.094746504E+02  0.000000000E+00  0.00000E+00  9.000E+00
       2    -1     0     0   501     0  0.000000000E+00  0.000000000E+00 -7.297181180E+02  7.297181180E+02  0.000000000E+00  0.00000E+00  9.000E+00
      25     1     1     2     0     0 -3.094644600E+00 -3.474145212E+00 -6.289898448E+02  6.413071583E+02  1.250000000E+02  0.00000E+00  9.000E+00
      25     1     1     2     0     0  5.273986997E+01  2.648073359E+01  3.821213506E+02  4.063550784E+02  1.250000000E+02  0.00000E+00  9.000E+00
       2     1     1     2   502     0 -4.964522537E+01 -2.300658838E+01 -7.337497340E+01  9.153053169E+01  0.000000000E+00  0.00000E+00  9.000E+00
#rwgt            1           1   3.0978572413042520E-002           7      183644           0
</event>
<event>
      5   9999  3.19816E-02  4.48103E+01 -1.00000E+00  1.41846E-01
      21    -1     0     0   502   501  0.000000000E+00  0.000000000E+00  4.881249817E+02  4.881249817E+02  0.000000000E+00  0.00000E+00  9.000E+00
      21    -1     0     0   511   502  0.000000000E+00  0.000000000E+00 -4.107208250E+02  4.107208250E+02  0.000000000E+00  0.00000E+00  9.000E+00
      25     1     1     2     0     0  3.747734612E+02  1.293953951E+02  1.905667168E+02  4.573171646E+02  1.250000000E+02  0.00000E+00  9.000E+00
      25     1     1     2     0     0 -3.466907502E+02 -9.447663275E+01 -1.124059779E+02  3.967120042E+02  1.250000000E+02  0.00000E+00  9.000E+00
      21     1     1     2   511   501 -2.808271095E+01 -3.491876233E+01 -7.565822209E-01  4.481663791E+01  6.904562019E-07  0.00000E+00  9.000E+00
#rwgt            1           1   2.5004150064782172E-002           7      183737           0
</event>
<event>
      5   9999  3.19816E-02  1.97568E+02 -1.00000E+00  1.11842E-01
      21    -1     0     0   502   512  0.000000000E+00  0.000000000E+00  9.722485595E+02  9.722485595E+02  0.000000000E+00  0.00000E+00  9.000E+00
      21    -1     0     0   501   502  0.000000000E+00  0.000000000E+00 -3.130840848E+02  3.130840848E+02  0.000000000E+00  0.00000E+00  9.000E+00
      25     1     1     2     0     0 -3.199811061E+02  3.334870143E+02  5.929614631E+01  4.824339643E+02  1.250000000E+02  0.00000E+00  9.000E+00
      25     1     1     2     0     0  1.414820061E+02 -2.488031238E+02  4.772833660E+02  5.703898351E+02  1.250000000E+02  0.00000E+00  9.000E+00
      21     1     1     2   501   512  1.784990999E+02 -8.468389049E+01  1.225849623E+02  2.325088449E+02  2.336015456E-06  0.00000E+00  9.000E+00
#rwgt            2          11   3.9724332437922130E-003           7      183828           0
</event>
<event>
      5   9999  3.19816E-02  9.48990E+01 -1.00000E+00  1.24859E-01
      21    -1     0     0   511   501  0.000000000E+00  0.000000000E+00  6.761250470E+02  6.761250470E+02  0.000000000E+00  0.00000E+00  9.000E+00
      21    -1     0     0   501   502  0.000000000E+00  0.000000000E+00 -8.497231096E+01  8.497231096E+01  0.000000000E+00  0.00000E+00  9.000E+00
      25     1     1     2     0     0  3.134923852E+01  2.166044293E+01  2.497000788E+02  2.818281017E+02  1.250000000E+02  0.00000E+00  9.000E+00
      25     1     1     2     0     0 -1.057087506E+02 -8.062215626E+01  7.656004863E+01  1.978906594E+02  1.250000000E+02  0.00000E+00  9.000E+00
      21     1     1     2   511   502  7.435951209E+01  5.896171333E+01  2.648926086E+02  2.813785968E+02  0.000000000E+00  0.00000E+00  9.000E+00
#rwgt            1           1   3.7135516913851606E-002           7      183908           0
</event>
<event>
      5   9999  3.19816E-02  1.04641E+02 -1.00000E+00  1.22948E-01
      -2    -1     0     0     0   501  0.000000000E+00  0.000000000E+00  2.714583247E+02  2.714583247E+02  0.000000000E+00  0.00000E+00  9.000E+00
      21    -1     0     0   501   502  0.000000000E+00  0.000000000E+00 -1.146711279E+03  1.146711279E+03  0.000000000E+00  0.00000E+00  9.000E+00
      25     1     1     2     0     0 -7.703597431E+01 -8.734812264E+01 -1.067469911E+03  1.081055616E+03  1.250000000E+02  0.00000E+00  9.000E+00
      25     1     1     2     0     0  1.182478784E+02 -8.836161085E+00  1.183257218E+02  2.090134324E+02  1.250000000E+02  0.00000E+00  9.000E+00
      -2     1     1     2     0   502 -4.121190407E+01  9.618428373E+01  7.389123485E+01  1.281005545E+02  3.438521648E-06  0.00000E+00  9.000E+00
#rwgt            1           1   2.6063706256509174E-002           7      183938           0
</event>
<event>
      5   9999  3.19816E-02  1.21362E+01 -1.00000E+00  1.86514E-01
      21    -1     0     0   502   501  0.000000000E+00  0.000000000E+00  2.995913253E+02  2.995913253E+02  0.000000000E+00  0.00000E+00  9.000E+00
      21    -1     0     0   511   502  0.000000000E+00  0.000000000E+00 -3.401727336E+02  3.401727336E+02  0.000000000E+00  0.00000E+00  9.000E+00
      25     1     1     2     0     0  1.103978986E+02 -9.003934478E+01 -2.397358153E+02  3.056027499E+02  1.250000000E+02  0.00000E+00  9.000E+00
      25     1     1     2     0     0 -1.168966943E+02  1.002888553E+02  2.283906814E+02  3.025061900E+02  1.250000000E+02  0.00000E+00  9.000E+00
      21     1     1     2   511   501  6.498795703E+00 -1.024951057E+01 -2.923627444E+01  3.165511895E+01  3.371747881E-07  0.00000E+00  9.000E+00
#rwgt            1           1   2.7661098970164118E-002           7      183985           0
</event>
<event>
      5   9999  3.19816E-02  4.20820E+01 -1.00000E+00  1.43487E-01
      21    -1     0     0   502   512  0.000000000E+00  0.000000000E+00  1.308520504E+03  1.308520504E+03  0.000000000E+00  0.00000E+00  9.000E+00
      21    -1     0     0   501   502  0.000000000E+00  0.000000000E+00 -3.551760372E+02  3.551760372E+02  0.000000000E+00  0.00000E+00  9.000E+00
      25     1     1     2     0     0  8.029692292E+01 -1.070216692E+02 -2.260269022E+02  2.908855343E+02  1.250000000E+02  0.00000E+00  9.000E+00
      25     1     1     2     0     0 -9.337033566E+01  1.470214043E+02  2.292718319E+01  2.156014115E+02  1.250000000E+02  0.00000E+00  9.000E+00
      21     1     1     2   501   512  1.307341274E+01 -3.999973513E+01  1.156444186E+03  1.157209596E+03  0.000000000E+00  0.00000E+00  9.000E+00
#rwgt            1           1   2.4559771436715502E-002           7      184157           0
</event>
<event>
      5   9999  3.19816E-02  6.53803E+01 -1.00000E+00  1.32740E-01
      21    -1     0     0   511   501  0.000000000E+00  0.000000000E+00  1.995195300E+02  1.995195300E+02  0.000000000E+00  0.00000E+00  9.000E+00
      21    -1     0     0   501   502  0.000000000E+00  0.000000000E+00 -4.735160212E+02  4.735160212E+02  0.000000000E+00  0.00000E+00  9.000E+00
      25     1     1     2     0     0 -4.062198021E+01  1.968400223E+02 -1.918076962E+02  3.046495232E+02  1.250000000E+02  0.00000E+00  9.000E+00
      25     1     1     2     0     0  4.265425052E+01 -2.621886802E+02 -6.317546410E+01  3.002972333E+02  1.250000000E+02  0.00000E+00  9.000E+00
      21     1     1     2   511   502 -2.032270310E+00  6.534865788E+01 -1.901333087E+01  6.808879467E+01  1.430511475E-06  0.00000E+00  9.000E+00
#rwgt            1           1   2.4442401208030019E-002           7      184237           0
</event>
<event>
      5   9999  3.19816E-02  1.08789E+02 -1.00000E+00  1.22205E-01
       2    -1     0     0   502     0  0.000000000E+00  0.000000000E+00  2.584707221E+03  2.584707221E+03  0.000000000E+00  0.00000E+00  9.000E+00
      21    -1     0     0   501   502  0.000000000E+00  0.000000000E+00 -1.313290043E+02  1.313290043E+02  0.000000000E+00  0.00000E+00  9.000E+00
      25     1     1     2     0     0 -1.414221049E+02 -1.537484430E+02  6.654761413E+01  2.523734939E+02  1.250000000E+02  0.00000E+00  9.000E+00
      25     1     1     2     0     0  2.496132140E+02  1.423623460E+02  6.316144330E+02  7.050784255E+02  1.250000000E+02  0.00000E+00  9.000E+00
       2     1     1     2   501     0 -1.081911091E+02  1.138609701E+01  1.755216170E+03  1.758584306E+03  0.000000000E+00  0.00000E+00  9.000E+00
#rwgt            1           1   3.5424151483367319E-002           7      184331           0
</event>
<event>
      5   9999  3.19816E-02  3.86679E+01 -1.00000E+00  1.45758E-01
      21    -1     0     0   502   501  0.000000000E+00  0.000000000E+00  1.066677661E+03  1.066677661E+03  0.000000000E+00  0.00000E+00  9.000E+00
      21    -1     0     0   511   502  0.000000000E+00  0.000000000E+00 -4.985845279E+01  4.985845279E+01  0.000000000E+00  0.00000E+00  9.000E+00
      25     1     1     2     0     0 -4.436938554E+01 -1.737952982E+02  6.252137725E+02  6.623373079E+02  1.250000000E+02  0.00000E+00  9.000E+00
      25     1     1     2     0     0  2.308613250E+01  1.415117150E+02  3.415477058E+02  3.909454825E+02  1.250000000E+02  0.00000E+00  9.000E+00
      21     1     1     2   511   501  2.128325303E+01  3.228358320E+01  5.005773018E+01  6.325332366E+01  6.743495762E-07  0.00000E+00  9.000E+00
#rwgt            1           1   3.3202950162434394E-002           7      184469           0
</event>
<event>
      5   9999  3.19816E-02  5.79336E+01 -1.00000E+00  1.35522E-01
      21    -1     0     0   502   512  0.000000000E+00  0.000000000E+00  3.235720915E+02  3.235720915E+02  0.000000000E+00  0.00000E+00  9.000E+00
      21    -1     0     0   501   502  0.000000000E+00  0.000000000E+00 -5.096651798E+02  5.096651798E+02  0.000000000E+00  0.00000E+00  9.000E+00
      25     1     1     2     0     0  2.076277637E+01 -2.650355741E+02  7.196605310E-01  2.937694101E+02  1.250000000E+02  0.00000E+00  9.000E+00
      25     1     1     2     0     0 -2.745264132E+01  3.225816226E+02 -2.688781872E+02  4.390137017E+02  1.250000000E+02  0.00000E+00  9.000E+00
      21     1     1     2   501   512  6.689864955E+00 -5.754604850E+01  8.206543834E+01  1.004541595E+02  9.536743164E-07  0.00000E+00  9.000E+00
#rwgt            1           1   2.9074332367791975E-002           7      184549           0
</event>
<event>
      5   9999  3.19816E-02  1.62823E+01 -1.00000E+00  1.74092E-01
      21    -1     0     0   502   501  0.000000000E+00  0.000000000E+00  2.971620104E+02  2.971620104E+02  0.000000000E+00  0.00000E+00  9.000E+00
      21    -1     0     0   511   502  0.000000000E+00  0.000000000E+00 -3.087460466E+02  3.087460466E+02  0.000000000E+00  0.00000E+00  9.000E+00
      25     1     1     2     0     0 -5.770867530E+01  5.359784750E+01  2.388950350E+02  2.808894056E+02  1.250000000E+02  0.00000E+00  9.000E+00
      25     1     1     2     0     0  5.393433835E+01 -3.775900717E+01 -9.863375023E+01  1.723028501E+02  1.250000000E+02  0.00000E+00  9.000E+00
      21     1     1     2   511   501  3.774336946E+00 -1.583884033E+01 -1.518453209E+02  1.527158013E+02  1.907348633E-06  0.00000E+00  9.000E+00
#rwgt            1           1   2.7382667941521055E-002           7      184642           0
</event>
<event>
      5   9999  3.19816E-02  3.84481E+02 -1.00000E+00  1.02205E-01
      21    -1     0     0   502   512  0.000000000E+00  0.000000000E+00  4.359125847E+03  4.359125847E+03  0.000000000E+00  0.00000E+00  9.000E+00
      21    -1     0     0   501   502  0.000000000E+00  0.000000000E+00 -9.072322314E+01  9.072322314E+01  0.000000000E+00  0.00000E+00  9.000E+00
      25     1     1     2     0     0  3.476431455E+02  1.638378674E+02  7.883377181E+02  8.858893617E+02  1.250000000E+02  0.00000E+00  9.000E+00
      25     1     1     2     0     0 -1.794997017E+01 -3.616454059E+02  1.836228490E+03  1.875758425E+03  1.250000000E+02  0.00000E+00  9.000E+00
      21     1     1     2   501   512 -3.296931753E+02  1.978075385E+02  1.643836416E+03  1.688201284E+03  2.157918644E-05  0.00000E+00  9.000E+00
#rwgt            1           1   7.9357224122479378E-002           7      184787           0
</event>
<event>
      5   9999  3.19816E-02  3.89657E+01 -1.00000E+00  1.45549E-01
      21    -1     0     0   502   501  0.000000000E+00  0.000000000E+00  1.017148639E+03  1.017148639E+03  0.000000000E+00  0.00000E+00  9.000E+00
      21    -1     0     0   511   502  0.000000000E+00  0.000000000E+00 -3.391629570E+02  3.391629570E+02  0.000000000E+00  0.00000E+00  9.000E+00
      25     1     1     2     0     0 -1.571294181E+02 -1.433522603E+02 -2.450115512E+02  3.476998486E+02  1.250000000E+02  0.00000E+00  9.000E+00
      25     1     1     2     0     0  1.924328056E+02  1.598446856E+02  9.280966633E+02  9.693137390E+02  1.250000000E+02  0.00000E+00  9.000E+00
      21     1     1     2   511   501 -3.530338759E+01 -1.649242529E+01 -5.099430273E+00  3.929800830E+01  5.230286352E-07  0.00000E+00  9.000E+00
#rwgt            1           1   2.6843493362212246E-002           7      184850           0
</event>
<event>
      5   9999  3.19816E-02  1.55538E+02 -1.00000E+00  1.15773E-01
      21    -1     0     0   502   501  0.000000000E+00  0.000000000E+00  5.902312659E+02  5.902312659E+02  0.000000000E+00  0.00000E+00  9.000E+00
      21    -1     0     0   512   502  0.000000000E+00  0.000000000E+00 -1.646138796E+03  1.646138796E+03  0.000000000E+00  0.00000E+00  9.000E+00
      25     1     1     2     0     0 -4.708349852E+01 -1.263748253E+02 -2.928931355E+02  3.458306538E+02  1.250000000E+02  0.00000E+00  9.000E+00
      25     1     1     2     0     0  4.694665748E+01  2.819127914E+02  5.155364530E+02  6.025625652E+02  1.250000000E+02  0.00000E+00  9.000E+00
      21     1     1     2   512   501  1.368410444E-01 -1.555379661E+02 -1.278550848E+03  1.287976843E+03  1.525878906E-05  0.00000E+00  9.000E+00
#rwgt            2          11   2.8290332295291564E-003           7      184989           0
</event>
<event>
      5   9999  3.19816E-02  4.09987E+01 -1.00000E+00  1.44179E-01
      21    -1     0     0   502   501  0.000000000E+00  0.000000000E+00  1.276982681E+03  1.276982681E+03  0.000000000E+00  0.00000E+00  9.000E+00
      21    -1     0     0   511   502  0.000000000E+00  0.000000000E+00 -1.265483440E+02  1.265483440E+02  0.000000000E+00  0.00000E+00  9.000E+00
      25     1     1     2     0     0  2.102206958E+02  2.116301885E+02  8.418880938E+02  9.018761778E+02  1.250000000E+02  0.00000E+00  9.000E+00
      25     1     1     2     0     0 -1.832387918E+02 -1.807615697E+02  3.440014091E+02  4.474518626E+02  1.250000000E+02  0.00000E+00  9.000E+00
      21     1     1     2   511   501 -2.698190393E+01 -3.086861873E+01 -3.545516580E+01  5.420298464E+01  1.719260824E-06  0.00000E+00  9.000E+00
#rwgt            1           1   2.6198475257456735E-002           7      185009           0
</event>
<event>
      5   9999  3.19816E-02  5.30790E+00 -1.00000E+00  2.34069E-01
      21    -1     0     0   512   501  0.000000000E+00  0.000000000E+00  2.547705296E+02  2.547705296E+02  0.000000000E+00  0.00000E+00  9.000E+00
      21    -1     0     0   501   502  0.000000000E+00  0.000000000E+00 -2.239960562E+02  2.239960562E+02  0.000000000E+00  0.00000E+00  9.000E+00
      25     1     1     2     0     0 -1.215564815E+02 -4.211417156E+01  1.673971416E+02  2.453495153E+02  1.250000000E+02  0.00000E+00  9.000E+00
      25     1     1     2     0     0  1.215825219E+02  3.680633606E+01 -1.404192602E+02  2.268911295E+02  1.250000000E+02  0.00000E+00  9.000E+00
      21     1     1     2   512   502 -2.604043025E-02  5.307835499E+00  3.796591962E+00  6.525941029E+00  5.960464478E-08  0.00000E+00  9.000E+00
#rwgt            1           1   2.3901578733321865E-002           7      185123           0
</event>
<event>
      5   9999  3.19816E-02  2.42347E+01 -1.00000E+00  1.59769E-01
      21    -1     0     0   502   501  0.000000000E+00  0.000000000E+00  1.103692516E+02  1.103692516E+02  0.000000000E+00  0.00000E+00  9.000E+00
      21    -1     0     0   511   502  0.000000000E+00  0.000000000E+00 -1.369563525E+03  1.369563525E+03  0.000000000E+00  0.00000E+00  9.000E+00
      25     1     1     2     0     0 -1.053222110E+02 -2.306535266E+02 -1.043531531E+03  1.081146092E+03  1.250000000E+02  0.00000E+00  9.000E+00
      25     1     1     2     0     0  1.290850911E+02  2.258945548E+02 -1.428755827E+02  3.220710213E+02  1.250000000E+02  0.00000E+00  9.000E+00
      21     1     1     2   511   501 -2.376288012E+01  4.758971869E+00 -7.278716007E+01  7.671566304E+01  1.348699152E-06  0.00000E+00  9.000E+00
#rwgt            1           1   2.9434144884258211E-002           7      185466           0
</event>
<event>
      5   9999  3.19816E-02  6.56444E+01 -1.00000E+00  1.32649E-01
      -5    -1     0     0     0   501  0.000000000E+00  0.000000000E+00  1.961217386E+02  1.961217386E+02  0.000000000E+00  0.00000E+00  9.000E+00
      21    -1     0     0   501   502  0.000000000E+00  0.000000000E+00 -1.202676925E+03  1.202676925E+03  0.000000000E+00  0.00000E+00  9.000E+00
      25     1     1     2     0     0  1.522619947E+00 -1.758148835E+02 -9.795938034E+02  1.003066404E+03  1.250000000E+02  0.00000E+00  9.000E+00
      25     1     1     2     0     0  6.188121184E+01  1.928192053E+02 -1.317996879E+02  2.720380268E+02  1.250000000E+02  0.00000E+00  9.000E+00
      -5     1     1     2     0   502 -6.340383179E+01 -1.700432181E+01  1.048383052E+02  1.236942322E+02  1.348699152E-06  0.00000E+00  9.000E+00
#rwgt            1           1   2.9780762390070777E-002           7      185608           0
</event>
<event>
      5   9999  3.19816E-02  4.39089E+01 -1.00000E+00  1.42373E-01
      21    -1     0     0   502   501  0.000000000E+00  0.000000000E+00  7.687045839E+02  7.687045839E+02  0.000000000E+00  0.00000E+00  9.000E+00
      21    -1     0     0   511   502  0.000000000E+00  0.000000000E+00 -1.718860353E+03  1.718860353E+03  0.000000000E+00  0.00000E+00  9.000E+00
      25     1     1     2     0     0  1.741947634E+02  6.858322940E+02  4.250718295E+02  8.348777224E+02  1.250000000E+02  0.00000E+00  9.000E+00
      25     1     1     2     0     0 -2.085758675E+02 -6.585205703E+02 -7.550610553E+02  1.030968201E+03  1.250000000E+02  0.00000E+00  9.000E+00
      21     1     1     2   511   501  3.438110407E+01 -2.731172374E+01 -6.201665432E+02  6.217190136E+02  0.000000000E+00  0.00000E+00  9.000E+00
#rwgt            1           1   2.8772150087926475E-002           7      185668           0
</event>
<event>
      5   9999  3.19816E-02  5.59520E+01 -1.00000E+00  1.36345E-01
      21    -1     0     0   502   501  0.000000000E+00  0.000000000E+00  5.571713981E+02  5.571713981E+02  0.000000000E+00  0.00000E+00  9.000E+00
      21    -1     0     0   512   502  0.000000000E+00  0.000000000E+00 -7.407735329E+02  7.407735329E+02  0.000000000E+00  0.00000E+00  9.000E+00
      25     1     1     2     0     0 -2.510591182E+02 -3.677371363E+02 -1.777079586E+02  4.954456588E+02  1.250000000E+02  0.00000E+00  9.000E+00
      25     1     1     2     0     0  1.957328504E+02  3.760813369E+02  2.720210360E+02  5.190076731E+02  1.250000000E+02  0.00000E+00  9.000E+00
      21     1     1     2   512   501  5.532626783E+01 -8.344200641E+00 -2.779152123E+02  2.834915992E+02  3.814697266E-06  0.00000E+00  9.000E+00
#rwgt            1           1   3.1979281334571855E-002           7      185789           0
</event>
<event>
      5   9999  3.19816E-02  3.76112E+01 -1.00000E+00  1.46518E-01
      21    -1     0     0   511   501  0.000000000E+00  0.000000000E+00  9.444720528E+01  9.444720528E+01  0.000000000E+00  0.00000E+00  9.000E+00
      21    -1     0     0   501   502  0.000000000E+00  0.000000000E+00 -4.554386109E+02  4.554386109E+02  0.000000000E+00  0.00000E+00  9.000E+00
      25     1     1     2     0     0  2.281310588E+01  1.152425612E+02 -6.617561151E+01  1.838627131E+02  1.250000000E+02  0.00000E+00  9.000E+00
      25     1     1     2     0     0 -5.856057418E+01 -1.035497114E+02 -2.717317176E+02  3.218928547E+02  1.250000000E+02  0.00000E+00  9.000E+00
      21     1     1     2   511   502  3.574746830E+01 -1.169284984E+01 -2.308407651E+01  4.413024831E+01  1.011524364E-06  0.00000E+00  9.000E+00
#rwgt            1           1   2.4547423547611677E-002           7      185885           0
</event>
<event>
      5   9999  3.19816E-02  1.07900E+02 -1.00000E+00  1.22361E-01
      21    -1     0     0   502   512  0.000000000E+00  0.000000000E+00  1.876863367E+03  1.876863367E+03  0.000000000E+00  0.00000E+00  9.000E+00
      21    -1     0     0   501   502  0.000000000E+00  0.000000000E+00 -2.590813583E+02  2.590813583E+02  0.000000000E+00  0.00000E+00  9.000E+00
      25     1     1     2     0     0 -2.256144241E+02  1.602091875E+02 -1.942734071E+01  3.042552772E+02  1.250000000E+02  0.00000E+00  9.000E+00
      25     1     1     2     0     0  2.714888196E+02 -2.578716177E+02  3.148496015E+02  5.049348690E+02  1.250000000E+02  0.00000E+00  9.000E+00
      21     1     1     2   501   512 -4.587439547E+01  9.766243020E+01  1.322359748E+03  1.326754580E+03  1.525878906E-05  0.00000E+00  9.000E+00
#rwgt            1           1   2.9919460495619239E-002           7      185973           0
</event>
<event>
      5   9999  3.19816E-02  4.69888E+01 -1.00000E+00  1.40632E-01
      21    -1     0     0   511   501  0.000000000E+00  0.000000000E+00  5.547015276E+01  5.547015276E+01  0.000000000E+00  0.00000E+00  9.000E+00
      21    -1     0     0   501   502  0.000000000E+00  0.000000000E+00 -1.454493143E+03  1.454493143E+03  0.000000000E+00  0.00000E+00  9.000E+00
      25     1     1     2     0     0 -1.859990831E+02 -3.674732315E+00 -1.112794933E+03  1.135141721E+03  1.250000000E+02  0.00000E+00  9.000E+00
      25     1     1     2     0     0  1.401757404E+02 -6.725897996E+00 -1.874533496E+02  2.654396997E+02  1.250000000E+02  0.00000E+00  9.000E+00
      21     1     1     2   511   502  4.582334266E+01  1.040063031E+01 -9.877470764E+01  1.093818756E+02  1.907348633E-06  0.00000E+00  9.000E+00
#rwgt            1           1   2.4772163287306016E-002           7      186031           0
</event>
<event>
      5   9999  3.19816E-02  5.19366E+01 -1.00000E+00  1.38140E-01
      21    -1     0     0   502   501  0.000000000E+00  0.000000000E+00  2.250549511E+03  2.250549511E+03  0.000000000E+00  0.00000E+00  9.000E+00
      21    -1     0     0   501   512  0.000000000E+00  0.000000000E+00 -5.250617501E+01  5.250617501E+01  0.000000000E+00  0.00000E+00  9.000E+00
      25     1     1     2     0     0  6.348692572E+01  1.724330080E+02  3.154477864E+02  3.858704937E+02  1.250000000E+02  0.00000E+00  9.000E+00
      25     1     1     2     0     0 -1.394985314E+01 -1.568287240E+02  1.837317077E+03  1.848282687E+03  1.250000000E+02  0.00000E+00  9.000E+00
      21     1     1     2   502   512 -4.953707259E+01 -1.560428393E+01  4.527847227E+01  6.890250568E+01  1.348699152E-06  0.00000E+00  9.000E+00
#rwgt            1           1   8.2424772401754304E-002           7      186113           0
</event>
<event>
      5   9999  3.19816E-02  4.67241E+01 -1.00000E+00  1.40776E-01
      21    -1     0     0   502   501  0.000000000E+00  0.000000000E+00  2.350824968E+02  2.350824968E+02  0.000000000E+00  0.00000E+00  9.000E+00
      21    -1     0     0   511   502  0.000000000E+00  0.000000000E+00 -4.183998431E+02  4.183998431E+02  0.000000000E+00  0.00000E+00  9.000E+00
      25     1     1     2     0     0  1.022753191E+02  7.020941091E+01 -2.652817433E+02  3.184164029E+02  1.250000000E+02  0.00000E+00  9.000E+00
      25     1     1     2     0     0 -1.336031867E+02 -3.554374578E+01  1.589866741E+02  2.449794519E+02  1.250000000E+02  0.00000E+00  9.000E+00
      21     1     1     2   511   501  3.132786753E+01 -3.466566513E+01 -7.702227708E+01  9.008648506E+01  1.348699152E-06  0.00000E+00  9.000E+00
#rwgt            1           1   3.3724296268697662E-002           7      186220           0
</event>
<event>
      5   9999  3.19816E-02  1.90300E+00 -1.00000E+00  3.73457E-01
      21    -1     0     0   512   501  0.000000000E+00  0.000000000E+00  6.022683693E+02  6.022683693E+02  0.000000000E+00  0.00000E+00  9.000E+00
      21    -1     0     0   501   502  0.000000000E+00  0.000000000E+00 -3.584792649E+02  3.584792649E+02  0.000000000E+00  0.00000E+00  9.000E+00
      25     1     1     2     0     0 -1.173653446E+02 -1.876472514E+02  5.220469367E+02  5.806411277E+02  1.250000000E+02  0.00000E+00  9.000E+00
      25     1     1     2     0     0  1.171735498E+02  1.895405633E+02 -2.787616227E+02  3.781379487E+02  1.250000000E+02  0.00000E+00  9.000E+00
      21     1     1     2   512   502  1.917947252E-01 -1.893311875E+00  5.037904985E-01  1.968557833E+00  7.450580597E-09  0.00000E+00  9.000E+00
#rwgt            1           1   2.6919697824620330E-002           7      186314           0
</event>
<event>
      5   9999  3.19816E-02  2.76007E+02 -1.00000E+00  1.06782E-01
      21    -1     0     0   502   501  0.000000000E+00  0.000000000E+00  3.244006726E+02  3.244006726E+02  0.000000000E+00  0.00000E+00  9.000E+00
      -1    -1     0     0     0   502  0.000000000E+00  0.000000000E+00 -1.558258080E+03  1.558258080E+03  0.000000000E+00  0.00000E+00  9.000E+00
      25     1     1     2     0     0 -1.607631661E+02  2.785025907E+02 -2.467693705E+02  4.241799274E+02  1.250000000E+02  0.00000E+00  9.000E+00
      25     1     1     2     0     0  1.698695866E+02 -2.646203835E+00  1.687652713E+02  2.701284799E+02  1.250000000E+02  0.00000E+00  9.000E+00
      -1     1     1     2     0   501 -9.106420449E+00 -2.758563869E+02 -1.155853308E+03  1.188350345E+03  1.525878906E-05  0.00000E+00  9.000E+00
#rwgt            2          10   1.1806074338182754E-004           7      187076           0
</event>
<event>
      5   9999  3.19816E-02  2.98371E+02 -1.00000E+00  1.05669E-01
       2    -1     0     0   502     0  0.000000000E+00  0.000000000E+00  9.087129617E+02  9.087129617E+02  0.000000000E+00  0.00000E+00  9.000E+00
      21    -1     0     0   501   502  0.000000000E+00  0.000000000E+00 -2.916540543E+02  2.916540543E+02  0.000000000E+00  0.00000E+00  9.000E+00
      25     1     1     2     0     0  1.250323627E+02  1.884197561E+02  1.127711030E+02  2.819173955E+02  1.250000000E+02  0.00000E+00  9.000E+00
      25     1     1     2     0     0 -2.510166268E+02  8.204862611E+01 -4.279489186E+01  2.952926121E+02  1.250000000E+02  0.00000E+00  9.000E+00
       2     1     1     2   501     0  1.259842641E+02 -2.704683822E+02  5.470826963E+02  6.231570084E+02  1.078959322E-05  0.00000E+00  9.000E+00
#rwgt            1           1   2.5795857683316329E-002           7      187095           0
</event>
<event>
      5   9999  3.19816E-02  4.24217E+01 -1.00000E+00  1.43275E-01
      21    -1     0     0   502   501  0.000000000E+00  0.000000000E+00  2.303293657E+02  2.303293657E+02  0.000000000E+00  0.00000E+00  9.000E+00
      21    -1     0     0   511   502  0.000000000E+00  0.000000000E+00 -2.031498382E+02  2.031498382E+02  0.000000000E+00  0.00000E+00  9.000E+00
      25     1     1     2     0     0  7.196928762E+01 -1.462246934E+02  6.082428178E+00  2.054829318E+02  1.250000000E+02  0.00000E+00  9.000E+00
      25     1     1     2     0     0 -7.492390469E+01  1.039060438E+02  3.686221883E+01  1.827399262E+02  1.250000000E+02  0.00000E+00  9.000E+00
      21     1     1     2   511   501  2.954617076E+00  4.231864957E+01 -1.576511944E+01  4.525634601E+01  9.684608465E-07  0.00000E+00  9.000E+00
#rwgt            1           1   2.7549430103813843E-002           7      187203           0
</event>
<event>
      5   9999  3.19816E-02  1.47129E+01 -1.00000E+00  1.78178E-01
      21    -1     0     0   502   501  0.000000000E+00  0.000000000E+00  7.344284815E+02  7.344284815E+02  0.000000000E+00  0.00000E+00  9.000E+00
      21    -1     0     0   501   512  0.000000000E+00  0.000000000E+00 -9.480737464E+01  9.480737464E+01  0.000000000E+00  0.00000E+00  9.000E+00
      25     1     1     2     0     0  6.248490426E+01  1.590080423E+02  2.273338259E+02  3.106341726E+02  1.250000000E+02  0.00000E+00  9.000E+00
      25     1     1     2     0     0 -5.626832051E+01 -1.723431309E+02  4.372805433E+02  4.895993793E+02  1.250000000E+02  0.00000E+00  9.000E+00
      21     1     1     2   502   512 -6.216583747E+00  1.333508861E+01 -2.499326222E+01  2.900230436E+01  3.371747881E-07  0.00000E+00  9.000E+00
#rwgt            1           1   2.6210304592501399E-002           7      187296           0
</event>
<event>
      5   9999  3.19816E-02  5.14348E+01 -1.00000E+00  1.38378E-01
      21    -1     0     0   502   511  0.000000000E+00  0.000000000E+00  5.035476464E+02  5.035476464E+02  0.000000000E+00  0.00000E+00  9.000E+00
      21    -1     0     0   501   502  0.000000000E+00  0.000000000E+00 -6.136578615E+02  6.136578615E+02  0.000000000E+00  0.00000E+00  9.000E+00
      25     1     1     2     0     0 -3.555619009E+02  2.919631416E+02 -3.267887423E+02  5.779988093E+02  1.250000000E+02  0.00000E+00  9.000E+00
      25     1     1     2     0     0  3.487454980E+02 -2.409819996E+02  1.875813204E+02  4.801119643E+02  1.250000000E+02  0.00000E+00  9.000E+00
      21     1     1     2   501   511  6.816402884E+00 -5.098114197E+01  2.909720675E+01  5.909473433E+01  4.768371582E-07  0.00000E+00  9.000E+00
#rwgt            1           1   2.9983099224109619E-002           7      187411           0
</event>
<event>
      5   9999  3.19816E-02  4.97567E+01 -1.00000E+00  1.39196E-01
      21    -1     0     0   502   501  0.000000000E+00  0.000000000E+00  9.467889284E+02  9.467889284E+02  0.000000000E+00  0.00000E+00  9.000E+00
      21    -1     0     0   501   512  0.000000000E+00  0.000000000E+00 -2.312940675E+02  2.312940675E+02  0.000000000E+00  0.00000E+00  9.000E+00
      25     1     1     2     0     0 -3.893775732E+01  2.993117118E+02  7.243492335E+02  7.946134040E+02  1.250000000E+02  0.00000E+00  9.000E+00
      25     1     1     2     0     0  8.858623073E+01 -2.960316714E+02 -2.741952483E+00  3.333388502E+02  1.250000000E+02  0.00000E+00  9.000E+00
      21     1     1     2   502   512 -4.964847342E+01 -3.280040452E+00 -6.112420170E+00  5.013074165E+01  5.717076687E-07  0.00000E+00  9.000E+00
#rwgt            1           1   2.5514311413059852E-002           7      187592           0
</event>
<event>
      5   9999  3.31205E-02  1.47378E+01 -1.00000E+00  1.78108E-01
      21    -1     0     0   502   501  0.000000000E+00  0.000000000E+00  2.331986471E+03  2.331986471E+03  0.000000000E+00  0.00000E+00  9.000E+00
      21    -1     0     0   511   502  0.000000000E+00  0.000000000E+00 -8.875193040E+01  8.875193040E+01  0.000000000E+00  0.00000E+00  9.000E+00
      25     1     1     2     0     0 -7.665657957E+01  3.785215310E+02  1.161338090E+03  1.230238164E+03  1.250000000E+02  0.00000E+00  9.000E+00
      25     1     1     2     0     0  8.474718743E+01 -3.908400615E+02  1.093958514E+03  1.171455620E+03  1.250000000E+02  0.00000E+00  9.000E+00
      21     1     1     2   511   501 -8.090607860E+00  1.231853049E+01 -1.206206257E+01  1.904461820E+01  1.092571186E-06  0.00000E+00  9.000E+00
#rwgt            1           1   9.1406941379311851E-002           7      187683           0
</event>
<event>
      5   9999  3.19816E-02  5.15970E+01 -1.00000E+00  1.38301E-01
      21    -1     0     0   502   501  0.000000000E+00  0.000000000E+00  8.650154111E+01  8.650154111E+01  0.000000000E+00  0.00000E+00  9.000E+00
      21    -1     0     0   512   502  0.000000000E+00  0.000000000E+00 -8.381899185E+02  8.381899185E+02  0.000000000E+00  0.00000E+00  9.000E+00
      25     1     1     2     0     0  1.006890096E+02  1.620113117E+02 -3.474051421E+02  4.155734286E+02  1.250000000E+02  0.00000E+00  9.000E+00
      25     1     1     2     0     0 -8.017183089E+01 -2.093536382E+02 -3.190066023E+02  4.094467983E+02  1.250000000E+02  0.00000E+00  9.000E+00
      21     1     1     2   512   501 -2.051717874E+01  4.734232656E+01 -8.527663298E+01  9.967123276E+01  9.536743164E-07  0.00000E+00  9.000E+00
#rwgt            1           1   2.6605208310481285E-002           7      187914           0
</event>
<event>
      5   9999  3.19816E-02  1.25918E+02 -1.00000E+00  1.19488E-01
       2    -1     0     0   502     0  0.000000000E+00  0.000000000E+00  3.248981093E+03  3.248981093E+03  0.000000000E+00  0.00000E+00  9.000E+00
      21    -1     0     0   501   502  0.000000000E+00  0.000000000E+00 -6.665654420E+01  6.665654420E+01  0.000000000E+00  0.00000E+00  9.000E+00
      25     1     1     2     0     0  1.964113086E+02 -7.806444664E+01  4.503201160E+02  5.129177973E+02  1.250000000E+02  0.00000E+00  9.000E+00
      25     1     1     2     0     0 -1.018671014E+02  1.612308513E+02  3.521197747E+02  4.195064118E+02  1.250000000E+02  0.00000E+00  9.000E+00
       2     1     1     2   501     0 -9.454420724E+01 -8.316640470E+01  2.379884658E+03  2.383213428E+03  4.315837288E-05  0.00000E+00  9.000E+00
#rwgt            1           1   2.8901495702970147E-002           7      187996           0
</event>
<event>
      5   9999  3.19816E-02  3.07244E+01 -1.00000E+00  1.52324E-01
      21    -1     0     0   502   511  0.000000000E+00  0.000000000E+00  5.433013125E+02  5.433013125E+02  0.000000000E+00  0.00000E+00  9.000E+00
      21    -1     0     0   501   502  0.000000000E+00  0.000000000E+00 -8.906413459E+02  8.906413459E+02  0.000000000E+00  0.00000E+00  9.000E+00
      25     1     1     2     0     0 -6.483965427E+01 -1.166180252E+02 -8.218181709E+02  8.419109517E+02  1.250000000E+02  0.00000E+00  9.000E+00
      25     1     1     2     0     0  9.512802592E+01  1.114599350E+02  1.013586131E+02  2.176493209E+02  1.250000000E+02  0.00000E+00  9.000E+00
      21     1     1     2   501   511 -3.028837165E+01  5.158090175E+00  3.731195244E+02  3.743823858E+02  5.394796609E-06  0.00000E+00  9.000E+00
#rwgt            1           1   2.7725798896264951E-002           7      188075           0
</event>
<event>
      5   9999  3.19816E-02  1.13722E+02 -1.00000E+00  1.21367E-01
      21    -1     0     0   512   501  0.000000000E+00  0.000000000E+00  1.446590582E+03  1.446590582E+03  0.000000000E+00  0.00000E+00  9.000E+00
      21    -1     0     0   501   502  0.000000000E+00  0.000000000E+00 -1.705088937E+02  1.705088937E+02  0.000000000E+00  0.00000E+00  9.000E+00
      25     1     1     2     0     0  2.097886152E+02 -9.282008420E+01  1.073859702E+03  1.105181655E+03  1.250000000E+02  0.00000E+00  9.000E+00
      25     1     1     2     0     0 -1.547868869E+02  1.923568327E+02 -3.604935933E+00  2.767636663E+02  1.250000000E+02  0.00000E+00  9.000E+00
      21     1     1     2   512   502 -5.500172828E+01 -9.953674850E+01  2.058269225E+02  2.351541546E+02  0.000000000E+00  0.00000E+00  9.000E+00
#rwgt            1           1   2.5946127986189546E-002           7      188207           0
</event>
<event>
      5   9999  3.19816E-02  1.91707E+02 -1.00000E+00  1.12322E-01
      -4    -1     0     0     0   501  0.000000000E+00  0.000000000E+00  1.588372101E+03  1.588372101E+03  0.000000000E+00  0.00000E+00  9.000E+00
      21    -1     0     0   501   502  0.000000000E+00  0.000000000E+00 -3.142218738E+03  3.142218738E+03  0.000000000E+00  0.00000E+00  9.000E+00
      25     1     1     2     0     0  8.801173198E+01 -3.068676407E+02 -1.283109496E+03  1.328122281E+03  1.250000000E+02  0.00000E+00  9.000E+00
      25     1     1     2     0     0  6.441924485E+01  1.906070401E+02 -1.823044579E+03  1.838368141E+03  1.250000000E+02  0.00000E+00  9.000E+00
      -4     1     1     2     0   502 -1.524309768E+02  1.162606005E+02  1.552307438E+03  1.564100417E+03  2.157918644E-05  0.00000E+00  9.000E+00
#rwgt            1           1   2.1853963882069515E-002           7      188261           0
</event>
<event>
      5   9999  3.19816E-02  1.40987E+02 -1.00000E+00  1.17470E-01
      21    -1     0     0   502   501  0.000000000E+00  0.000000000E+00  2.773312618E+02  2.773312618E+02  0.000000000E+00  0.00000E+00  9.000E+00
      21    -1     0     0   511   502  0.000000000E+00  0.000000000E+00 -2.639683385E+02  2.639683385E+02  0.000000000E+00  0.00000E+00  9.000E+00
      25     1     1     2     0     0  8.848982569E+01 -5.595961395E+01  1.059218162E+02  1.944385733E+02  1.250000000E+02  0.00000E+00  9.000E+00
      25     1     1     2     0     0 -1.490127769E+01 -6.429820483E+01  4.652676760E+01  1.488154808E+02  1.250000000E+02  0.00000E+00  9.000E+00
      21     1     1     2   511   501 -7.358854800E+01  1.202578188E+02 -1.390856606E+02  1.980455462E+02  1.907348633E-06  0.00000E+00  9.000E+00
#rwgt            1           1   1.1835226179487948E-002           7      188298           0
</event>
<event>
      5   9999  3.19816E-02  7.46778E+02 -1.00000E+00  9.41423E-02
       2    -1     0     0   502     0  0.000000000E+00  0.000000000E+00  1.065052278E+03  1.065052278E+03  0.000000000E+00  0.00000E+00  9.000E+00
      21    -1     0     0   501   502  0.000000000E+00  0.000000000E+00 -6.631489323E+02  6.631489323E+02  0.000000000E+00  0.00000E+00  9.000E+00
      25     1     1     2     0     0  1.216949825E+01  3.017455183E+01 -5.841588007E+01  1.417604152E+02  1.250000000E+02  0.00000E+00  9.000E+00
      25     1     1     2     0     0  6.377322660E+02 -3.980130396E+02  1.445794961E+02  7.756578198E+02  1.250000000E+02  0.00000E+00  9.000E+00
       2     1     1     2   501     0 -6.499017643E+02  3.678384877E+02  3.157397297E+02  8.107829754E+02  9.344061824E-06  0.00000E+00  9.000E+00
#rwgt            2          18   8.0405450211586582E-004           7      188359           0
</event>
<event>
      5   9999  3.19816E-02  3.78011E+01 -1.00000E+00  1.46380E-01
      21    -1     0     0   502   501  0.000000000E+00  0.000000000E+00  7.463853425E+02  7.463853425E+02  0.000000000E+00  0.00000E+00  9.000E+00
      21    -1     0     0   501   511  0.000000000E+00  0.000000000E+00 -1.201890407E+02  1.201890407E+02  0.000000000E+00  0.00000E+00  9.000E+00
      25     1     1     2     0     0 -6.744937497E+01  4.691809019E+01 -4.019653443E+01  1.548918550E+02  1.250000000E+02  0.00000E+00  9.000E+00
      25     1     1     2     0     0  6.491597105E+01 -9.201982294E+00  6.579889125E+02  6.729585193E+02  1.250000000E+02  0.00000E+00  9.000E+00
      21     1     1     2   502   511  2.533403927E+00 -3.771610789E+01  8.403923729E+00  3.872400888E+01  5.840038640E-07  0.00000E+00  9.000E+00
#rwgt            1           1   2.6313429085982672E-002           7      188378           0
</event>
<event>
      5   9999  3.19816E-02  8.08919E+01 -1.00000E+00  1.28117E-01
      21    -1     0     0   502   501  0.000000000E+00  0.000000000E+00  4.403443971E+02  4.403443971E+02  0.000000000E+00  0.00000E+00  9.000E+00
       2    -1     0     0   501     0  0.000000000E+00  0.000000000E+00 -4.076074082E+02  4.076074082E+02  0.000000000E+00  0.00000E+00  9.000E+00
      25     1     1     2     0     0 -2.835934697E+01  1.149500721E+02  5.716186421E+01  1.814118253E+02  1.250000000E+02  0.00000E+00  9.000E+00
      25     1     1     2     0     0 -5.008462896E+01 -9.520069223E+01  2.944922560E+02  3.375238224E+02  1.250000000E+02  0.00000E+00  9.000E+00
       2     1     1     2   502     0  7.844397593E+01 -1.974937984E+01 -3.189171313E+02  3.290161577E+02  3.814697266E-06  0.00000E+00  9.000E+00
#rwgt            1           1   2.5564537160336520E-002           7      188442           0
</event>
<event>
      5   9999  3.19816E-02  1.83591E+01 -1.00000E+00  1.69496E-01
      21    -1     0     0   502   501  0.000000000E+00  0.000000000E+00  1.546474007E+02  1.546474007E+02  0.000000000E+00  0.00000E+00  9.000E+00
      21    -1     0     0   501   511  0.000000000E+00  0.000000000E+00 -1.375585171E+03  1.375585171E+03  0.000000000E+00  0.00000E+00  9.000E+00
      25     1     1     2     0     0  7.033170128E+01 -1.284581508E+02 -8.377126303E+02  8.595554059E+02  1.250000000E+02  0.00000E+00  9.000E+00
      25     1     1     2     0     0 -8.293760537E+01  1.151109726E+02  8.127454575E+01  2.058148055E+02  1.250000000E+02  0.00000E+00  9.000E+00
      21     1     1     2   502   511  1.260590409E+01  1.334717824E+01 -4.644996860E+02  4.648623606E+02  0.000000000E+00  0.00000E+00  9.000E+00
#rwgt            1           1   2.7598802210803238E-002           7      188538           0
</event>
<event>
      5   9999  3.19816E-02  2.15477E+02 -1.00000E+00  1.10482E-01
      21    -1     0     0   512   501  0.000000000E+00  0.000000000E+00  2.716610625E+03  2.716610625E+03  0.000000000E+00  0.00000E+00  9.000E+00
      21    -1     0     0   501   502  0.000000000E+00  0.000000000E+00 -3.307579802E+02  3.307579802E+02  0.000000000E+00  0.00000E+00  9.000E+00
      25     1     1     2     0     0 -2.517576158E+02  1.356880515E+02  3.411592206E+02  4.623935101E+02  1.250000000E+02  0.00000E+00  9.000E+00
      25     1     1     2     0     0  1.581775197E+02 -3.297835937E+02 -1.237495133E+02  4.058525452E+02  1.250000000E+02  0.00000E+00  9.000E+00
      21     1     1     2   512   502  9.358009616E+01  1.940955423E+02  2.168442938E+03  2.179122550E+03  4.315837288E-05  0.00000E+00  9.000E+00
#rwgt            2          11   9.5488826548399946E-004           7      188752           0
</event>
<event>
      5   9999  3.19816E-02  1.64653E+01 -1.00000E+00  1.73653E-01
      21    -1     0     0   502   501  0.000000000E+00  0.000000000E+00  2.168888204E+03  2.168888204E+03  0.000000000E+00  0.00000E+00  9.000E+00
      21    -1     0     0   511   502  0.000000000E+00  0.000000000E+00 -3.049753278E+02  3.049753278E+02  0.000000000E+00  0.00000E+00  9.000E+00
      25     1     1     2     0     0  5.867066738E+02  3.090802425E+01  5.306944042E+02  8.015245335E+02  1.250000000E+02  0.00000E+00  9.000E+00
      25     1     1     2     0     0 -5.705203154E+02 -3.392596627E+01  1.445214565E+03  1.559139039E+03  1.250000000E+02  0.00000E+00  9.000E+00
      21     1     1     2   511   501 -1.618635836E+01  3.017942022E+00 -1.119960929E+02  1.131999602E+02  4.046097457E-06  0.00000E+00  9.000E+00
#rwgt            1           1   2.8605283594160237E-002           7      188772           0
</event>
<event>
      5   9999  3.19816E-02  4.59228E+01 -1.00000E+00  1.41217E-01
      21    -1     0     0   502   501  0.000000000E+00  0.000000000E+00  3.973524069E+02  3.973524069E+02  0.000000000E+00  0.00000E+00  9.000E+00
       2    -1     0     0   501     0  0.000000000E+00  0.000000000E+00 -5.785623355E+02  5.785623355E+02  0.000000000E+00  0.00000E+00  9.000E+00
      25     1     1     2     0     0  2.207757512E+01  3.358220635E+02 -3.885875293E+02  5.290455042E+02  1.250000000E+02  0.00000E+00  9.000E+00
      25     1     1     2     0     0  1.466067279E+01 -3.082684287E+02  2.201926844E+02  3.991919058E+02  1.250000000E+02  0.00000E+00  9.000E+00
       2     1     1     2   502     0 -3.673824791E+01 -2.755363480E+01 -1.281508369E+01  4.767733235E+01  8.596304120E-07  0.00000E+00  9.000E+00
#rwgt            1           1   2.9063923828794337E-002           7      188943           0
</event>
<event>
      5   9999  3.19816E-02  2.86034E+01 -1.00000E+00  1.54492E-01
      21    -1     0     0   502   501  0.000000000E+00  0.000000000E+00  7.847237029E+02  7.847237029E+02  0.000000000E+00  0.00000E+00  9.000E+00
      21    -1     0     0   501   511  0.000000000E+00  0.000000000E+00 -5.191315155E+02  5.191315155E+02  0.000000000E+00  0.00000E+00  9.000E+00
      25     1     1     2     0     0  3.052652355E+02  2.192332281E+02  5.891683578E+02  7.099256483E+02  1.250000000E+02  0.00000E+00  9.000E+00
      25     1     1     2     0     0 -2.767297093E+02 -2.212025601E+02 -1.289216431E+02  3.971847110E+02  1.250000000E+02  0.00000E+00  9.000E+00
      21     1     1     2   502   511 -2.853552624E+01  1.969332035E+00 -1.946545274E+02  1.967448590E+02  2.697398305E-06  0.00000E+00  9.000E+00
#rwgt            1           1   3.5566009817828800E-002           7      189044           0
</event>
<event>
      5   9999  3.19816E-02  6.67506E+01 -1.00000E+00  1.32275E-01
      21    -1     0     0   512   501  0.000000000E+00  0.000000000E+00  2.524638429E+02  2.524638429E+02  0.000000000E+00  0.00000E+00  9.000E+00
      21    -1     0     0   501   502  0.000000000E+00  0.000000000E+00 -1.308889443E+03  1.308889443E+03  0.000000000E+00  0.00000E+00  9.000E+00
      25     1     1     2     0     0  9.635896365E+01  1.196648550E+02  3.918832918E+01  2.019045630E+02  1.250000000E+02  0.00000E+00  9.000E+00
      25     1     1     2     0     0 -1.391581829E+02 -1.708885141E+02 -1.204976246E+03  1.231324749E+03  1.250000000E+02  0.00000E+00  9.000E+00
      21     1     1     2   512   502  4.279921927E+01  5.122365907E+01  1.093623166E+02  1.281239740E+02  2.697398305E-06  0.00000E+00  9.000E+00
#rwgt            1           1   3.1463578973426005E-002           7      189184           0
</event>
<event>
      5   9999  3.19816E-02  5.55806E+02 -1.00000E+00  9.75638E-02
      21    -1     0     0   502   501  0.000000000E+00  0.000000000E+00  1.241385493E+03  1.241385493E+03  0.000000000E+00  0.00000E+00  9.000E+00
      21    -1     0     0   511   502  0.000000000E+00  0.000000000E+00 -3.203390033E+02  3.203390033E+02  0.000000000E+00  0.00000E+00  9.000E+00
      25     1     1     2     0     0  3.200748758E+02 -8.956069866E+01  4.944858099E+02  6.087776778E+02  1.250000000E+02  0.00000E+00  9.000E+00
      25     1     1     2     0     0  2.347961538E+02  1.217905914E+02  1.903620451E+02  3.490342250E+02  1.250000000E+02  0.00000E+00  9.000E+00
      21     1     1     2   511   501 -5.548710297E+02 -3.222989272E+01  2.361986349E+02  6.039125936E+02  8.946258087E-06  0.00000E+00  9.000E+00
#rwgt            2          11   3.7847152491529892E-003           7      189465           0
</event>
<event>
      5   9999  3.19816E-02  6.28025E+01 -1.00000E+00  1.33652E-01
      21    -1     0     0   502   501  0.000000000E+00  0.000000000E+00  3.897407467E+02  3.897407467E+02  0.000000000E+00  0.00000E+00  9.000E+00
       2    -1     0     0   501     0  0.000000000E+00  0.000000000E+00 -2.066350622E+03  2.066350622E+03  0.000000000E+00  0.00000E+00  9.000E+00
      25     1     1     2     0     0 -1.837805270E+02 -1.094227288E+02 -4.175883863E+01  2.512317979E+02  1.250000000E+02  0.00000E+00  9.000E+00
      25     1     1     2     0     0  1.323278522E+02  1.454335207E+02  2.367703308E+02  3.321848266E+02  1.250000000E+02  0.00000E+00  9.000E+00
       2     1     1     2   502     0  5.145267472E+01 -3.601079194E+01 -1.871621367E+03  1.872674744E+03  0.000000000E+00  0.00000E+00  9.000E+00
#rwgt            1           1   2.9559635023649566E-002           7      189485           0
</event>
<event>
      5   9999  3.19816E-02  1.26137E+01 -1.00000E+00  1.84779E-01
      21    -1     0     0   502   511  0.000000000E+00  0.000000000E+00  6.710528698E+02  6.710528698E+02  0.000000000E+00  0.00000E+00  9.000E+00
      21    -1     0     0   501   502  0.000000000E+00  0.000000000E+00 -2.397253521E+03  2.397253521E+03  0.000000000E+00  0.00000E+00  9.000E+00
      25     1     1     2     0     0  1.030763408E+02  9.915343655E+02 -9.184625474E+02  1.361236049E+03  1.250000000E+02  0.00000E+00  9.000E+00
      25     1     1     2     0     0 -1.040060476E+02 -9.789550134E+02 -1.061423882E+03  1.453071173E+03  1.250000000E+02  0.00000E+00  9.000E+00
      21     1     1     2   501   511  9.297068030E-01 -1.257935215E+01  2.536857775E+02  2.539991696E+02  0.000000000E+00  0.00000E+00  9.000E+00
#rwgt            1           1   3.1836563279919607E-002           7      189604           0
</event>
<event>
      5   9999  3.19816E-02  2.43311E+01 -1.00000E+00  1.59638E-01
      21    -1     0     0   512   501  0.000000000E+00  0.000000000E+00  3.613423720E+02  3.613423720E+02  0.000000000E+00  0.00000E+00  9.000E+00
      21    -1     0     0   501   502  0.000000000E+00  0.000000000E+00 -1.852504473E+02  1.852504473E+02  0.000000000E+00  0.00000E+00  9.000E+00
      25     1     1     2     0     0  1.951285517E+02  1.965816879E+01  3.149940706E+01  2.346887469E+02  1.250000000E+02  0.00000E+00  9.000E+00
      25     1     1     2     0     0 -1.873291761E+02 -4.270538024E+01  7.982976350E+01  2.427215707E+02  1.250000000E+02  0.00000E+00  9.000E+00
      21     1     1     2   512   502 -7.799375564E+00  2.304721145E+01  6.476275417E+01  6.918250171E+01  9.536743164E-07  0.00000E+00  9.000E+00
#rwgt            1           1   2.6331805599207614E-002           7      189977           0
</event>
<event>
      5   9999  3.19816E-02  7.10236E+01 -1.00000E+00  1.30902E-01
      -2    -1     0     0     0   501  0.000000000E+00  0.000000000E+00  5.398090993E+02  5.398090993E+02  0.000000000E+00  0.00000E+00  9.000E+00
      21    -1     0     0   501   502  0.000000000E+00  0.000000000E+00 -1.428016790E+03  1.428016790E+03  0.000000000E+00  0.00000E+00  9.000E+00
      25     1     1     2     0     0  7.915416812E+01  2.173468326E+01 -1.360441197E+03  1.368635462E+03  1.250000000E+02  0.00000E+00  9.000E+00
      25     1     1     2     0     0 -1.456803252E+02  3.137390700E+00  9.292549629E+01  2.132902910E+02  1.250000000E+02  0.00000E+00  9.000E+00
      -2     1     1     2     0   502  6.652615704E+01 -2.487207396E+01  3.793080092E+02  3.859001367E+02  0.000000000E+00  0.00000E+00  9.000E+00
#rwgt            1           1   2.8555939251104639E-002           7      190113           0
</event>
<event>
      5   9999  3.19816E-02  2.61617E+01 -1.00000E+00  1.57287E-01
      21    -1     0     0   502   511  0.000000000E+00  0.000000000E+00  1.289427016E+02  1.289427016E+02  0.000000000E+00  0.00000E+00  9.000E+00
      21    -1     0     0   501   502  0.000000000E+00  0.000000000E+00 -1.422885068E+03  1.422885068E+03  0.000000000E+00  0.00000E+00  9.000E+00
      25     1     1     2     0     0  2.305216075E+02  7.077969646E+01 -1.182995915E+03  1.213776879E+03  1.250000000E+02  0.00000E+00  9.000E+00
      25     1     1     2     0     0 -2.465378645E+02 -9.146575961E+01 -1.117796876E+02  3.118759407E+02  1.250000000E+02  0.00000E+00  9.000E+00
      21     1     1     2   501   511  1.601625700E+01  2.068606315E+01  8.332366621E-01  2.617494948E+01  3.932608134E-07  0.00000E+00  9.000E+00
#rwgt            1           1   3.1189013092555840E-002           7      190252           0
</event>
<event>
      5   9999  3.19816E-02  2.64504E+02 -1.00000E+00  1.07400E-01
      21    -1     0     0   502   501  0.000000000E+00  0.000000000E+00  1.121086327E+03  1.121086327E+03  0.000000000E+00  0.00000E+00  9.000E+00
       3    -1     0     0   501     0  0.000000000E+00  0.000000000E+00 -1.294159217E+03  1.294159217E+03  0.000000000E+00  0.00000E+00  9.000E+00
      25     1     1     2     0     0 -2.730018486E+02 -1.017994404E+03 -4.614980960E+02  1.157345285E+03  1.250000000E+02  0.00000E+00  9.000E+00
      25     1     1     2     0     0  3.395816322E+01  9.047665729E+02  3.624471695E+02  9.832337764E+02  1.250000000E+02  0.00000E+00  9.000E+00
       3     1     1     2   502     0  2.390436854E+02  1.132278313E+02 -7.402196419E+01  2.746664823E+02  2.336015456E-06  0.00000E+00  9.000E+00
#rwgt            2          14   2.8809713887551763E-005           7      190499           0
</event>
<event>
      5   9999  3.19816E-02  3.44747E+01 -1.00000E+00  1.48961E-01
      21    -1     0     0   502   511  0.000000000E+00  0.000000000E+00  2.774783005E+02  2.774783005E+02  0.000000000E+00  0.00000E+00  9.000E+00
      21    -1     0     0   501   502  0.000000000E+00  0.000000000E+00 -2.256604415E+02  2.256604415E+02  0.000000000E+00  0.00000E+00  9.000E+00
      25     1     1     2     0     0 -1.916314071E+02 -4.836287616E+01 -3.948091352E+01  2.371609296E+02  1.250000000E+02  0.00000E+00  9.000E+00
      25     1     1     2     0     0  1.739262506E+02  1.878198270E+01  7.383140661E+01  2.273305526E+02  1.250000000E+02  0.00000E+00  9.000E+00
      21     1     1     2   501   511  1.770515650E+01  2.958089346E+01  1.746736586E+01  3.864725986E+01  7.152557373E-07  0.00000E+00  9.000E+00
#rwgt            1           1   2.1831735910428245E-002           7      190518           0
</event>
<event>
      5   9999  3.19816E-02  5.96451E+01 -1.00000E+00  1.34841E-01
      21    -1     0     0   502   501  0.000000000E+00  0.000000000E+00  2.707081198E+02  2.707081198E+02  0.000000000E+00  0.00000E+00  9.000E+00
      21    -1     0     0   512   502  0.000000000E+00  0.000000000E+00 -4.457116026E+02  4.457116026E+02  0.000000000E+00  0.00000E+00  9.000E+00
      25     1     1     2     0     0 -2.516365522E+02 -1.228785476E+02 -2.258342401E+02  3.808493086E+02  1.250000000E+02  0.00000E+00  9.000E+00
      25     1     1     2     0     0  1.932313462E+02  1.107801462E+02  8.202504475E+01  2.682605113E+02  1.250000000E+02  0.00000E+00  9.000E+00
      21     1     1     2   512   501  5.840520601E+01  1.209840140E+01 -3.119428745E+01  6.730990250E+01  4.768371582E-07  0.00000E+00  9.000E+00
#rwgt            1           1   3.1031725653221008E-002           7      190621           0
</event>
<event>
      5   9999  3.19816E-02  1.17899E+01 -1.00000E+00  1.87838E-01
      21    -1     0     0   511   501  0.000000000E+00  0.000000000E+00  9.498730847E+01  9.498730847E+01  0.000000000E+00  0.00000E+00  9.000E+00
      21    -1     0     0   501   502  0.000000000E+00  0.000000000E+00 -3.899977691E+02  3.899977691E+02  0.000000000E+00  0.00000E+00  9.000E+00
      25     1     1     2     0     0  7.777692642E+01  6.359672029E+01 -2.634026436E+01  1.625195454E+02  1.250000000E+02  0.00000E+00  9.000E+00
      25     1     1     2     0     0 -6.599349603E+01 -6.320576597E+01 -2.693197364E+02  3.106577389E+02  1.250000000E+02  0.00000E+00  9.000E+00
      21     1     1     2   511   502 -1.178343039E+01 -3.909543151E-01  6.495401356E-01  1.180779317E+01  1.311810081E-07  0.00000E+00  9.000E+00
#rwgt            1           1   2.6264834551324234E-002           7      190675           0
</event>
<event>
      5   9999  3.19816E-02  6.54880E+01 -1.00000E+00  1.32703E-01
      21    -1     0     0   502   501  0.000000000E+00  0.000000000E+00  6.358206986E+02  6.358206986E+02  0.000000000E+00  0.00000E+00  9.000E+00
      21    -1     0     0   512   502  0.000000000E+00  0.000000000E+00 -1.143411835E+03  1.143411835E+03  0.000000000E+00  0.00000E+00  9.000E+00
      25     1     1     2     0     0 -5.350179485E+02  4.034686900E+02  3.467232344E+01  6.825381741E+02  1.250000000E+02  0.00000E+00  9.000E+00
      25     1     1     2     0     0  6.002200170E+02 -4.095813036E+02 -2.223117698E+02  7.701093663E+02  1.250000000E+02  0.00000E+00  9.000E+00
      21     1     1     2   512   501 -6.520206843E+01  6.112613575E+00 -3.199516901E+02  3.265849932E+02  5.394796609E-06  0.00000E+00  9.000E+00
#rwgt            1           1   2.9861822600079121E-002           7      190881           0
</event>
<event>
      5   9999  3.19816E-02  5.81570E+01 -1.00000E+00  1.35431E-01
      21    -1     0     0   511   501  0.000000000E+00  0.000000000E+00  1.495653006E+02  1.495653006E+02  0.000000000E+00  0.00000E+00  9.000E+00
      21    -1     0     0   501   502  0.000000000E+00  0.000000000E+00 -5.277800181E+02  5.277800181E+02  0.000000000E+00  0.00000E+00  9.000E+00
      25     1     1     2     0     0  1.944250408E+02  3.639091353E+01 -2.609671023E+02  3.505056684E+02  1.250000000E+02  0.00000E+00  9.000E+00
      25     1     1     2     0     0 -1.383177441E+02 -5.169485183E+01 -1.628924968E+02  2.529093149E+02  1.250000000E+02  0.00000E+00  9.000E+00
      21     1     1     2   511   502 -5.610729674E+01  1.530393829E+01  4.564488161E+01  7.393033540E+01  9.536743164E-07  0.00000E+00  9.000E+00
#rwgt            1           1   2.7067468840489134E-002           7      191013           0
</event>
<event>
      5   9999  3.19816E-02  3.49037E+01 -1.00000E+00  1.48609E-01
      21    -1     0     0   502   501  0.000000000E+00  0.000000000E+00  4.991888157E+02  4.991888157E+02  0.000000000E+00  0.00000E+00  9.000E+00
      21    -1     0     0   501   512  0.000000000E+00  0.000000000E+00 -1.306517729E+02  1.306517729E+02  0.000000000E+00  0.00000E+00  9.000E+00
      25     1     1     2     0     0  1.845526420E+01  3.037049981E+01 -3.518600110E+01  1.346329035E+02  1.250000000E+02  0.00000E+00  9.000E+00
      25     1     1     2     0     0 -4.432998161E+01 -5.379621064E+01  4.289139528E+02  4.521629778E+02  1.250000000E+02  0.00000E+00  9.000E+00
      21     1     1     2   502   512  2.587471742E+01  2.342571084E+01 -2.519090890E+01  4.304470724E+01  8.259061849E-07  0.00000E+00  9.000E+00
#rwgt            1           1   2.7591101476889389E-002           7      191067           0
</event>
<event>
      5   9999  3.19816E-02  1.68943E+01 -1.00000E+00  1.72652E-01
      21    -1     0     0   511   501  0.000000000E+00  0.000000000E+00  5.064550812E+02  5.064550812E+02  0.000000000E+00  0.00000E+00  9.000E+00
      21    -1     0     0   501   502  0.000000000E+00  0.000000000E+00 -5.251427125E+02  5.251427125E+02  0.000000000E+00  0.00000E+00  9.000E+00
      25     1     1     2     0     0 -2.758079619E+02 -2.193028363E+02 -3.518119827E+02  5.133813758E+02  1.250000000E+02  0.00000E+00  9.000E+00
      25     1     1     2     0     0  2.746349919E+02  2.024492752E+02  2.695330716E+02  4.524192353E+02  1.250000000E+02  0.00000E+00  9.000E+00
      21     1     1     2   511   502  1.172969987E+00  1.685356107E+01  6.359127977E+01  6.579718263E+01  0.000000000E+00  0.00000E+00  9.000E+00
#rwgt            1           1   3.0968342016323380E-002           7      191219           0
</event>
<event>
      5   9999  3.19816E-02  4.91420E+01 -1.00000E+00  1.39506E-01
      -5    -1     0     0     0   501  0.000000000E+00  0.000000000E+00  4.766614771E+02  4.766614771E+02  0.000000000E+00  0.00000E+00  9.000E+00
      21    -1     0     0   501   502  0.000000000E+00  0.000000000E+00 -3.931284160E+02  3.931284160E+02  0.000000000E+00  0.00000E+00  9.000E+00
      25     1     1     2     0     0  2.628733454E+02  1.892240280E+02 -2.067617388E+02  4.040835868E+02  1.250000000E+02  0.00000E+00  9.000E+00
      25     1     1     2     0     0 -2.219170218E+02 -1.620668578E+02  1.976560175E+02  3.608403140E+02  1.250000000E+02  0.00000E+00  9.000E+00
      -5     1     1     2     0   502 -4.095632361E+01 -2.715717023E+01  9.263878244E+01  1.048659923E+02  1.907348633E-06  0.00000E+00  9.000E+00
#rwgt            1           1   2.5331905527225085E-002           7      191401           0
</event>
<event>
      5   9999  3.19816E-02  3.55260E+02 -1.00000E+00  1.03260E-01
      21    -1     0     0   511   501  0.000000000E+00  0.000000000E+00  4.130066480E+02  4.130066480E+02  0.000000000E+00  0.00000E+00  9.000E+00
      21    -1     0     0   501   502  0.000000000E+00  0.000000000E+00 -1.951343899E+03  1.951343899E+03  0.000000000E+00  0.00000E+00  9.000E+00
      25     1     1     2     0     0 -1.935303346E+02  3.120789622E+02 -1.980741812E+02  4.355521213E+02  1.250000000E+02  0.00000E+00  9.000E+00
      25     1     1     2     0     0  2.403232465E+02 -6.642437167E+02 -1.395679594E+03  1.569242335E+03  1.250000000E+02  0.00000E+00  9.000E+00
      21     1     1     2   511   502 -4.679291188E+01  3.521647545E+02  5.541652430E+01  3.595560903E+02  9.536743164E-07  0.00000E+00  9.000E+00
#rwgt            2          11   3.8049345230619950E-003           7      191514           0
</event>
<event>
      5   9999  3.19816E-02  3.73506E+02 -1.00000E+00  1.02589E-01
      21    -1     0     0   502   501  0.000000000E+00  0.000000000E+00  7.228916593E+02  7.228916593E+02  0.000000000E+00  0.00000E+00  9.000E+00
       1    -1     0     0   501     0  0.000000000E+00  0.000000000E+00 -1.816386627E+03  1.816386627E+03  0.000000000E+00  0.00000E+00  9.000E+00
      25     1     1     2     0     0  8.039993102E+02  5.808063655E+01 -3.648021676E+02  8.935848435E+02  1.250000000E+02  0.00000E+00  9.000E+00
      25     1     1     2     0     0 -9.555721077E+02  2.832880525E+02 -7.758426514E+02  1.269222988E+03  1.250000000E+02  0.00000E+00  9.000E+00
       1     1     1     2   502     0  1.515727975E+02 -3.413686891E+02  4.714985125E+01  3.764704547E+02  6.432884962E-06  0.00000E+00  9.000E+00
#rwgt            1           1   3.0652464576419656E-002           7      191534           0
</event>
<event>
      5   9999  3.19816E-02  9.15687E+01 -1.00000E+00  1.25573E-01
      21    -1     0     0   502   511  0.000000000E+00  0.000000000E+00  5.328365280E+02  5.328365280E+02  0.000000000E+00  0.00000E+00  9.000E+00
      21    -1     0     0   501   502  0.000000000E+00  0.000000000E+00 -9.984225130E+02  9.984225130E+02  0.000000000E+00  0.00000E+00  9.000E+00
      25     1     1     2     0     0  1.810778225E+02 -5.885629441E+02 -2.110881187E+01  6.287019158E+02  1.250000000E+02  0.00000E+00  9.000E+00
      25     1     1     2     0     0 -2.651465638E+02  6.248572746E+02 -4.193367314E+02  8.075999060E+02  1.250000000E+02  0.00000E+00  9.000E+00
      21     1     1     2   501   511  8.406874127E+01 -3.629433049E+01 -2.514044168E+01  9.495721927E+01  1.846782373E-06  0.00000E+00  9.000E+00
#rwgt            1           1   2.7061779620289512E-002           7      191611           0
</event>
<event>
      5   9999  3.19816E-02  2.22452E+02 -1.00000E+00  1.09991E-01
      21    -1     0     0   502   501  0.000000000E+00  0.000000000E+00  7.122836791E+02  7.122836791E+02  0.000000000E+00  0.00000E+00  9.000E+00
      21    -1     0     0   512   502  0.000000000E+00  0.000000000E+00 -7.169616992E+02  7.169616992E+02  0.000000000E+00  0.00000E+00  9.000E+00
      25     1     1     2     0     0  5.299119647E+02  8.061570212E+00 -1.676165163E+02  5.697297393E+02  1.250000000E+02  0.00000E+00  9.000E+00
      25     1     1     2     0     0 -3.211390798E+02 -8.486597474E+01  3.997807330E+02  5.345859863E+02  1.250000000E+02  0.00000E+00  9.000E+00
      21     1     1     2   512   501 -2.087728849E+02  7.680440453E+01 -2.368422369E+02  3.249296527E+02  0.000000000E+00  0.00000E+00  9.000E+00
#rwgt            1           1   2.5123318054168581E-002           7      191731           0
</event>
<event>
      5   9999  3.19816E-02  1.74726E+01 -1.00000E+00  1.71360E-01
      21    -1     0     0   502   501  0.000000000E+00  0.000000000E+00  2.217643600E+02  2.217643600E+02  0.000000000E+00  0.00000E+00  9.000E+00
      21    -1     0     0   501   511  0.000000000E+00  0.000000000E+00 -4.482014029E+02  4.482014029E+02  0.000000000E+00  0.00000E+00  9.000E+00
      25     1     1     2     0     0 -4.263720025E+00  2.754256011E+02 -6.142465053E+01  3.086671812E+02  1.250000000E+02  0.00000E+00  9.000E+00
      25     1     1     2     0     0  2.062873793E+01 -2.693035731E+02 -1.355174166E+02  3.270167113E+02  1.250000000E+02  0.00000E+00  9.000E+00
      21     1     1     2   502   511 -1.636501790E+01 -6.122028007E+00 -2.949497581E+01  3.428187037E+01  5.840038640E-07  0.00000E+00  9.000E+00
#rwgt            1           1   2.9189991551824317E-002           7      191789           0
</event>
<event>
      5   9999  3.19816E-02  1.83045E+01 -1.00000E+00  1.69607E-01
      21    -1     0     0   502   501  0.000000000E+00  0.000000000E+00  2.370229028E+02  2.370229028E+02  0.000000000E+00  0.00000E+00  9.000E+00
      21    -1     0     0   512   502  0.000000000E+00  0.000000000E+00 -2.144899575E+02  2.144899575E+02  0.000000000E+00  0.00000E+00  9.000E+00
      25     1     1     2     0     0 -1.824515701E+01 -1.469073885E+02  5.280432612E+01  2.008182348E+02  1.250000000E+02  0.00000E+00  9.000E+00
      25     1     1     2     0     0  2.736710509E+01  1.627769891E+02  9.126147890E+00  2.072524866E+02  1.250000000E+02  0.00000E+00  9.000E+00
      21     1     1     2   512   501 -9.121948088E+00 -1.586960061E+01 -3.939752872E+01  4.344213887E+01  6.743495762E-07  0.00000E+00  9.000E+00
#rwgt            1           1   3.1067149969128249E-002           7      191971           0
</event>
<event>
      5   9999  3.19816E-02  1.32073E+02 -1.00000E+00  1.18627E-01
      21    -1     0     0   502   501  0.000000000E+00  0.000000000E+00  9.009985490E+02  9.009985490E+02  0.000000000E+00  0.00000E+00  9.000E+00
      21    -1     0     0   511   502  0.000000000E+00  0.000000000E+00 -6.347882078E+02  6.347882078E+02  0.000000000E+00  0.00000E+00  9.000E+00
      25     1     1     2     0     0 -3.510034142E+02 -1.332532462E+02 -4.046704582E+02  5.659885194E+02  1.250000000E+02  0.00000E+00  9.000E+00
      25     1     1     2     0     0  4.148334921E+02  2.488778993E+02  6.723961490E+02  8.377163101E+02  1.250000000E+02  0.00000E+00  9.000E+00
      21     1     1     2   511   501 -6.383007791E+01 -1.156246531E+02 -1.515349690E+00  1.320819273E+02  1.563131099E-06  0.00000E+00  9.000E+00
#rwgt            1           1   2.3113163190406918E-002           7      192083           0
</event>
<event>
      5   9999  3.19816E-02  6.63445E+02 -1.00000E+00  9.54833E-02
      21    -1     0     0   502   501  0.000000000E+00  0.000000000E+00  1.122321302E+03  1.122321302E+03  0.000000000E+00  0.00000E+00  9.000E+00
       2    -1     0     0   501     0  0.000000000E+00  0.000000000E+00 -1.220512478E+03  1.220512478E+03  0.000000000E+00  0.00000E+00  9.000E+00
      25     1     1     2     0     0  1.916098570E+02  4.064135322E+02 -6.283907461E+02  7.825511014E+02  1.250000000E+02  0.00000E+00  9.000E+00
      25     1     1     2     0     0  6.458115432E+01  2.055712945E+02  8.046376287E+02  8.423164466E+02  1.250000000E+02  0.00000E+00  9.000E+00
       2     1     1     2   502     0 -2.561910113E+02 -6.119848267E+02 -2.744380579E+02  7.179662318E+02  7.629394531E-06  0.00000E+00  9.000E+00
#rwgt            2          13   6.0365572094414708E-004           7      192227           0
</event>
<event>
      5   9999  3.19816E-02  2.05824E+01 -1.00000E+00  1.65347E-01
      21    -1     0     0   502   511  0.000000000E+00  0.000000000E+00  7.738577770E+01  7.738577770E+01  0.000000000E+00  0.00000E+00  9.000E+00
      21    -1     0     0   501   502  0.000000000E+00  0.000000000E+00 -1.017454243E+03  1.017454243E+03  0.000000000E+00  0.00000E+00  9.000E+00
      25     1     1     2     0     0  1.034766690E+02  2.013367658E+02 -4.951613751E+02  5.586176704E+02  1.250000000E+02  0.00000E+00  9.000E+00
      25     1     1     2     0     0 -1.173676146E+02 -2.165247531E+02 -4.289554436E+02  5.101822207E+02  1.250000000E+02  0.00000E+00  9.000E+00
      21     1     1     2   501   511  1.389094563E+01  1.518798733E+01 -1.595164685E+01  2.604012993E+01  1.685873940E-07  0.00000E+00  9.000E+00
#rwgt            1           1   2.5798825862421302E-002           7      192246           0
</event>
<event>
      5   9999  3.19816E-02  1.86103E+02 -1.00000E+00  1.12799E-01
      21    -1     0     0   502   501  0.000000000E+00  0.000000000E+00  5.299305181E+02  5.299305181E+02  0.000000000E+00  0.00000E+00  9.000E+00
      21    -1     0     0   512   502  0.000000000E+00  0.000000000E+00 -1.918728092E+03  1.918728092E+03  0.000000000E+00  0.00000E+00  9.000E+00
      25     1     1     2     0     0  3.054671872E+02  4.532877037E+01 -5.970787668E+02  6.837345638E+02  1.250000000E+02  0.00000E+00  9.000E+00
      25     1     1     2     0     0 -2.552095439E+02  1.338595646E+02  4.281031028E+02  5.309873454E+02  1.250000000E+02  0.00000E+00  9.000E+00
      21     1     1     2   512   501 -5.025764330E+01 -1.791883350E+02 -1.219821910E+03  1.233936701E+03  0.000000000E+00  0.00000E+00  9.000E+00
#rwgt            1           1   2.9872464422714459E-002           7      192421           0
</event>
<event>
      5   9999  3.19816E-02  1.89235E+01 -1.00000E+00  1.68376E-01
      21    -1     0     0   502   501  0.000000000E+00  0.000000000E+00  3.246865699E+02  3.246865699E+02  0.000000000E+00  0.00000E+00  9.000E+00
      21    -1     0     0   501   511  0.000000000E+00  0.000000000E+00 -3.705428702E+02  3.705428702E+02  0.000000000E+00  0.00000E+00  9.000E+00
      25     1     1     2     0     0  7.295395372E+01  2.624123242E+02 -2.291806041E+01  3.005540629E+02  1.250000000E+02  0.00000E+00  9.000E+00
      25     1     1     2     0     0 -7.695225464E+01 -2.809085961E+02  4.862124315E+01  3.206560683E+02  1.250000000E+02  0.00000E+00  9.000E+00
      21     1     1     2   502   511  3.998300925E+00  1.849627192E+01 -7.155948301E+01  7.401930893E+01  0.000000000E+00  0.00000E+00  9.000E+00
#rwgt            1           1   2.7855530271263088E-002           7      192501           0
</event>
<event>
      5   9999  3.19816E-02  1.04102E+02 -1.00000E+00  1.23048E-01
      21    -1     0     0   502   512  0.000000000E+00  0.000000000E+00  1.371714488E+03  1.371714488E+03  0.000000000E+00  0.00000E+00  9.000E+00
      21    -1     0     0   501   502  0.000000000E+00  0.000000000E+00 -1.411325900E+02  1.411325900E+02  0.000000000E+00  0.00000E+00  9.000E+00
      25     1     1     2     0     0  3.056031733E+02  1.933378548E+02  7.562599582E+02  8.475417099E+02  1.250000000E+02  0.00000E+00  9.000E+00
      25     1     1     2     0     0 -3.062015525E+02 -8.923743724E+01  2.706715611E+02  4.365899735E+02  1.250000000E+02  0.00000E+00  9.000E+00
      21     1     1     2   501   512  5.983792058E-01 -1.041004176E+02  2.036503787E+02  2.287153946E+02  2.697398305E-06  0.00000E+00  9.000E+00
#rwgt            1           1   2.8766942310385572E-002           7      192675           0
</event>
<event>
      5   9999  3.19816E-02  9.98473E+01 -1.00000E+00  1.23858E-01
      21    -1     0     0   502   501  0.000000000E+00  0.000000000E+00  3.142991377E+02  3.142991377E+02  0.000000000E+00  0.00000E+00  9.000E+00
       1    -1     0     0   501     0  0.000000000E+00  0.000000000E+00 -2.448365641E+03  2.448365641E+03  0.000000000E+00  0.00000E+00  9.000E+00
      25     1     1     2     0     0  5.362733965E+02 -2.756653930E+02 -1.435807953E+03  1.562289999E+03  1.250000000E+02  0.00000E+00  9.000E+00
      25     1     1     2     0     0 -6.300040189E+02  2.412551700E+02 -2.330943328E+02  7.246151315E+02  1.250000000E+02  0.00000E+00  9.000E+00
       1     1     1     2   502     0  9.373062233E+01  3.441022307E+01 -4.651642174E+02  4.757596475E+02  7.629394531E-06  0.00000E+00  9.000E+00
#rwgt            1           1   3.8176056458660450E-002           7      192754           0
</event>
<event>
      5   9999  3.19816E-02  5.78141E+01 -1.00000E+00  1.35570E-01
       2    -1     0     0   502     0  0.000000000E+00  0.000000000E+00  1.042567328E+03  1.042567328E+03  0.000000000E+00  0.00000E+00  9.000E+00
      21    -1     0     0   501   502  0.000000000E+00  0.000000000E+00 -3.368182315E+02  3.368182315E+02  0.000000000E+00  0.00000E+00  9.000E+00
      25     1     1     2     0     0 -3.232294783E+02 -6.734533884E+01 -1.431258275E+02  3.809497247E+02  1.250000000E+02  0.00000E+00  9.000E+00
      25     1     1     2     0     0  2.654786594E+02  6.464127048E+01  2.339743060E+02  3.808233032E+02  1.250000000E+02  0.00000E+00  9.000E+00
       2     1     1     2   501     0  5.775081890E+01  2.704068362E+00  6.149006183E+02  6.176125318E+02  0.000000000E+00  0.00000E+00  9.000E+00
#rwgt            1           1   2.8075860863901691E-002           7      192845           0
</event>
<event>
      5   9999  3.19816E-02  1.12558E+02 -1.00000E+00  1.21560E-01
      21    -1     0     0   502   501  0.000000000E+00  0.000000000E+00  6.728011166E+02  6.728011166E+02  0.000000000E+00  0.00000E+00  9.000E+00
      21    -1     0     0   501   511  0.000000000E+00  0.000000000E+00 -2.891312778E+02  2.891312778E+02  0.000000000E+00  0.00000E+00  9.000E+00
      25     1     1     2     0     0  1.204811387E+02 -2.325581098E+02 -1.150490867E+02  3.121862770E+02  1.250000000E+02  0.00000E+00  9.000E+00
      25     1     1     2     0     0 -8.119387757E+00  2.259084376E+02  4.655339966E+02  5.323978293E+02  1.250000000E+02  0.00000E+00  9.000E+00
      21     1     1     2   502   511 -1.123617509E+02  6.649672246E+00  3.318492888E+01  1.173482881E+02  4.768371582E-07  0.00000E+00  9.000E+00
#rwgt            1           1   3.2175485530206750E-002           7      192939           0
</event>
<event>
      5   9999  3.19816E-02  4.56685E+01 -1.00000E+00  1.41359E-01
      21    -1     0     0   502   512  0.000000000E+00  0.000000000E+00  1.382162562E+03  1.382162562E+03  0.000000000E+00  0.00000E+00  9.000E+00
      21    -1     0     0   501   502  0.000000000E+00  0.000000000E+00 -1.172213783E+03  1.172213783E+03  0.000000000E+00  0.00000E+00  9.000E+00
      25     1     1     2     0     0  9.836322193E+02  2.310506467E+02  7.344242227E+02  1.255356795E+03  1.250000000E+02  0.00000E+00  9.000E+00
      25     1     1     2     0     0 -9.537130435E+02 -2.655535816E+02 -6.327140014E+02  1.181541062E+03  1.250000000E+02  0.00000E+00  9.000E+00
      21     1     1     2   501   512 -2.991917583E+01  3.450293490E+01  1.082385578E+02  1.174784873E+02  1.907348633E-06  0.00000E+00  9.000E+00
#rwgt            1           1   6.0837478553546320E-002           7      192992           0
</event>
<event>
      5   9999  3.19816E-02  2.93817E+02 -1.00000E+00  1.05887E-01
      21    -1     0     0   502   501  0.000000000E+00  0.000000000E+00  2.726325706E+03  2.726325706E+03  0.000000000E+00  0.00000E+00  9.000E+00
      21    -1     0     0   511   502  0.000000000E+00  0.000000000E+00 -7.066647989E+01  7.066647989E+01  0.000000000E+00  0.00000E+00  9.000E+00
      25     1     1     2     0     0 -5.355404619E+01 -9.284441981E+01  1.006368013E+03  1.019749822E+03  1.250000000E+02  0.00000E+00  9.000E+00
      25     1     1     2     0     0 -1.328273906E+02  3.199792289E+02  9.221418813E+02  9.929755645E+02  1.250000000E+02  0.00000E+00  9.000E+00
      21     1     1     2   511   501  1.863814368E+02 -2.271348091E+02  7.271493314E+02  7.842667988E+02  0.000000000E+00  0.00000E+00  9.000E+00
#rwgt            2          11   7.6340087139061159E-003           7      193337           0
</event>
<event>
      5   9999  3.19816E-02  1.12271E+02 -1.00000E+00  1.21608E-01
      21    -1     0     0   512   501  0.000000000E+00  0.000000000E+00  3.684017326E+02  3.684017326E+02  0.000000000E+00  0.00000E+00  9.000E+00
      21    -1     0     0   501   502  0.000000000E+00  0.000000000E+00 -4.966194905E+02  4.966194905E+02  0.000000000E+00  0.00000E+00  9.000E+00
      25     1     1     2     0     0 -1.792644052E+02 -2.254458007E+02 -2.290178915E+02  3.886331569E+02  1.250000000E+02  0.00000E+00  9.000E+00
      25     1     1     2     0     0  1.742141727E+02  1.132885203E+02 -8.695536392E+01  2.576258957E+02  1.250000000E+02  0.00000E+00  9.000E+00
      21     1     1     2   512   502  5.050232427E+00  1.121572804E+02  1.877554976E+02  2.187621706E+02  3.814697266E-06  0.00000E+00  9.000E+00
#rwgt            1           1   2.8026036224943617E-002           7      193372           0
</event>
<event>
      5   9999  3.19816E-02  9.36573E+01 -1.00000E+00  1.25122E-01
      21    -1     0     0   502   511  0.000000000E+00  0.000000000E+00  6.034457385E+02  6.034457385E+02  0.000000000E+00  0.00000E+00  9.000E+00
      21    -1     0     0   501   502  0.000000000E+00  0.000000000E+00 -2.042643643E+02  2.042643643E+02  0.000000000E+00  0.00000E+00  9.000E+00
      25     1     1     2     0     0 -4.655420021E+01 -8.354000871E+01  2.827551971E+02  3.236073672E+02  1.250000000E+02  0.00000E+00  9.000E+00
      25     1     1     2     0     0 -1.035978137E+01  1.579207419E+02 -1.166049758E+02  2.329549445E+02  1.250000000E+02  0.00000E+00  9.000E+00
      21     1     1     2   501   511  5.691398158E+01 -7.438073321E+01  2.330311528E+02  2.511477910E+02  2.697398305E-06  0.00000E+00  9.000E+00
#rwgt            1           1   2.3737442637249532E-002           7      193443           0
</event>
<event>
      5   9999  3.19816E-02  1.83173E+02 -1.00000E+00  1.13055E-01
      21    -1     0     0   502   501  0.000000000E+00  0.000000000E+00  2.059640188E+02  2.059640188E+02  0.000000000E+00  0.00000E+00  9.000E+00
      21    -1     0     0   501   512  0.000000000E+00  0.000000000E+00 -7.025816444E+02  7.025816444E+02  0.000000000E+00  0.00000E+00  9.000E+00
      25     1     1     2     0     0 -1.636158899E+02 -3.305219128E+01  9.751345037E+01  2.302096431E+02  1.250000000E+02  0.00000E+00  9.000E+00
      25     1     1     2     0     0 -1.848675241E+01  5.282988239E+01 -3.260951083E+02  3.536888126E+02  1.250000000E+02  0.00000E+00  9.000E+00
      21     1     1     2   502   512  1.821026423E+02 -1.977769110E+01 -2.680359676E+02  3.246472075E+02  3.814697266E-06  0.00000E+00  9.000E+00
#rwgt            1           1   2.9981159120233265E-002           7      193511           0
</event>
<event>
      5   9999  3.19816E-02  5.44803E+01 -1.00000E+00  1.36982E-01
      21    -1     0     0   502   501  0.000000000E+00  0.000000000E+00  7.918075823E+02  7.918075823E+02  0.000000000E+00  0.00000E+00  9.000E+00
      21    -1     0     0   501   511  0.000000000E+00  0.000000000E+00 -1.499636859E+02  1.499636859E+02  0.000000000E+00  0.00000E+00  9.000E+00
      25     1     1     2     0     0 -3.657181937E-01 -2.374425716E+02  3.002594702E+02  4.026907721E+02  1.250000000E+02  0.00000E+00  9.000E+00
      25     1     1     2     0     0 -5.049501210E+01  2.569691902E+02  3.757610722E+02  4.747676214E+02  1.250000000E+02  0.00000E+00  9.000E+00
      21     1     1     2   502   511  5.086073029E+01 -1.952661865E+01 -3.417664600E+01  6.431287471E+01  6.743495762E-07  0.00000E+00  9.000E+00
#rwgt            1           1   2.9465094545113459E-002           7      193543           0
</event>
<event>
      5   9999  3.19816E-02  1.07043E+03 -1.00000E+00  9.02873E-02
      21    -1     0     0   502   501  0.000000000E+00  0.000000000E+00  2.540881777E+03  2.540881777E+03  0.000000000E+00  0.00000E+00  9.000E+00
       2    -1     0     0   501     0  0.000000000E+00  0.000000000E+00 -5.671988915E+02  5.671988915E+02  0.000000000E+00  0.00000E+00  9.000E+00
      25     1     1     2     0     0 -2.376983914E+02  3.105763175E+02  4.711762055E+02  6.249721521E+02  1.250000000E+02  0.00000E+00  9.000E+00
      25     1     1     2     0     0  4.834140141E+02  7.312668603E+02  5.018515649E+02  1.017801711E+03  1.250000000E+02  0.00000E+00  9.000E+00
       2     1     1     2   502     0 -2.457156227E+02 -1.041843178E+03  1.000655116E+03  1.465306806E+03  0.000000000E+00  0.00000E+00  9.000E+00
#rwgt            2          13   6.3861174225404019E-005           7      193607           0
</event>
<event>
      5   9999  3.19816E-02  3.95705E+02 -1.00000E+00  1.01827E-01
      21    -1     0     0   502   501  0.000000000E+00  0.000000000E+00  5.511351303E+02  5.511351303E+02  0.000000000E+00  0.00000E+00  9.000E+00
      21    -1     0     0   501   511  0.000000000E+00  0.000000000E+00 -1.745287258E+03  1.745287258E+03  0.000000000E+00  0.00000E+00  9.000E+00
      25     1     1     2     0     0  4.302969184E+02  3.844763639E+02 -1.244234011E+01  5.905567917E+02  1.250000000E+02  0.00000E+00  9.000E+00
      25     1     1     2     0     0 -1.723588742E+02 -8.439212582E+01  1.777966034E+02  2.899417952E+02  1.250000000E+02  0.00000E+00  9.000E+00
      21     1     1     2   502   511 -2.579380442E+02 -3.000842381E+02 -1.359506391E+03  1.415923802E+03  1.525878906E-05  0.00000E+00  9.000E+00
#rwgt            2          11   2.0966730364489652E-003           7      193671           0
</event>
<event>
      5   9999  3.19816E-02  1.01853E+02 -1.00000E+00  1.23470E-01
      21    -1     0     0   502   501  0.000000000E+00  0.000000000E+00  1.483302176E+03  1.483302176E+03  0.000000000E+00  0.00000E+00  9.000E+00
      21    -1     0     0   501   512  0.000000000E+00  0.000000000E+00 -1.124883119E+02  1.124883119E+02  0.000000000E+00  0.00000E+00  9.000E+00
      25     1     1     2     0     0 -1.449894664E+02 -8.421258515E+01  1.115635613E+02  2.370340336E+02  1.250000000E+02  0.00000E+00  9.000E+00
      25     1     1     2     0     0  2.352409444E+02  1.314208967E+02  1.209426932E+03  1.245370731E+03  1.250000000E+02  0.00000E+00  9.000E+00
      21     1     1     2   502   512 -9.025147799E+01 -4.720831150E+01  4.982337083E+01  1.133857232E+02  1.168007728E-06  0.00000E+00  9.000E+00
#rwgt            1           1   2.7255794931502327E-002           7      193796           0
</event>
<event>
      5   9999  3.19816E-02  4.89131E+01 -1.00000E+00  1.39622E-01
      21    -1     0     0   502   511  0.000000000E+00  0.000000000E+00  7.462293617E+02  7.462293617E+02  0.000000000E+00  0.00000E+00  9.000E+00
      21    -1     0     0   501   502  0.000000000E+00  0.000000000E+00 -8.693527660E+02  8.693527660E+02  0.000000000E+00  0.00000E+00  9.000E+00
      25     1     1     2     0     0 -9.196817940E+01  1.200180875E+02  6.291390323E+02  6.590170023E+02  1.250000000E+02  0.00000E+00  9.000E+00
      25     1     1     2     0     0  1.227021427E+02 -1.580695390E+02 -8.310147977E+02  8.638590099E+02  1.250000000E+02  0.00000E+00  9.000E+00
      21     1     1     2   501   511 -3.073396328E+01  3.805145147E+01  7.875236112E+01  9.270611544E+01  1.348699152E-06  0.00000E+00  9.000E+00
#rwgt            2          11   5.3354503390709946E-003           7      193935           0
</event>
<event>
      5   9999  3.19816E-02  2.45164E+01 -1.00000E+00  1.59389E-01
      21    -1     0     0   502   512  0.000000000E+00  0.000000000E+00  3.004705032E+02  3.004705032E+02  0.000000000E+00  0.00000E+00  9.000E+00
      21    -1     0     0   501   502  0.000000000E+00  0.000000000E+00 -5.283305743E+02  5.283305743E+02  0.000000000E+00  0.00000E+00  9.000E+00
      25     1     1     2     0     0 -3.469809953E+02  7.806459357E+01 -1.767300471E+02  4.163512957E+02  1.250000000E+02  0.00000E+00  9.000E+00
      25     1     1     2     0     0  3.546664503E+02 -5.478393722E+01 -6.300853090E+01  3.852072763E+02  1.250000000E+02  0.00000E+00  9.000E+00
      21     1     1     2   501   512 -7.685454998E+00 -2.328065634E+01  1.187850691E+01  2.724250548E+01  4.129530925E-07  0.00000E+00  9.000E+00
#rwgt            1           1   2.7819890100865188E-002           7      193970           0
</event>
<event>
      5   9999  3.19816E-02  3.40486E+01 -1.00000E+00  1.49317E-01
      21    -1     0     0   502   501  0.000000000E+00  0.000000000E+00  1.756692203E+02  1.756692203E+02  0.000000000E+00  0.00000E+00  9.000E+00
      21    -1     0     0   511   502  0.000000000E+00  0.000000000E+00 -3.948418134E+02  3.948418134E+02  0.000000000E+00  0.00000E+00  9.000E+00
      25     1     1     2     0     0  2.052424279E+02 -8.100765013E+01 -1.291206028E+02  2.845765691E+02  1.250000000E+02  0.00000E+00  9.000E+00
      25     1     1     2     0     0 -1.941739165E+02  4.880832649E+01 -6.902766104E+01  2.459178330E+02  1.250000000E+02  0.00000E+00  9.000E+00
      21     1     1     2   511   501 -1.106851140E+01  3.219932364E+01 -2.102432927E+01  4.001663165E+01  8.259061849E-07  0.00000E+00  9.000E+00
#rwgt            1           1   2.7436098760481954E-002           7      194172           0
</event>
<event>
      5   9999  3.19816E-02  1.40658E+02 -1.00000E+00  1.17511E-01
      21    -1     0     0   502   512  0.000000000E+00  0.000000000E+00  4.532569233E+02  4.532569233E+02  0.000000000E+00  0.00000E+00  9.000E+00
      21    -1     0     0   501   502  0.000000000E+00  0.000000000E+00 -4.447396477E+02  4.447396477E+02  0.000000000E+00  0.00000E+00  9.000E+00
      25     1     1     2     0     0  2.279373409E+02  1.530897805E+02  1.439664186E+02  3.342801848E+02  1.250000000E+02  0.00000E+00  9.000E+00
      25     1     1     2     0     0 -3.249835396E+02 -5.127253591E+01 -2.044733050E+02  4.070350187E+02  1.250000000E+02  0.00000E+00  9.000E+00
      21     1     1     2   501   512  9.704619872E+01 -1.018172446E+02  6.902416199E+01  1.566813675E+02  2.523185073E-06  0.00000E+00  9.000E+00
#rwgt            1           1   2.7853361223154821E-002           7      194268           0
</event>
<event>
      5   9999  3.19816E-02  2.80237E+02 -1.00000E+00  1.06563E-01
      21    -1     0     0   502   511  0.000000000E+00  0.000000000E+00  1.027066035E+03  1.027066035E+03  0.000000000E+00  0.00000E+00  9.000E+00
      21    -1     0     0   501   502  0.000000000E+00  0.000000000E+00 -1.760130326E+03  1.760130326E+03  0.000000000E+00  0.00000E+00  9.000E+00
      25     1     1     2     0     0 -1.613555177E+02  3.082964230E+02 -1.659158516E+03  1.699857132E+03  1.250000000E+02  0.00000E+00  9.000E+00
      25     1     1     2     0     0  5.247598577E+01 -5.007545791E+01  2.887961681E+01  1.473781288E+02  1.250000000E+02  0.00000E+00  9.000E+00
      21     1     1     2   501   511  1.088795319E+02 -2.582209650E+02  8.972146075E+02  9.399611009E+02  1.078959322E-05  0.00000E+00  9.000E+00
#rwgt            2          11   9.8807100321904508E-003           7      194318           0
</event>
<event>
      5   9999  3.19816E-02  7.13769E+01 -1.00000E+00  1.30794E-01
      21    -1     0     0   512   501  0.000000000E+00  0.000000000E+00  9.452760657E+02  9.452760657E+02  0.000000000E+00  0.00000E+00  9.000E+00
      21    -1     0     0   501   502  0.000000000E+00  0.000000000E+00 -3.942830796E+02  3.942830796E+02  0.000000000E+00  0.00000E+00  9.000E+00
      25     1     1     2     0     0  3.742144417E+02  1.869274120E+01 -1.862392486E+02  4.366874451E+02  1.250000000E+02  0.00000E+00  9.000E+00
      25     1     1     2     0     0 -3.570768205E+02 -8.798169945E+01  3.976657758E+02  5.558846143E+02  1.250000000E+02  0.00000E+00  9.000E+00
      21     1     1     2   512   502 -1.713762118E+01  6.928895825E+01  3.395664589E+02  3.469870859E+02  0.000000000E+00  0.00000E+00  9.000E+00
#rwgt            1           1   2.8109657597839038E-002           7      194338           0
</event>
<event>
      5   9999  3.19816E-02  3.77210E+01 -1.00000E+00  1.46438E-01
      21    -1     0     0   502   501  0.000000000E+00  0.000000000E+00  7.873086788E+01  7.873086788E+01  0.000000000E+00  0.00000E+00  9.000E+00
       2    -1     0     0   501     0  0.000000000E+00  0.000000000E+00 -3.535592112E+03  3.535592112E+03  0.000000000E+00  0.00000E+00  9.000E+00
      25     1     1     2     0     0 -3.273254702E+02  2.992730011E+02 -1.056409494E+03  1.152532998E+03  1.250000000E+02  0.00000E+00  9.000E+00
      25     1     1     2     0     0  3.449962182E+02 -2.659470923E+02 -1.670968972E+03  1.731332594E+03  1.250000000E+02  0.00000E+00  9.000E+00
       2     1     1     2   502     0 -1.767074804E+01 -3.332590872E+01 -7.294827783E+02  7.304573878E+02  1.078959322E-05  0.00000E+00  9.000E+00
#rwgt            1           1   7.7528494551619656E-002           7      194440           0
</event>
<event>
      5   9999  3.19816E-02  2.37250E+01 -1.00000E+00  1.60473E-01
      21    -1     0     0   511   501  0.000000000E+00  0.000000000E+00  8.234496609E+02  8.234496609E+02  0.000000000E+00  0.00000E+00  9.000E+00
      21    -1     0     0   501   502  0.000000000E+00  0.000000000E+00 -4.279570668E+02  4.279570668E+02  0.000000000E+00  0.00000E+00  9.000E+00
      25     1     1     2     0     0  5.595821698E+01  2.066205662E+02 -3.774712488E+01  2.507453407E+02  1.250000000E+02  0.00000E+00  9.000E+00
      25     1     1     2     0     0 -3.477113810E+01 -1.959442235E+02 -2.347982081E+02  3.322023018E+02  1.250000000E+02  0.00000E+00  9.000E+00
      21     1     1     2   511   502 -2.118707888E+01 -1.067634267E+01  6.680379271E+02  6.684590852E+02  0.000000000E+00  0.00000E+00  9.000E+00
#rwgt            1           1   2.6093925019101957E-002           7      194641           0
</event>
<event>
      5   9999  3.19816E-02  4.30194E+01 -1.00000E+00  1.42907E-01
      21    -1     0     0   502   501  0.000000000E+00  0.000000000E+00  5.577610642E+02  5.577610642E+02  0.000000000E+00  0.00000E+00  9.000E+00
      21    -1     0     0   512   502  0.000000000E+00  0.000000000E+00 -7.582602747E+02  7.582602747E+02  0.000000000E+00  0.00000E+00  9.000E+00
      25     1     1     2     0     0 -3.132194217E+02  4.852483165E+02 -1.593071785E+02  6.120262347E+02  1.250000000E+02  0.00000E+00  9.000E+00
      25     1     1     2     0     0  3.027702130E+02 -4.435172364E+02  9.649475708E+01  5.597442086E+02  1.250000000E+02  0.00000E+00  9.000E+00
      21     1     1     2   512   501  1.044920877E+01 -4.173108007E+01 -1.376867891E+02  1.442508956E+02  0.000000000E+00  0.00000E+00  9.000E+00
#rwgt            1           1   3.2854063189447454E-002           7      194761           0
</event>
<event>
      5   9999  3.19816E-02  2.92007E+02 -1.00000E+00  1.05974E-01
      21    -1     0     0   502   501  0.000000000E+00  0.000000000E+00  1.070148771E+03  1.070148771E+03  0.000000000E+00  0.00000E+00  9.000E+00
      21    -1     0     0   501   511  0.000000000E+00  0.000000000E+00 -2.761463538E+02  2.761463538E+02  0.000000000E+00  0.00000E+00  9.000E+00
      25     1     1     2     0     0  8.978667856E+00 -1.512967081E+02 -5.192905369E+01  2.032066362E+02  1.250000000E+02  0.00000E+00  9.000E+00
      25     1     1     2     0     0  2.328783828E+02  3.149226754E+02  7.112256437E+02  8.215080942E+02  1.250000000E+02  0.00000E+00  9.000E+00
      21     1     1     2   502   511 -2.418570507E+02 -1.636259673E+02  1.347058270E+02  3.215803942E+02  5.722045898E-06  0.00000E+00  9.000E+00
#rwgt            1           1   2.9861204811621748E-002           7      194855           0
</event>
<event>
      5   9999  3.19816E-02  9.33715E+01 -1.00000E+00  1.25183E-01
      21    -1     0     0   502   501  0.000000000E+00  0.000000000E+00  2.411617821E+02  2.411617821E+02  0.000000000E+00  0.00000E+00  9.000E+00
      21    -1     0     0   512   502  0.000000000E+00  0.000000000E+00 -9.857753751E+02  9.857753751E+02  0.000000000E+00  0.00000E+00  9.000E+00
      25     1     1     2     0     0 -1.611481308E+02 -1.032535540E+02 -4.971881158E+02  5.472211975E+02  1.250000000E+02  0.00000E+00  9.000E+00
      25     1     1     2     0     0  2.534644518E+02  1.172513034E+02  9.848223670E+01  3.214278261E+02  1.250000000E+02  0.00000E+00  9.000E+00
      21     1     1     2   512   501 -9.231632103E+01 -1.399774933E+01 -3.459077139E+02  3.582881335E+02  5.394796609E-06  0.00000E+00  9.000E+00
#rwgt            1           1   2.9156166604949140E-002           7      194916           0
</event>
<event>
      5   9999  3.19816E-02  1.42631E+02 -1.00000E+00  1.17267E-01
      21    -1     0     0   502   511  0.000000000E+00  0.000000000E+00  1.410363644E+02  1.410363644E+02  0.000000000E+00  0.00000E+00  9.000E+00
      21    -1     0     0   501   502  0.000000000E+00  0.000000000E+00 -9.536089518E+02  9.536089518E+02  0.000000000E+00  0.00000E+00  9.000E+00
      25     1     1     2     0     0 -1.633830678E+02  5.801568844E+01 -6.728284215E+02  7.059624152E+02  1.250000000E+02  0.00000E+00  9.000E+00
      25     1     1     2     0     0  1.169574444E+02  7.684806133E+01  1.923584327E+00  1.876522542E+02  1.250000000E+02  0.00000E+00  9.000E+00
      21     1     1     2   501   511  4.642562338E+01 -1.348637498E+02 -1.416677502E+02  2.010306468E+02  1.907348633E-06  0.00000E+00  9.000E+00
#rwgt            2          11   3.9475763116441527E-003           7      195195           0
</event>
<event>
      5   9999  3.19816E-02  3.56500E+01 -1.00000E+00  1.48011E-01
      21    -1     0     0   512   501  0.000000000E+00  0.000000000E+00  6.386984963E+02  6.386984963E+02  0.000000000E+00  0.00000E+00  9.000E+00
      21    -1     0     0   501   502  0.000000000E+00  0.000000000E+00 -1.753078832E+02  1.753078832E+02  0.000000000E+00  0.00000E+00  9.000E+00
      25     1     1     2     0     0 -1.570847249E+02  4.280899381E+00 -7.443787863E+01  2.141493280E+02  1.250000000E+02  0.00000E+00  9.000E+00
      25     1     1     2     0     0  1.861749962E+02  1.632675582E+01  4.980035510E+02  5.464066517E+02  1.250000000E+02  0.00000E+00  9.000E+00
      21     1     1     2   512   502 -2.909027132E+01 -2.060765520E+01  3.982494073E+01  5.345039983E+01  8.259061849E-07  0.00000E+00  9.000E+00
#rwgt            1           1   2.7444270083255822E-002           7      195230           0
</event>
<event>
      5   9999  3.19816E-02  1.27802E+02 -1.00000E+00  1.19218E-01
      21    -1     0     0   502   501  0.000000000E+00  0.000000000E+00  6.924546752E+02  6.924546752E+02  0.000000000E+00  0.00000E+00  9.000E+00
       1    -1     0     0   501     0  0.000000000E+00  0.000000000E+00 -4.089157656E+02  4.089157656E+02  0.000000000E+00  0.00000E+00  9.000E+00
      25     1     1     2     0     0  2.011405222E+02  1.325487003E+02  3.984146633E+02  4.820642193E+02  1.250000000E+02  0.00000E+00  9.000E+00
      25     1     1     2     0     0 -1.007307677E+02 -5.348398824E+01  2.102967871E+02  2.699202905E+02  1.250000000E+02  0.00000E+00  9.000E+00
       1     1     1     2   502     0 -1.004097544E+02 -7.906471203E+01 -3.251725408E+02  3.493859310E+02  5.394796609E-06  0.00000E+00  9.000E+00
#rwgt            1           1   2.7497798911741759E-002           7      195355           0
</event>
<event>
      5   9999  3.19816E-02  8.75900E+01 -1.00000E+00  1.26473E-01
      21    -1     0     0   511   501  0.000000000E+00  0.000000000E+00  2.609900626E+02  2.609900626E+02  0.000000000E+00  0.00000E+00  9.000E+00
      21    -1     0     0   501   502  0.000000000E+00  0.000000000E+00 -1.541450593E+03  1.541450593E+03  0.000000000E+00  0.00000E+00  9.000E+00
      25     1     1     2     0     0 -4.502242788E+02 -3.811560271E+02 -5.158988118E+02  7.935731865E+02  1.250000000E+02  0.00000E+00  9.000E+00
      25     1     1     2     0     0  3.626989644E+02  3.845222128E+02 -7.399038228E+02  9.178728332E+02  1.250000000E+02  0.00000E+00  9.000E+00
      21     1     1     2   511   502  8.752531441E+01 -3.366185616E+00 -2.465789531E+01  9.099463539E+01  1.719260824E-06  0.00000E+00  9.000E+00
#rwgt            1           1   2.9078094133842321E-002           7      195402           0
</event>
<event>
      5   9999  3.19816E-02  1.07546E+02 -1.00000E+00  1.22423E-01
      21    -1     0     0   502   512  0.000000000E+00  0.000000000E+00  7.882753025E+02  7.882753025E+02  0.000000000E+00  0.00000E+00  9.000E+00
      21    -1     0     0   501   502  0.000000000E+00  0.000000000E+00 -2.610497999E+02  2.610497999E+02  0.000000000E+00  0.00000E+00  9.000E+00
      25     1     1     2     0     0 -9.435655067E+01 -1.317511136E+02 -1.408997167E+02  2.484738311E+02  1.250000000E+02  0.00000E+00  9.000E+00
      25     1     1     2     0     0  2.411333556E+01  2.131882301E+02  1.951835208E+02  3.158358453E+02  1.250000000E+02  0.00000E+00  9.000E+00
      21     1     1     2   501   512  7.024321511E+01 -8.143711646E+01  4.729416985E+02  4.850154260E+02  7.629394531E-06  0.00000E+00  9.000E+00
#rwgt            1           1   2.7771652292713295E-002           7      195573           0
</event>
<event>
      5   9999  3.19816E-02  2.19514E+02 -1.00000E+00  1.10196E-01
      21    -1     0     0   502   501  0.000000000E+00  0.000000000E+00  1.496139258E+02  1.496139258E+02  0.000000000E+00  0.00000E+00  9.000E+00
      21    -1     0     0   501   511  0.000000000E+00  0.000000000E+00 -6.177609386E+02  6.177609386E+02  0.000000000E+00  0.00000E+00  9.000E+00
      25     1     1     2     0     0  8.789960720E+01 -7.075530501E+01 -1.389151166E+02  2.183003980E+02  1.250000000E+02  0.00000E+00  9.000E+00
      25     1     1     2     0     0 -3.359892946E+01 -1.419365828E+02 -5.906252166E+01  2.009683136E+02  1.250000000E+02  0.00000E+00  9.000E+00
      21     1     1     2   502   511 -5.430067773E+01  2.126918878E+02 -2.701693746E+02  3.481061529E+02  6.607249480E-06  0.00000E+00  9.000E+00
#rwgt            1           1   5.3179757214398417E-002           7      195699           0
</event>
<event>
      5   9999  3.19816E-02  1.57842E+02 -1.00000E+00  1.15523E-01
      21    -1     0     0   502   501  0.000000000E+00  0.000000000E+00  9.899479865E+01  9.899479865E+01  0.000000000E+00  0.00000E+00  9.000E+00
      21    -1     0     0   512   502  0.000000000E+00  0.000000000E+00 -1.108125670E+03  1.108125670E+03  0.000000000E+00  0.00000E+00  9.000E+00
      25     1     1     2     0     0 -1.189617197E+02  1.841967894E+02 -3.799370245E+02  4.561331939E+02  1.250000000E+02  0.00000E+00  9.000E+00
      25     1     1     2     0     0  8.901460993E+01 -2.922165320E+01 -7.225649891E+01  1.721148089E+02  1.250000000E+02  0.00000E+00  9.000E+00
      21     1     1     2   512   501  2.994710982E+01 -1.549751362E+02 -5.569373483E+02  5.788724663E+02  7.629394531E-06  0.00000E+00  9.000E+00
#rwgt            1           1   3.1804068147926100E-002           7      195737           0
</event>
<event>
      5   9999  3.19816E-02  2.03174E+01 -1.00000E+00  1.65807E-01
      21    -1     0     0   502   501  0.000000000E+00  0.000000000E+00  1.274672557E+03  1.274672557E+03  0.000000000E+00  0.00000E+00  9.000E+00
      21    -1     0     0   511   502  0.000000000E+00  0.000000000E+00 -2.359037905E+02  2.359037905E+02  0.000000000E+00  0.00000E+00  9.000E+00
      25     1     1     2     0     0 -1.123720688E+02 -2.718572315E+02 -6.055587255E+00  3.196803189E+02  1.250000000E+02  0.00000E+00  9.000E+00
      25     1     1     2     0     0  1.228609016E+02  2.544565939E+02  1.094473186E+03  1.137250858E+03  1.250000000E+02  0.00000E+00  9.000E+00
      21     1     1     2   511   501 -1.048883274E+01  1.740063756E+01 -4.964883213E+01  5.364517063E+01  1.507891493E-06  0.00000E+00  9.000E+00
#rwgt            1           1   2.9265607964196347E-002           7      195785           0
</event>
<event>
      5   9999  3.19816E-02  1.39421E+01 -1.00000E+00  1.80429E-01
      21    -1     0     0   502   501  0.000000000E+00  0.000000000E+00  5.980617818E+02  5.980617818E+02  0.000000000E+00  0.00000E+00  9.000E+00
      21    -1     0     0   512   502  0.000000000E+00  0.000000000E+00 -4.866089209E+02  4.866089209E+02  0.000000000E+00  0.00000E+00  9.000E+00
      25     1     1     2     0     0  6.772205432E+01 -3.700993912E+02  3.328472004E+02  5.176602118E+02  1.250000000E+02  0.00000E+00  9.000E+00
      25     1     1     2     0     0 -7.032937558E+01  3.837954761E+02 -7.082381746E+01  4.157958654E+02  1.250000000E+02  0.00000E+00  9.000E+00
      21     1     1     2   512   501  2.607321259E+00 -1.369608494E+01 -1.505705221E+02  1.512146256E+02  2.697398305E-06  0.00000E+00  9.000E+00
#rwgt            1           1   2.8671848331451134E-002           7      196019           0
</event>
<event>
      5   9999  3.19816E-02  4.42314E+02 -1.00000E+00  1.00388E-01
      21    -1     0     0   511   501  0.000000000E+00  0.000000000E+00  9.139569674E+02  9.139569674E+02  0.000000000E+00  0.00000E+00  9.000E+00
      21    -1     0     0   501   502  0.000000000E+00  0.000000000E+00 -4.034493865E+02  4.034493865E+02  0.000000000E+00  0.00000E+00  9.000E+00
      25     1     1     2     0     0 -3.099055910E+02  3.887089091E+02  2.112603945E+02  5.544294776E+02  1.250000000E+02  0.00000E+00  9.000E+00
      25     1     1     2     0     0  1.330533160E+02  1.671091014E+01 -6.027550226E+01  1.929781739E+02  1.250000000E+02  0.00000E+00  9.000E+00
      21     1     1     2   511   502  1.768522750E+02 -4.054198193E+02  3.595226887E+02  5.699987024E+02  5.394796609E-06  0.00000E+00  9.000E+00
#rwgt            1           1   2.7031375411548535E-002           7      196229           0
</event>
<event>
      5   9999  3.19816E-02  3.11900E+02 -1.00000E+00  1.05046E-01
      21    -1     0     0   502   501  0.000000000E+00  0.000000000E+00  8.895993730E+02  8.895993730E+02  0.000000000E+00  0.00000E+00  9.000E+00
      21    -1     0     0   512   502  0.000000000E+00  0.000000000E+00 -3.493860693E+02  3.493860693E+02  0.000000000E+00  0.00000E+00  9.000E+00
      25     1     1     2     0     0  2.479765946E+02 -3.175293010E+02  5.221380654E+02  6.712454155E+02  1.250000000E+02  0.00000E+00  9.000E+00
      25     1     1     2     0     0 -6.637967463E+01  6.394667442E+01  1.618373031E+02  2.243028110E+02  1.250000000E+02  0.00000E+00  9.000E+00
      21     1     1     2   512   501 -1.815969200E+02  2.535826266E+02 -1.437620648E+02  3.434372157E+02  7.387129490E-06  0.00000E+00  9.000E+00
#rwgt            2          11   5.2332507760797040E-003           7      196409           0
</event>
<event>
      5   9999  3.67731E-02  2.95376E+01 -1.00000E+00  1.53510E-01
       3    -1     0     0   502     0  0.000000000E+00  0.000000000E+00  3.473950530E+03  3.473950530E+03  0.000000000E+00  0.00000E+00  9.000E+00
      21    -1     0     0   501   502  0.000000000E+00  0.000000000E+00 -4.206635775E+01  4.206635775E+01  0.000000000E+00  0.00000E+00  9.000E+00
      25     1     1     2     0     0 -9.966657836E+01  1.864709869E+02  1.622492327E+03  1.640978735E+03  1.250000000E+02  0.00000E+00  9.000E+00
      25     1     1     2     0     0  1.267815549E+02 -1.747557366E+02  4.436955009E+02  5.090224235E+02  1.250000000E+02  0.00000E+00  9.000E+00
       3     1     1     2   501     0 -2.711497649E+01 -1.171525029E+01  1.365696344E+03  1.366015730E+03  2.157918644E-05  0.00000E+00  9.000E+00
#rwgt            1           1  0.10597827220205479                7      196444           0
</event>
<event>
      5   9999  3.19816E-02  1.19386E+02 -1.00000E+00  1.20463E-01
      21    -1     0     0   511   501  0.000000000E+00  0.000000000E+00  1.937712987E+03  1.937712987E+03  0.000000000E+00  0.00000E+00  9.000E+00
      21    -1     0     0   501   502  0.000000000E+00  0.000000000E+00 -4.812967064E+02  4.812967064E+02  0.000000000E+00  0.00000E+00  9.000E+00
      25     1     1     2     0     0  1.566210199E+02  1.417942825E+02 -4.244308419E+02  4.903083744E+02  1.250000000E+02  0.00000E+00  9.000E+00
      25     1     1     2     0     0 -7.385884550E+01 -2.278370015E+02  8.740745969E+02  9.148749801E+02  1.250000000E+02  0.00000E+00  9.000E+00
      21     1     1     2   511   502 -8.276217440E+01  8.604271905E+01  1.006772526E+03  1.013826339E+03  1.078959322E-05  0.00000E+00  9.000E+00
#rwgt            1           1   3.4356498067736531E-002           7      196543           0
</event>
<event>
      5   9999  3.19816E-02  1.94252E+02 -1.00000E+00  1.12111E-01
      21    -1     0     0   502   501  0.000000000E+00  0.000000000E+00  1.181057080E+03  1.181057080E+03  0.000000000E+00  0.00000E+00  9.000E+00
      -2    -1     0     0     0   502  0.000000000E+00  0.000000000E+00 -5.121629333E+02  5.121629333E+02  0.000000000E+00  0.00000E+00  9.000E+00
      25     1     1     2     0     0  5.828192447E+00 -9.353071064E+01  1.069916777E+03  1.081262628E+03  1.250000000E+02  0.00000E+00  9.000E+00
      25     1     1     2     0     0 -6.051344917E+01 -9.286542364E+01 -3.818053108E+02  4.167567154E+02  1.250000000E+02  0.00000E+00  9.000E+00
      -2     1     1     2     0   501  5.468525673E+01  1.863961343E+02 -1.921731929E+01  1.952006699E+02  2.431401974E-06  0.00000E+00  9.000E+00
#rwgt            2           9   4.8048210400874998E-005           7      196652           0
</event>
<event>
      5   9999  3.19816E-02  1.42195E+01 -1.00000E+00  1.79598E-01
      21    -1     0     0   502   501  0.000000000E+00  0.000000000E+00  2.545542389E+02  2.545542389E+02  0.000000000E+00  0.00000E+00  9.000E+00
      21    -1     0     0   511   502  0.000000000E+00  0.000000000E+00 -6.582749072E+02  6.582749072E+02  0.000000000E+00  0.00000E+00  9.000E+00
      25     1     1     2     0     0  3.619727834E+02 -1.139360917E+02 -1.362118051E+02  4.221189225E+02  1.250000000E+02  0.00000E+00  9.000E+00
      25     1     1     2     0     0 -3.511624573E+02  1.231736351E+02 -2.410433114E+02  4.606665755E+02  1.250000000E+02  0.00000E+00  9.000E+00
      21     1     1     2   511   501 -1.081032612E+01 -9.237543388E+00 -2.646555177E+01  3.004364807E+01  3.371747881E-07  0.00000E+00  9.000E+00
#rwgt            1           1   3.1235389292369114E-002           7      196671           0
</event>
<event>
      5   9999  3.19816E-02  1.70876E+01 -1.00000E+00  1.72213E-01
      21    -1     0     0   512   501  0.000000000E+00  0.000000000E+00  9.141437147E+02  9.141437147E+02  0.000000000E+00  0.00000E+00  9.000E+00
      21    -1     0     0   501   502  0.000000000E+00  0.000000000E+00 -2.918354294E+02  2.918354294E+02  0.000000000E+00  0.00000E+00  9.000E+00
      25     1     1     2     0     0 -5.991052137E-01  2.351288859E+02 -1.992366151E+02  3.325750753E+02  1.250000000E+02  0.00000E+00  9.000E+00
      25     1     1     2     0     0  1.758203346E+01 -2.332405720E+02  8.111461951E+02  8.534011028E+02  1.250000000E+02  0.00000E+00  9.000E+00
      21     1     1     2   512   502 -1.698292824E+01 -1.888313861E+00  1.039870529E+01  2.000296610E+01  0.000000000E+00  0.00000E+00  9.000E+00
#rwgt            1           1   2.9175001499621354E-002           7      196924           0
</event>
<event>
      5   9999  3.19816E-02  3.67765E+01 -1.00000E+00  1.47140E-01
      21    -1     0     0   502   511  0.000000000E+00  0.000000000E+00  1.071043875E+02  1.071043875E+02  0.000000000E+00  0.00000E+00  9.000E+00
      21    -1     0     0   501   502  0.000000000E+00  0.000000000E+00 -6.583906586E+02  6.583906586E+02  0.000000000E+00  0.00000E+00  9.000E+00
      25     1     1     2     0     0  1.988117447E+02  5.752843379E+01 -1.467393566E+02  2.828304603E+02  1.250000000E+02  0.00000E+00  9.000E+00
      25     1     1     2     0     0 -1.651261199E+02 -7.228601509E+01 -3.789455208E+02  4.378545548E+02  1.250000000E+02  0.00000E+00  9.000E+00
      21     1     1     2   501   511 -3.368562473E+01  1.475758130E+01 -2.560139364E+01  4.481003097E+01  8.259061849E-07  0.00000E+00  9.000E+00
#rwgt            2          11   2.6575463347195830E-003           7      197137           0
</event>
<event>
      5   9999  3.19816E-02  7.96006E+01 -1.00000E+00  1.28455E-01
      21    -1     0     0   502   501  0.000000000E+00  0.000000000E+00  1.032919387E+03  1.032919387E+03  0.000000000E+00  0.00000E+00  9.000E+00
      -1    -1     0     0     0   502  0.000000000E+00  0.000000000E+00 -6.264609783E+02  6.264609783E+02  0.000000000E+00  0.00000E+00  9.000E+00
      25     1     1     2     0     0  1.238801639E+02 -1.005865141E+02  1.692475273E+02  2.640713300E+02  1.250000000E+02  0.00000E+00  9.000E+00
      25     1     1     2     0     0 -1.287259043E+02  2.113357185E+01  8.034444652E+02  8.235077382E+02  1.250000000E+02  0.00000E+00  9.000E+00
      -1     1     1     2     0   501  4.845740450E+00  7.945294229E+01 -5.662335841E+02  5.718012968E+02  7.629394531E-06  0.00000E+00  9.000E+00
#rwgt            1           1   3.1713400253137340E-002           7      197157           0
</event>
<event>
      5   9999  3.19816E-02  7.73607E+01 -1.00000E+00  1.29059E-01
      21    -1     0     0   502   501  0.000000000E+00  0.000000000E+00  8.263820882E+02  8.263820882E+02  0.000000000E+00  0.00000E+00  9.000E+00
      21    -1     0     0   511   502  0.000000000E+00  0.000000000E+00 -1.016358430E+02  1.016358430E+02  0.000000000E+00  0.00000E+00  9.000E+00
      25     1     1     2     0     0  1.229139474E+02  4.165303424E+00  5.603038291E+02  5.871035421E+02  1.250000000E+02  0.00000E+00  9.000E+00
      25     1     1     2     0     0 -1.730670996E+02  5.473577522E+01  1.100177409E+02  2.463272811E+02  1.250000000E+02  0.00000E+00  9.000E+00
      21     1     1     2   511   501  5.015315222E+01 -5.890107865E+01  5.442467521E+01  9.458710808E+01  1.348699152E-06  0.00000E+00  9.000E+00
#rwgt            1           1   2.9813275929835480E-002           7      197217           0
</event>
<event>
      5   9999  3.19816E-02  8.71936E+01 -1.00000E+00  1.26565E-01
      21    -1     0     0   512   501  0.000000000E+00  0.000000000E+00  4.494524167E+02  4.494524167E+02  0.000000000E+00  0.00000E+00  9.000E+00
      21    -1     0     0   501   502  0.000000000E+00  0.000000000E+00 -7.285455047E+02  7.285455047E+02  0.000000000E+00  0.00000E+00  9.000E+00
      25     1     1     2     0     0 -4.563201955E+02  2.110984929E+02 -3.230048892E+02  6.105307961E+02  1.250000000E+02  0.00000E+00  9.000E+00
      25     1     1     2     0     0  3.841091481E+02 -1.622283293E+02 -5.136283984E+01  4.383161072E+02  1.250000000E+02  0.00000E+00  9.000E+00
      21     1     1     2   512   502  7.221104737E+01 -4.887016361E+01  9.527464113E+01  1.291510182E+02  2.697398305E-06  0.00000E+00  9.000E+00
#rwgt            1           1   2.9171144962139673E-002           7      197290           0
</event>
<event>
      5   9999  3.19816E-02  6.40145E+01 -1.00000E+00  1.33217E-01
      21    -1     0     0   502   501  0.000000000E+00  0.000000000E+00  3.951225083E+02  3.951225083E+02  0.000000000E+00  0.00000E+00  9.000E+00
      21    -1     0     0   501   511  0.000000000E+00  0.000000000E+00 -1.929670547E+02  1.929670547E+02  0.000000000E+00  0.00000E+00  9.000E+00
      25     1     1     2     0     0 -1.000864958E+02  5.425472838E+01 -1.081073510E+01  1.694188720E+02  1.250000000E+02  0.00000E+00  9.000E+00
      25     1     1     2     0     0  1.111393163E+02  8.798317939E+00  2.798149929E+02  3.261146857E+02  1.250000000E+02  0.00000E+00  9.000E+00
      21     1     1     2   502   511 -1.105282051E+01 -6.305304632E+01 -6.684880414E+01  9.255600524E+01  0.000000000E+00  0.00000E+00  9.000E+00
#rwgt            1           1   2.6210783831251003E-002           7      197368           0
</event>
<event>
      5   9999  3.19816E-02  3.54359E+01 -1.00000E+00  1.48181E-01
      21    -1     0     0   502   512  0.000000000E+00  0.000000000E+00  5.913028160E+02  5.913028160E+02  0.000000000E+00  0.00000E+00  9.000E+00
      21    -1     0     0   501   502  0.000000000E+00  0.000000000E+00 -4.102578864E+02  4.102578864E+02  0.000000000E+00  0.00000E+00  9.000E+00
      25     1     1     2     0     0 -9.469266860E+01 -2.756801101E+02  8.537018329E+01  3.284498330E+02  1.250000000E+02  0.00000E+00  9.000E+00
      25     1     1     2     0     0  1.300723142E+02  2.776758467E+02 -1.923301514E+02  3.829341587E+02  1.250000000E+02  0.00000E+00  9.000E+00
      21     1     1     2   501   512 -3.537964565E+01 -1.995736632E+00  2.880048978E+02  2.901767107E+02  3.814697266E-06  0.00000E+00  9.000E+00
#rwgt            1           1   2.9452234589010359E-002           7      197419           0
</event>
<event>
      5   9999  3.19816E-02  4.05495E+02 -1.00000E+00  1.01507E-01
      21    -1     0     0   502   511  0.000000000E+00  0.000000000E+00  1.357879194E+03  1.357879194E+03  0.000000000E+00  0.00000E+00  9.000E+00
      21    -1     0     0   501   502  0.000000000E+00  0.000000000E+00 -7.096060063E+02  7.096060063E+02  0.000000000E+00  0.00000E+00  9.000E+00
      25     1     1     2     0     0 -4.618604173E+02  4.115163022E+02 -8.122848720E+01  6.363047848E+02  1.250000000E+02  0.00000E+00  9.000E+00
      25     1     1     2     0     0  1.986830511E+02 -7.200027817E+02  2.376176548E+02  7.937040446E+02  1.250000000E+02  0.00000E+00  9.000E+00
      21     1     1     2   501   511  2.631773662E+02  3.084864796E+02  4.918840201E+02  6.374763708E+02  9.344061824E-06  0.00000E+00  9.000E+00
#rwgt            2          11   2.4959768478625814E-003           7      197564           0
</event>
<event>
      5   9999  3.19816E-02  3.52093E+02 -1.00000E+00  1.03381E-01
      21    -1     0     0   502   501  0.000000000E+00  0.000000000E+00  1.201179395E+03  1.201179395E+03  0.000000000E+00  0.00000E+00  9.000E+00
       1    -1     0     0   501     0  0.000000000E+00  0.000000000E+00 -1.329069100E+03  1.329069100E+03  0.000000000E+00  0.00000E+00  9.000E+00
      25     1     1     2     0     0 -5.877817082E+02  4.935897780E+02  8.353187911E+02  1.141271523E+03  1.250000000E+02  0.00000E+00  9.000E+00
      25     1     1     2     0     0  5.483384648E+02 -1.437126260E+02 -3.387333889E+02  6.720816168E+02  1.250000000E+02  0.00000E+00  9.000E+00
       1     1     1     2   502     0  3.944324342E+01 -3.498771520E+02 -6.244751072E+02  7.168953553E+02  7.629394531E-06  0.00000E+00  9.000E+00
#rwgt            2          12   6.4555272132287564E-004           7      197824           0
</event>
<event>
      5   9999  3.19816E-02  9.09776E+02 -1.00000E+00  9.19879E-02
      21    -1     0     0   502   501  0.000000000E+00  0.000000000E+00  1.167620629E+03  1.167620629E+03  0.000000000E+00  0.00000E+00  9.000E+00
       1    -1     0     0   501     0  0.000000000E+00  0.000000000E+00 -9.067316820E+02  9.067316820E+02  0.000000000E+00  0.00000E+00  9.000E+00
      25     1     1     2     0     0 -7.708089063E+02 -2.883548979E+02 -2.295008088E+02  8.634758471E+02  1.250000000E+02  0.00000E+00  9.000E+00
      25     1     1     2     0     0 -2.932444679E+01 -1.446331577E+02  4.812284344E+01  1.992974700E+02  1.250000000E+02  0.00000E+00  9.000E+00
       1     1     1     2   502     0  8.001333531E+02  4.329880557E+02  4.422669122E+02  1.011578994E+03  1.078959322E-05  0.00000E+00  9.000E+00
#rwgt            2          12   1.9001892572330400E-004           7      197933           0
</event>
<event>
      5   9999  3.19816E-02  9.46669E+01 -1.00000E+00  1.24908E-01
       2    -1     0     0   502     0  0.000000000E+00  0.000000000E+00  3.390897785E+03  3.390897785E+03  0.000000000E+00  0.00000E+00  9.000E+00
      21    -1     0     0   501   502  0.000000000E+00  0.000000000E+00 -2.002652548E+02  2.002652548E+02  0.000000000E+00  0.00000E+00  9.000E+00
      25     1     1     2     0     0  2.161453022E+02 -2.013167072E+02  1.524746834E+01  3.210991958E+02  1.250000000E+02  0.00000E+00  9.000E+00
      25     1     1     2     0     0 -1.870228255E+02  1.112406389E+02  2.915675271E+02  3.846929163E+02  1.250000000E+02  0.00000E+00  9.000E+00
       2     1     1     2   501     0 -2.912247675E+01  9.007606833E+01  2.883817534E+03  2.885370927E+03  6.103515625E-05  0.00000E+00  9.000E+00
#rwgt            2          18   3.0096704679440874E-003           7      198042           0
</event>
<event>
      5   9999  3.19816E-02  9.45483E+01 -1.00000E+00  1.24933E-01
      21    -1     0     0   502   501  0.000000000E+00  0.000000000E+00  1.979701375E+03  1.979701375E+03  0.000000000E+00  0.00000E+00  9.000E+00
      21    -1     0     0   501   511  0.000000000E+00  0.000000000E+00 -8.392725557E+01  8.392725557E+01  0.000000000E+00  0.00000E+00  9.000E+00
      25     1     1     2     0     0 -1.764757039E+02 -2.993345284E+01  2.756472178E+02  3.516334374E+02  1.250000000E+02  0.00000E+00  9.000E+00
      25     1     1     2     0     0  8.193494986E+01  3.112577151E+01  1.609643910E+03  1.616867548E+03  1.250000000E+02  0.00000E+00  9.000E+00
      21     1     1     2   502   511  9.454075403E+01 -1.192318669E+00  1.048299153E+01  9.512764534E+01  1.332800375E-06  0.00000E+00  9.000E+00
#rwgt            1           1   2.5943418638361651E-002           7      198061           0
</event>
<event>
      5   9999  3.19816E-02  3.05202E+01 -1.00000E+00  1.52523E-01
      21    -1     0     0   502   501  0.000000000E+00  0.000000000E+00  1.045535853E+03  1.045535853E+03  0.000000000E+00  0.00000E+00  9.000E+00
      21    -1     0     0   512   502  0.000000000E+00  0.000000000E+00 -3.658899464E+02  3.658899464E+02  0.000000000E+00  0.00000E+00  9.000E+00
      25     1     1     2     0     0 -1.271508245E+02  8.161182993E+01  5.612457068E+02  5.945162456E+02  1.250000000E+02  0.00000E+00  9.000E+00
      25     1     1     2     0     0  9.931056003E+01 -6.910567577E+01  4.507532891E+02  4.831580584E+02  1.250000000E+02  0.00000E+00  9.000E+00
      21     1     1     2   512   501  2.784026449E+01 -1.250615416E+01 -3.323530897E+02  3.337514950E+02  9.344061824E-06  0.00000E+00  9.000E+00
#rwgt            1           1   2.6667982790227838E-002           7      198213           0
</event>
<event>
      5   9999  3.19816E-02  6.91713E+01 -1.00000E+00  1.31483E-01
      21    -1     0     0   511   501  0.000000000E+00  0.000000000E+00  4.611786374E+01  4.611786374E+01  0.000000000E+00  0.00000E+00  9.000E+00
      21    -1     0     0   501   502  0.000000000E+00  0.000000000E+00 -1.146927874E+03  1.146927874E+03  0.000000000E+00  0.00000E+00  9.000E+00
      25     1     1     2     0     0 -5.023911328E+01 -9.905205385E+01 -8.458800875E+02  8.622490361E+02  1.250000000E+02  0.00000E+00  9.000E+00
      25     1     1     2     0     0  2.757446474E+01  3.369925755E+01 -1.177372527E+02  1.771526228E+02  1.250000000E+02  0.00000E+00  9.000E+00
      21     1     1     2   511   502  2.266464855E+01  6.535279630E+01 -1.371926705E+02  1.536440793E+02  0.000000000E+00  0.00000E+00  9.000E+00
#rwgt            1           1   2.9158991436873300E-002           7      198310           0
</event>
<event>
      5   9999  3.19816E-02  4.28928E+01 -1.00000E+00  1.42984E-01
      21    -1     0     0   502   512  0.000000000E+00  0.000000000E+00  5.358931211E+02  5.358931211E+02  0.000000000E+00  0.00000E+00  9.000E+00
      21    -1     0     0   501   502  0.000000000E+00  0.000000000E+00 -7.278234346E+02  7.278234346E+02  0.000000000E+00  0.00000E+00  9.000E+00
      25     1     1     2     0     0  1.089862968E+02  3.360207000E+02 -2.312333983E+01  3.754299037E+02  1.250000000E+02  0.00000E+00  9.000E+00
      25     1     1     2     0     0 -1.515466416E+02 -3.413504682E+02 -4.533486687E+02  6.005302175E+02  1.250000000E+02  0.00000E+00  9.000E+00
      21     1     1     2   501   512  4.256034480E+01  5.329768204E+00  2.845416950E+02  2.877564345E+02  0.000000000E+00  0.00000E+00  9.000E+00
#rwgt            2          11   3.3453449570290863E-003           7      198395           0
</event>
<event>
      5   9999  3.19816E-02  2.76950E+02 -1.00000E+00  1.06733E-01
      21    -1     0     0   502   511  0.000000000E+00  0.000000000E+00  2.270893342E+02  2.270893342E+02  0.000000000E+00  0.00000E+00  9.000E+00
      21    -1     0     0   501   502  0.000000000E+00  0.000000000E+00 -1.905982098E+03  1.905982098E+03  0.000000000E+00  0.00000E+00  9.000E+00
      25     1     1     2     0     0 -5.398599469E+01 -9.177252361E+01 -1.294062021E+03  1.304437885E+03  1.250000000E+02  0.00000E+00  9.000E+00
      25     1     1     2     0     0  5.686329393E+01  3.687077412E+02 -3.867088001E+02  5.516770148E+02  1.250000000E+02  0.00000E+00  9.000E+00
      21     1     1     2   501   511 -2.877299237E+00 -2.769352176E+02  1.878056813E+00  2.769565321E+02  3.717354428E-06  0.00000E+00  9.000E+00
#rwgt            2          11   5.3985512311265785E-003           7      198490           0
</event>
<event>
      5   9999  3.19816E-02  1.44102E+01 -1.00000E+00  1.79041E-01
      21    -1     0     0   502   501  0.000000000E+00  0.000000000E+00  5.096185217E+02  5.096185217E+02  0.000000000E+00  0.00000E+00  9.000E+00
      21    -1     0     0   501   512  0.000000000E+00  0.000000000E+00 -4.712415148E+02  4.712415148E+02  0.000000000E+00  0.00000E+00  9.000E+00
      25     1     1     2     0     0  5.823395347E+00 -1.306860496E+02  3.069096898E+02  3.562742106E+02  1.250000000E+02  0.00000E+00  9.000E+00
      25     1     1     2     0     0  7.809195632E+00  1.260161709E+02  1.335375991E+02  2.222573941E+02  1.250000000E+02  0.00000E+00  9.000E+00
      21     1     1     2   502   512 -1.363259098E+01  4.669878647E+00 -4.020702820E+02  4.023284317E+02  5.394796609E-06  0.00000E+00  9.000E+00
#rwgt            1           1   3.2731842395564086E-002           7      198510           0
</event>
<event>
      5   9999  3.19816E-02  5.41747E+01 -1.00000E+00  1.37117E-01
      21    -1     0     0   502   501  0.000000000E+00  0.000000000E+00  5.909655581E+01  5.909655581E+01  0.000000000E+00  0.00000E+00  9.000E+00
      21    -1     0     0   501   511  0.000000000E+00  0.000000000E+00 -1.821493861E+03  1.821493861E+03  0.000000000E+00  0.00000E+00  9.000E+00
      25     1     1     2     0     0 -1.185197015E+02  1.690708157E+02 -9.312566667E+02  9.620269433E+02  1.250000000E+02  0.00000E+00  9.000E+00
      25     1     1     2     0     0  6.876712955E+01 -1.476329683E+02 -2.051543895E+02  2.902373769E+02  1.250000000E+02  0.00000E+00  9.000E+00
      21     1     1     2   502   511  4.975257197E+01 -2.143784739E+01 -6.259862485E+02  6.283260961E+02  1.321449896E-05  0.00000E+00  9.000E+00
#rwgt            1           1   2.4668982100883689E-002           7      198635           0
</event>
<event>
      5   9999  3.19816E-02  5.39841E+01 -1.00000E+00  1.37202E-01
      21    -1     0     0   502   501  0.000000000E+00  0.000000000E+00  7.196863335E+02  7.196863335E+02  0.000000000E+00  0.00000E+00  9.000E+00
      21    -1     0     0   512   502  0.000000000E+00  0.000000000E+00 -1.181623228E+02  1.181623228E+02  0.000000000E+00  0.00000E+00  9.000E+00
      25     1     1     2     0     0  1.729051058E+02 -1.360019629E+01  6.615786041E+01  2.237923221E+02  1.250000000E+02  0.00000E+00  9.000E+00
      25     1     1     2     0     0 -1.885999696E+02 -3.805199977E+01  4.982616800E+02  5.485504580E+02  1.250000000E+02  0.00000E+00  9.000E+00
      21     1     1     2   512   501  1.569486379E+01  5.165219606E+01  3.710447032E+01  6.550587626E+01  8.259061849E-07  0.00000E+00  9.000E+00
#rwgt            1           1   2.5822564582199264E-002           7      198734           0
</event>
<event>
      5   9999  3.19816E-02  3.71784E+01 -1.00000E+00  1.46838E-01
      21    -1     0     0   511   501  0.000000000E+00  0.000000000E+00  1.136487064E+03  1.136487064E+03  0.000000000E+00  0.00000E+00  9.000E+00
      21    -1     0     0   501   502  0.000000000E+00  0.000000000E+00 -7.245201002E+01  7.245201002E+01  0.000000000E+00  0.00000E+00  9.000E+00
      25     1     1     2     0     0 -4.191765177E+01 -1.235646732E+02  8.631535562E+01  2.002514884E+02  1.250000000E+02  0.00000E+00  9.000E+00
      25     1     1     2     0     0  6.440908475E+01  1.531682320E+02  8.773788563E+02  9.016804838E+02  1.250000000E+02  0.00000E+00  9.000E+00
      21     1     1     2   511   502 -2.249143298E+01 -2.960355880E+01  1.003408426E+02  1.070071023E+02  1.348699152E-06  0.00000E+00  9.000E+00
#rwgt            1           1   2.9071519074860133E-002           7      198814           0
</event>
<event>
      5   9999  3.19816E-02  1.11630E+02 -1.00000E+00  1.21716E-01
      21    -1     0     0   502   501  0.000000000E+00  0.000000000E+00  9.778428344E+02  9.778428344E+02  0.000000000E+00  0.00000E+00  9.000E+00
      21    -1     0     0   501   512  0.000000000E+00  0.000000000E+00 -3.727003090E+02  3.727003090E+02  0.000000000E+00  0.00000E+00  9.000E+00
      25     1     1     2     0     0  2.073527931E+02  2.169350693E+02  6.250263620E+02  7.045132776E+02  1.250000000E+02  0.00000E+00  9.000E+00
      25     1     1     2     0     0 -2.250937261E+02 -1.067242697E+02  2.370529607E+02  3.658911880E+02  1.250000000E+02  0.00000E+00  9.000E+00
      21     1     1     2   502   512  1.774093300E+01 -1.102107996E+02 -2.569367972E+02  2.801386778E+02  5.394796609E-06  0.00000E+00  9.000E+00
#rwgt            1           1   2.8062907728180864E-002           7      198880           0
</event>
<event>
      5   9999  3.19816E-02  7.66520E+00 -1.00000E+00  2.10128E-01
      21    -1     0     0   502   501  0.000000000E+00  0.000000000E+00  2.698706566E+02  2.698706566E+02  0.000000000E+00  0.00000E+00  9.000E+00
      21    -1     0     0   511   502  0.000000000E+00  0.000000000E+00 -2.702236742E+02  2.702236742E+02  0.000000000E+00  0.00000E+00  9.000E+00
      25     1     1     2     0     0 -1.334868965E+02  1.768890023E+02  4.176334394E+01  2.578325960E+02  1.250000000E+02  0.00000E+00  9.000E+00
      25     1     1     2     0     0  1.316488278E+02 -1.694474396E+02 -9.240383320E+00  2.485039906E+02  1.250000000E+02  0.00000E+00  9.000E+00
      21     1     1     2   511   501  1.838068695E+00 -7.441562673E+00 -3.287597819E+01  3.375774420E+01  0.000000000E+00  0.00000E+00  9.000E+00
#rwgt            1           1   2.6739633374287409E-002           7      198934           0
</event>
<event>
      5   9999  3.19816E-02  2.98447E+02 -1.00000E+00  1.05665E-01
      21    -1     0     0   502   501  0.000000000E+00  0.000000000E+00  8.168958083E+02  8.168958083E+02  0.000000000E+00  0.00000E+00  9.000E+00
      21    -1     0     0   512   502  0.000000000E+00  0.000000000E+00 -4.041644453E+02  4.041644453E+02  0.000000000E+00  0.00000E+00  9.000E+00
      25     1     1     2     0     0 -4.929031957E+01 -3.818598776E+02  1.733969460E+02  4.403839264E+02  1.250000000E+02  0.00000E+00  9.000E+00
      25     1     1     2     0     0 -2.133689724E+02  2.401543774E+02  3.212443338E+02  4.711935540E+02  1.250000000E+02  0.00000E+00  9.000E+00
      21     1     1     2   512   501  2.626592919E+02  1.417055002E+02 -8.190991685E+01  3.094827732E+02  3.438521648E-06  0.00000E+00  9.000E+00
#rwgt            2          11   3.3977802923362303E-003           7      199203           0
</event>
<event>
      5   9999  3.19816E-02  1.55438E+02 -1.00000E+00  1.15784E-01
      21    -1     0     0   502   501  0.000000000E+00  0.000000000E+00  1.535934065E+03  1.535934065E+03  0.000000000E+00  0.00000E+00  9.000E+00
      21    -1     0     0   501   511  0.000000000E+00  0.000000000E+00 -7.905359121E+01  7.905359121E+01  0.000000000E+00  0.00000E+00  9.000E+00
      25     1     1     2     0     0  2.354021711E+02 -1.011158400E+02  5.849839974E+02  6.507456281E+02  1.250000000E+02  0.00000E+00  9.000E+00
      25     1     1     2     0     0 -1.516194002E+02 -2.980933141E+01  7.199280913E+02  7.468590867E+02  1.250000000E+02  0.00000E+00  9.000E+00
      21     1     1     2   502   511 -8.378277091E+01  1.309251714E+02  1.519683854E+02  2.173829418E+02  3.814697266E-06  0.00000E+00  9.000E+00
#rwgt            1           1   2.6893915773584433E-002           7      199238           0
</event>
<event>
      5   9999  3.19816E-02  7.96490E+01 -1.00000E+00  1.28442E-01
      21    -1     0     0   502   501  0.000000000E+00  0.000000000E+00  9.024788976E+01  9.024788976E+01  0.000000000E+00  0.00000E+00  9.000E+00
      21    -1     0     0   501   512  0.000000000E+00  0.000000000E+00 -1.838388280E+03  1.838388280E+03  0.000000000E+00  0.00000E+00  9.000E+00
      25     1     1     2     0     0  1.787162759E+02  8.289551516E+01 -5.231316391E+02  5.728026585E+02  1.250000000E+02  0.00000E+00  9.000E+00
      25     1     1     2     0     0 -2.583083767E+02 -8.590495294E+01 -2.883048928E+02  4.157494313E+02  1.250000000E+02  0.00000E+00  9.000E+00
      21     1     1     2   502   512  7.959210083E+01  3.009437778E+00 -9.367038583E+02  9.400840799E+02  0.000000000E+00  0.00000E+00  9.000E+00
#rwgt            1           1   2.6755329312172206E-002           7      199334           0
</event>
<event>
      5   9999  3.19816E-02  3.89795E+02 -1.00000E+00  1.02024E-01
       3    -1     0     0   502     0  0.000000000E+00  0.000000000E+00  2.967702417E+03  2.967702417E+03  0.000000000E+00  0.00000E+00  9.000E+00
      21    -1     0     0   501   502  0.000000000E+00  0.000000000E+00 -1.244124830E+02  1.244124830E+02  0.000000000E+00  0.00000E+00  9.000E+00
      25     1     1     2     0     0  2.017094567E+01  2.634865728E+02  1.021043367E+03  1.062067135E+03  1.250000000E+02  0.00000E+00  9.000E+00
      25     1     1     2     0     0  3.646192952E+02 -3.257460748E+02  1.052210667E+03  1.166974731E+03  1.250000000E+02  0.00000E+00  9.000E+00
       3     1     1     2   501     0 -3.847902409E+02  6.225950202E+01  7.700359002E+02  8.630730344E+02  1.525878906E-05  0.00000E+00  9.000E+00
#rwgt            1           1   3.5661214606323002E-002           7      199413           0
</event>
<event>
      5   9999  3.19816E-02  1.91967E+02 -1.00000E+00  1.12300E-01
      21    -1     0     0   502   501  0.000000000E+00  0.000000000E+00  1.953582262E+03  1.953582262E+03  0.000000000E+00  0.00000E+00  9.000E+00
      21    -1     0     0   501   511  0.000000000E+00  0.000000000E+00 -1.544673438E+02  1.544673438E+02  0.000000000E+00  0.00000E+00  9.000E+00
      25     1     1     2     0     0 -3.109713045E+02 -1.518165191E+02  1.486156478E+03  1.531024978E+03  1.250000000E+02  0.00000E+00  9.000E+00
      25     1     1     2     0     0  1.201330532E+02  1.726059070E+02  2.964341865E+02  3.843474684E+02  1.250000000E+02  0.00000E+00  9.000E+00
      21     1     1     2   502   511  1.908382513E+02 -2.078938783E+01  1.652425447E+01  1.926771595E+02  2.545613826E-06  0.00000E+00  9.000E+00
#rwgt            1           1   3.4150641292848768E-002           7      199468           0
</event>
<event>
      5   9999  3.19816E-02  4.52228E+01 -1.00000E+00  1.41610E-01
       2    -1     0     0   502     0  0.000000000E+00  0.000000000E+00  2.379566995E+03  2.379566995E+03  0.000000000E+00  0.00000E+00  9.000E+00
      21    -1     0     0   501   502  0.000000000E+00  0.000000000E+00 -4.353607459E+02  4.353607459E+02  0.000000000E+00  0.00000E+00  9.000E+00
      25     1     1     2     0     0  1.204096559E+02 -3.297719146E+02  3.705146077E+02  5.255036397E+02  1.250000000E+02  0.00000E+00  9.000E+00
      25     1     1     2     0     0 -1.342987436E+02  3.728090961E+02 -2.368795044E+02  4.782882753E+02  1.250000000E+02  0.00000E+00  9.000E+00
       2     1     1     2   501     0  1.388908769E+01 -4.303718149E+01  1.810571146E+03  1.811135826E+03  2.157918644E-05  0.00000E+00  9.000E+00
#rwgt            1           1   2.6307124047445059E-002           7      199522           0
</event>
<event>
      5   9999  3.19816E-02  7.68515E+01 -1.00000E+00  1.29199E-01
      21    -1     0     0   502   501  0.000000000E+00  0.000000000E+00  1.837776716E+02  1.837776716E+02  0.000000000E+00  0.00000E+00  9.000E+00
       2    -1     0     0   501     0  0.000000000E+00  0.000000000E+00 -1.683826710E+03  1.683826710E+03  0.000000000E+00  0.00000E+00  9.000E+00
      25     1     1     2     0     0 -2.877631197E+02  1.133825524E+02 -1.041115311E+03  1.093256286E+03  1.250000000E+02  0.00000E+00  9.000E+00
      25     1     1     2     0     0  3.645638513E+02 -1.161765202E+02 -1.103311556E+02  4.173748309E+02  1.250000000E+02  0.00000E+00  9.000E+00
       2     1     1     2   502     0 -7.680073160E+01  2.793967770E+00 -3.486025717E+02  3.569732645E+02  3.814697266E-06  0.00000E+00  9.000E+00
#rwgt            1           1   3.1097289771713998E-002           7      199631           0
</event>
<event>
      5   9999  3.19816E-02  5.81857E+01 -1.00000E+00  1.35420E-01
      21    -1     0     0   502   501  0.000000000E+00  0.000000000E+00  1.842939908E+02  1.842939908E+02  0.000000000E+00  0.00000E+00  9.000E+00
       2    -1     0     0   501     0  0.000000000E+00  0.000000000E+00 -1.245303949E+03  1.245303949E+03  0.000000000E+00  0.00000E+00  9.000E+00
      25     1     1     2     0     0 -2.900631960E+00 -1.628972395E+02 -1.041956146E+02  2.302729910E+02  1.250000000E+02  0.00000E+00  9.000E+00
      25     1     1     2     0     0  5.197465575E+01  1.316352375E+02  4.638708425E+01  1.944375534E+02  1.250000000E+02  0.00000E+00  9.000E+00
       2     1     1     2   502     0 -4.907402378E+01  3.126200200E+01 -1.003201428E+03  1.004887395E+03  1.525878906E-05  0.00000E+00  9.000E+00
#rwgt            1           1   2.7455362922114205E-002           7      199698           0
</event>
<event>
      5   9999  3.19816E-02  1.04405E+02 -1.00000E+00  1.22992E-01
      21    -1     0     0   502   501  0.000000000E+00  0.000000000E+00  3.120691323E+02  3.120691323E+02  0.000000000E+00  0.00000E+00  9.000E+00
      21    -1     0     0   511   502  0.000000000E+00  0.000000000E+00 -6.523169898E+02  6.523169898E+02  0.000000000E+00  0.00000E+00  9.000E+00
      25     1     1     2     0     0 -8.361294861E+00  2.572726394E+02  1.926316142E+02  3.449508096E+02  1.250000000E+02  0.00000E+00  9.000E+00
      25     1     1     2     0     0  4.363590044E+01 -1.590076356E+02 -3.024152921E+02  3.664253388E+02  1.250000000E+02  0.00000E+00  9.000E+00
      21     1     1     2   511   501 -3.527460558E+01 -9.826500384E+01 -2.304641795E+02  2.530099737E+02  3.814697266E-06  0.00000E+00  9.000E+00
#rwgt            1           1   3.0847429300856804E-002           7      199785           0
</event>
<event>
      5   9999  3.19816E-02  4.49395E+02 -1.00000E+00  1.00187E-01
      21    -1     0     0   502   501  0.000000000E+00  0.000000000E+00  9.077784461E+02  9.077784461E+02  0.000000000E+00  0.00000E+00  9.000E+00
      21    -1     0     0   512   502  0.000000000E+00  0.000000000E+00 -1.747359298E+03  1.747359298E+03  0.000000000E+00  0.00000E+00  9.000E+00
      25     1     1     2     0     0 -1.512162041E+02 -1.602118190E+02  5.554335823E+02  6.104634564E+02  1.250000000E+02  0.00000E+00  9.000E+00
      25     1     1     2     0     0 -2.877797586E+02  2.563290222E+02  1.527498408E+02  4.329887654E+02  1.250000000E+02  0.00000E+00  9.000E+00
      21     1     1     2   512   501  4.389959627E+02 -9.611720327E+01 -1.547764275E+03  1.611685523E+03  0.000000000E+00  0.00000E+00  9.000E+00
#rwgt            1           1   2.4981365575899382E-002           7      199883           0
</event>
<event>
      5   9999  3.19816E-02  4.95987E+01 -1.00000E+00  1.39275E-01
      21    -1     0     0   511   501  0.000000000E+00  0.000000000E+00  5.757134311E+02  5.757134311E+02  0.000000000E+00  0.00000E+00  9.000E+00
      21    -1     0     0   501   502  0.000000000E+00  0.000000000E+00 -2.061969066E+02  2.061969066E+02  0.000000000E+00  0.00000E+00  9.000E+00
      25     1     1     2     0     0 -4.574127805E+01 -2.044374163E+02  5.045409734E+00  2.440028235E+02  1.250000000E+02  0.00000E+00  9.000E+00
      25     1     1     2     0     0  8.635943000E+01  2.329014280E+02  1.463849753E+02  3.142524261E+02  1.250000000E+02  0.00000E+00  9.000E+00
      21     1     1     2   511   502 -4.061815195E+01 -2.846401165E+01  2.180861395E+02  2.236550881E+02  2.697398305E-06  0.00000E+00  9.000E+00
#rwgt            1           1   2.7337158078614268E-002           7      199928           0
</event>
<event>
      5   9999  3.19816E-02  9.84953E+01 -1.00000E+00  1.24125E-01
      21    -1     0     0   502   501  0.000000000E+00  0.000000000E+00  2.326856308E+03  2.326856308E+03  0.000000000E+00  0.00000E+00  9.000E+00
      21    -1     0     0   512   502  0.000000000E+00  0.000000000E+00 -5.803518250E+01  5.803518250E+01  0.000000000E+00  0.00000E+00  9.000E+00
      25     1     1     2     0     0 -4.458233361E+01 -2.628972142E+02  4.732683193E+02  5.574140577E+02  1.250000000E+02  0.00000E+00  9.000E+00
      25     1     1     2     0     0 -1.161924305E+01  1.820101951E+02  1.493321149E+03  1.509601196E+03  1.250000000E+02  0.00000E+00  9.000E+00
      21     1     1     2   512   501  5.620157666E+01  8.088701915E+01  3.022316577E+02  3.178762369E+02  3.814697266E-06  0.00000E+00  9.000E+00
#rwgt            1           1   2.7266774584310153E-002           7      199996           0
</event>
<event>
      5   9999  3.19816E-02  1.24678E+02 -1.00000E+00  1.19668E-01
      21    -1     0     0   511   501  0.000000000E+00  0.000000000E+00  3.491156577E+02  3.491156577E+02  0.000000000E+00  0.00000E+00  9.000E+00
      21    -1     0     0   501   502  0.000000000E+00  0.000000000E+00 -1.159264735E+03  1.159264735E+03  0.000000000E+00  0.00000E+00  9.000E+00
      25     1     1     2     0     0  1.502301345E+02 -2.287897468E+02 -9.465412970E+02  9.932166271E+02  1.250000000E+02  0.00000E+00  9.000E+00
      25     1     1     2     0     0 -4.797025732E+01  3.001159708E+02  1.898326578E+02  3.795157170E+02  1.250000000E+02  0.00000E+00  9.000E+00
      21     1     1     2   511   502 -1.022598772E+02 -7.132622398E+01 -5.344043835E+01  1.356480488E+02  1.348699152E-06  0.00000E+00  9.000E+00
#rwgt            1           1   3.3997127805893312E-002           7      200036           0
</event>
<event>
      5   9999  3.19816E-02  4.92750E+01 -1.00000E+00  1.39438E-01
      21    -1     0     0   502   501  0.000000000E+00  0.000000000E+00  1.361319926E+02  1.361319926E+02  0.000000000E+00  0.00000E+00  9.000E+00
      21    -1     0     0   512   502  0.000000000E+00  0.000000000E+00 -3.721074133E+02  3.721074133E+02  0.000000000E+00  0.00000E+00  9.000E+00
      25     1     1     2     0     0 -5.566388106E+01  1.440296975E+02 -1.871478080E+01  1.995451439E+02  1.250000000E+02  0.00000E+00  9.000E+00
      25     1     1     2     0     0  5.544892114E+01 -9.475511722E+01 -1.419507809E+02  2.186964547E+02  1.250000000E+02  0.00000E+00  9.000E+00
      21     1     1     2   512   501  2.149599274E-01 -4.927458032E+01 -7.530985899E+01  8.999780738E+01  1.651812370E-06  0.00000E+00  9.000E+00
#rwgt            1           1   3.0294395596755987E-002           7      200157           0
</event>
<event>
      5   9999  3.19816E-02  2.94241E+02 -1.00000E+00  1.05866E-01
      21    -1     0     0   502   501  0.000000000E+00  0.000000000E+00  2.672197426E+02  2.672197426E+02  0.000000000E+00  0.00000E+00  9.000E+00
      21    -1     0     0   501   511  0.000000000E+00  0.000000000E+00 -1.338562948E+03  1.338562948E+03  0.000000000E+00  0.00000E+00  9.000E+00
      25     1     1     2     0     0  1.881265904E+02  1.356214532E+01  3.447943206E+01  2.288872584E+02  1.250000000E+02  0.00000E+00  9.000E+00
      25     1     1     2     0     0 -4.785858037E+02  3.346257185E+01 -5.038668159E+02  7.068740223E+02  1.250000000E+02  0.00000E+00  9.000E+00
      21     1     1     2   502   511  2.904592133E+02 -4.702471716E+01 -6.019558212E+02  6.700214096E+02  0.000000000E+00  0.00000E+00  9.000E+00
#rwgt            1           1   2.8083583189672082E-002           7      200229           0
</event>
<event>
      5   9999  3.19816E-02  3.85486E+02 -1.00000E+00  1.02171E-01
      21    -1     0     0   502   501  0.000000000E+00  0.000000000E+00  9.871997028E+02  9.871997028E+02  0.000000000E+00  0.00000E+00  9.000E+00
       1    -1     0     0   501     0  0.000000000E+00  0.000000000E+00 -2.854828109E+02  2.854828109E+02  0.000000000E+00  0.00000E+00  9.000E+00
      25     1     1     2     0     0 -2.674230265E+02 -3.551931358E+01  1.122443181E+02  3.178057326E+02  1.250000000E+02  0.00000E+00  9.000E+00
      25     1     1     2     0     0 -1.177243309E+02  5.167697609E+01  5.366160114E+02  5.657837675E+02  1.250000000E+02  0.00000E+00  9.000E+00
       1     1     1     2   502     0  3.851473574E+02 -1.615766251E+01  5.285656247E+01  3.890930135E+02  5.682170528E-06  0.00000E+00  9.000E+00
#rwgt            2          12   2.1641250393040034E-004           7      200565           0
</event>
<event>
      5   9999  3.19816E-02  1.35430E+01 -1.00000E+00  1.81669E-01
      21    -1     0     0   502   501  0.000000000E+00  0.000000000E+00  1.316139720E+02  1.316139720E+02  0.000000000E+00  0.00000E+00  9.000E+00
      21    -1     0     0   511   502  0.000000000E+00  0.000000000E+00 -9.686240214E+02  9.686240214E+02  0.000000000E+00  0.00000E+00  9.000E+00
      25     1     1     2     0     0 -8.587284094E+01 -1.576291064E+02 -8.229534464E+02  8.515271311E+02  1.250000000E+02  0.00000E+00  9.000E+00
      25     1     1     2     0     0  9.933180764E+01  1.591352835E+02  4.824030023E+00  2.254753151E+02  1.250000000E+02  0.00000E+00  9.000E+00
      21     1     1     2   511   501 -1.345896670E+01 -1.506177085E+00 -1.888063305E+01  2.323554730E+01  3.371747881E-07  0.00000E+00  9.000E+00
#rwgt            1           1   2.4537481247240971E-002           7      200584           0
</event>
<event>
      5   9999  3.19816E-02  3.23160E+01 -1.00000E+00  1.50830E-01
      21    -1     0     0   502   501  0.000000000E+00  0.000000000E+00  1.432078674E+02  1.432078674E+02  0.000000000E+00  0.00000E+00  9.000E+00
      21    -1     0     0   501   512  0.000000000E+00  0.000000000E+00 -4.265633256E+02  4.265633256E+02  0.000000000E+00  0.00000E+00  9.000E+00
      25     1     1     2     0     0  1.196596833E+02 -4.879049774E+01 -2.570782879E+02  3.137087799E+02  1.250000000E+02  0.00000E+00  9.000E+00
      25     1     1     2     0     0 -1.190415836E+02  8.110056260E+01  2.813063129E+01  1.927810476E+02  1.250000000E+02  0.00000E+00  9.000E+00
      21     1     1     2   502   512 -6.180996783E-01 -3.231006486E+01 -5.440780170E+01  6.328136553E+01  0.000000000E+00  0.00000E+00  9.000E+00
#rwgt            1           1   2.7242491516165375E-002           7      200744           0
</event>
<event>
      5   9999  3.19816E-02  6.33137E+01 -1.00000E+00  1.33468E-01
      21    -1     0     0   511   501  0.000000000E+00  0.000000000E+00  5.689672991E+02  5.689672991E+02  0.000000000E+00  0.00000E+00  9.000E+00
      21    -1     0     0   501   502  0.000000000E+00  0.000000000E+00 -2.526798205E+02  2.526798205E+02  0.000000000E+00  0.00000E+00  9.000E+00
      25     1     1     2     0     0 -1.071394208E+02 -3.352318825E+02  1.900490204E+02  4.190499978E+02  1.250000000E+02  0.00000E+00  9.000E+00
      25     1     1     2     0     0  7.266142241E+01  2.821291835E+02  8.956480445E+01  3.294289190E+02  1.250000000E+02  0.00000E+00  9.000E+00
      21     1     1     2   511   502  3.447799842E+01  5.310269898E+01  3.667365376E+01  7.316820275E+01  1.261592536E-06  0.00000E+00  9.000E+00
#rwgt            2          11   3.4280046651536159E-003           7      200866           0
</event>
<event>
      5   9999  3.19816E-02  4.33724E+01 -1.00000E+00  1.42693E-01
      21    -1     0     0   502   501  0.000000000E+00  0.000000000E+00  4.034754976E+01  4.034754976E+01  0.000000000E+00  0.00000E+00  9.000E+00
      21    -1     0     0   501   512  0.000000000E+00  0.000000000E+00 -1.146004885E+03  1.146004885E+03  0.000000000E+00  0.00000E+00  9.000E+00
      25     1     1     2     0     0  2.013423543E+01 -6.375665710E+01 -1.439530428E+02  2.020340994E+02  1.250000000E+02  0.00000E+00  9.000E+00
      25     1     1     2     0     0 -4.074153265E+01  1.019208274E+02 -7.534632734E+02  7.716084706E+02  1.250000000E+02  0.00000E+00  9.000E+00
      21     1     1     2   502   512  2.060729723E+01 -3.816417033E+01 -2.082410194E+02  2.127098652E+02  2.697398305E-06  0.00000E+00  9.000E+00
#rwgt            1           1   3.5068152781539845E-002           7      200886           0
</event>
<event>
      5   9999  3.19816E-02  4.84003E+01 -1.00000E+00  1.39886E-01
       1    -1     0     0   502     0  0.000000000E+00  0.000000000E+00  4.316066848E+02  4.316066848E+02  0.000000000E+00  0.00000E+00  9.000E+00
      21    -1     0     0   501   502  0.000000000E+00  0.000000000E+00 -1.331348205E+02  1.331348205E+02  0.000000000E+00  0.00000E+00  9.000E+00
      25     1     1     2     0     0 -1.688601295E+01 -7.064120509E+01  1.591672532E+02  2.150221658E+02  1.250000000E+02  0.00000E+00  9.000E+00
      25     1     1     2     0     0  4.392253990E+01  1.107861631E+02 -2.852772411E+01  1.750474064E+02  1.250000000E+02  0.00000E+00  9.000E+00
       1     1     1     2   501     0 -2.703652694E+01 -4.014495802E+01  1.678323353E+02  1.746719331E+02  2.697398305E-06  0.00000E+00  9.000E+00
#rwgt            1           1   2.9179364975903448E-002           7      200952           0
</event>
<event>
      5   9999  3.19816E-02  3.47373E+00 -1.00000E+00  2.78794E-01
      21    -1     0     0   502   501  0.000000000E+00  0.000000000E+00  6.457311494E+02  6.457311494E+02  0.000000000E+00  0.00000E+00  9.000E+00
      21    -1     0     0   511   502  0.000000000E+00  0.000000000E+00 -6.362039695E+01  6.362039695E+01  0.000000000E+00  0.00000E+00  9.000E+00
      25     1     1     2     0     0 -9.200080161E+01  5.075624503E+01  1.810813689E+02  2.438356128E+02  1.250000000E+02  0.00000E+00  9.000E+00
      25     1     1     2     0     0  9.052847929E+01 -4.760996876E+01  4.180386470E+02  4.481555813E+02  1.250000000E+02  0.00000E+00  9.000E+00
      21     1     1     2   511   501  1.472322324E+00 -3.146276264E+00 -1.700926343E+01  1.736035224E+01  6.743495762E-07  0.00000E+00  9.000E+00
#rwgt            1           1   2.6335488789526931E-002           7      201107           0
</event>
<event>
      5   9999  3.19816E-02  4.20176E+02 -1.00000E+00  1.01046E-01
       2    -1     0     0   502     0  0.000000000E+00  0.000000000E+00  2.543460487E+03  2.543460487E+03  0.000000000E+00  0.00000E+00  9.000E+00
      21    -1     0     0   501   502  0.000000000E+00  0.000000000E+00 -2.595167998E+03  2.595167998E+03  0.000000000E+00  0.00000E+00  9.000E+00
      25     1     1     2     0     0 -3.141700572E+02 -6.632580439E+02 -2.023904695E+03  2.156485398E+03  1.250000000E+02  0.00000E+00  9.000E+00
      25     1     1     2     0     0  7.302416238E+02  7.218443362E+02  7.292145467E+01  1.036944846E+03  1.250000000E+02  0.00000E+00  9.000E+00
       2     1     1     2   501     0 -4.160715666E+02 -5.858629230E+01  1.899275730E+03  1.945198242E+03  3.051757812E-05  0.00000E+00  9.000E+00
#rwgt            2          18   4.2409775344896226E-003           7      201515           0
</event>
<event>
      5   9999  3.19816E-02  9.13641E+01 -1.00000E+00  1.25618E-01
       1    -1     0     0   502     0  0.000000000E+00  0.000000000E+00  9.570866037E+02  9.570866037E+02  0.000000000E+00  0.00000E+00  9.000E+00
      21    -1     0     0   501   502  0.000000000E+00  0.000000000E+00 -1.703947245E+02  1.703947245E+02  0.000000000E+00  0.00000E+00  9.000E+00
      25     1     1     2     0     0 -1.765084110E+02 -1.023501990E+02  6.909791906E+02  7.312373242E+02  1.250000000E+02  0.00000E+00  9.000E+00
      25     1     1     2     0     0  9.542616042E+01  1.444579256E+02 -5.453919912E+01  2.203945748E+02  1.250000000E+02  0.00000E+00  9.000E+00
       1     1     1     2   501     0  8.108225059E+01 -4.210772654E+01  1.502518877E+02  1.758494292E+02  2.697398305E-06  0.00000E+00  9.000E+00
#rwgt            1           1   2.8729568438454339E-002           7      201549           0
</event>
<event>
      5   9999  3.19816E-02  8.27677E+00 -1.00000E+00  2.05758E-01
      21    -1     0     0   511   501  0.000000000E+00  0.000000000E+00  1.500313791E+02  1.500313791E+02  0.000000000E+00  0.00000E+00  9.000E+00
      21    -1     0     0   501   502  0.000000000E+00  0.000000000E+00 -4.468090729E+02  4.468090729E+02  0.000000000E+00  0.00000E+00  9.000E+00
      25     1     1     2     0     0  1.665166114E+02 -4.469406162E+01 -2.892978041E+02  3.592263360E+02  1.250000000E+02  0.00000E+00  9.000E+00
      25     1     1     2     0     0 -1.615689369E+02  3.805889449E+01 -3.334983286E+01  2.104523988E+02  1.250000000E+02  0.00000E+00  9.000E+00
      21     1     1     2   511   502 -4.947674474E+00  6.635167136E+00  2.586994306E+01  2.716171717E+01  5.840038640E-07  0.00000E+00  9.000E+00
#rwgt            1           1   2.7165893154309811E-002           7      201615           0
</event>
<event>
      5   9999  3.19816E-02  5.79753E+01 -1.00000E+00  1.35505E-01
      21    -1     0     0   502   501  0.000000000E+00  0.000000000E+00  3.161615600E+02  3.161615600E+02  0.000000000E+00  0.00000E+00  9.000E+00
       2    -1     0     0   501     0  0.000000000E+00  0.000000000E+00 -2.737704985E+02  2.737704985E+02  0.000000000E+00  0.00000E+00  9.000E+00
      25     1     1     2     0     0 -8.876653656E+01  5.475459858E+01  1.635065530E+02  2.307313523E+02  1.250000000E+02  0.00000E+00  9.000E+00
      25     1     1     2     0     0  4.552881271E+01 -9.337624265E+01  5.672619746E+01  1.721477765E+02  1.250000000E+02  0.00000E+00  9.000E+00
       2     1     1     2   502     0  4.323772386E+01  3.862164407E+01 -1.778416889E+02  1.870529296E+02  1.907348633E-06  0.00000E+00  9.000E+00
#rwgt            1           1   2.9958548312849862E-002           7      201871           0
</event>
<event>
      5   9999  3.19816E-02  3.83809E+01 -1.00000E+00  1.45962E-01
      21    -1     0     0   511   501  0.000000000E+00  0.000000000E+00  2.439249483E+02  2.439249483E+02  0.000000000E+00  0.00000E+00  9.000E+00
      21    -1     0     0   501   502  0.000000000E+00  0.000000000E+00 -1.125893183E+03  1.125893183E+03  0.000000000E+00  0.00000E+00  9.000E+00
      25     1     1     2     0     0  8.053653492E+01  1.931079978E+02 -1.002107337E+03  1.031320003E+03  1.250000000E+02  0.00000E+00  9.000E+00
      25     1     1     2     0     0 -5.282118990E+01 -2.196588846E+02  5.669373167E+01  2.643468988E+02  1.250000000E+02  0.00000E+00  9.000E+00
      21     1     1     2   511   502 -2.771534502E+01  2.655088683E+01  6.344537050E+01  7.415123046E+01  6.743495762E-07  0.00000E+00  9.000E+00
#rwgt            1           1   3.0303161472840741E-002           7      201987           0
</event>
<event>
      5   9999  3.19816E-02  1.00746E+02 -1.00000E+00  1.23683E-01
      21    -1     0     0   512   501  0.000000000E+00  0.000000000E+00  9.517076181E+02  9.517076181E+02  0.000000000E+00  0.00000E+00  9.000E+00
      21    -1     0     0   501   502  0.000000000E+00  0.000000000E+00 -2.749923620E+02  2.749923620E+02  0.000000000E+00  0.00000E+00  9.000E+00
      25     1     1     2     0     0 -3.288997698E+02  2.870858784E+02  3.470004337E+02  5.715134829E+02  1.250000000E+02  0.00000E+00  9.000E+00
      25     1     1     2     0     0  2.914290867E+02 -1.935674874E+02  7.193124800E+01  3.784156302E+02  1.250000000E+02  0.00000E+00  9.000E+00
      21     1     1     2   512   502  3.747068312E+01 -9.351839106E+01  2.577835745E+02  2.767708670E+02  5.394796609E-06  0.00000E+00  9.000E+00
#rwgt            1           1   2.6509728256125804E-002           7      202114           0
</event>
<event>
      5   9999  3.19816E-02  1.22791E+02 -1.00000E+00  1.19946E-01
      21    -1     0     0   502   511  0.000000000E+00  0.000000000E+00  5.514080109E+02  5.514080109E+02  0.000000000E+00  0.00000E+00  9.000E+00
      21    -1     0     0   501   502  0.000000000E+00  0.000000000E+00 -1.122101143E+03  1.122101143E+03  0.000000000E+00  0.00000E+00  9.000E+00
      25     1     1     2     0     0  2.381535434E+02  5.659140583E+02  1.527235923E+00  6.265805328E+02  1.250000000E+02  0.00000E+00  9.000E+00
      25     1     1     2     0     0 -2.108691567E+02 -6.856350453E+02 -5.690052049E+02  9.240958499E+02  1.250000000E+02  0.00000E+00  9.000E+00
      21     1     1     2   501   511 -2.728438674E+01  1.197209870E+02 -3.215163436E+00  1.228327715E+02  6.488424855E-07  0.00000E+00  9.000E+00
#rwgt            1           1   3.3904578144295636E-002           7      202216           0
</event>
<event>
      5   9999  3.19816E-02  2.27287E+01 -1.00000E+00  1.61913E-01
      21    -1     0     0   502   512  0.000000000E+00  0.000000000E+00  1.085559661E+03  1.085559661E+03  0.000000000E+00  0.00000E+00  9.000E+00
      21    -1     0     0   501   502  0.000000000E+00  0.000000000E+00 -1.677966669E+02  1.677966669E+02  0.000000000E+00  0.00000E+00  9.000E+00
      25     1     1     2     0     0 -4.437210536E+01 -3.374684579E+02  6.595860674E+02  7.526836149E+02  1.250000000E+02  0.00000E+00  9.000E+00
      25     1     1     2     0     0  2.734308517E+01  3.525219488E+02  1.738970258E+02  4.133818383E+02  1.250000000E+02  0.00000E+00  9.000E+00
      21     1     1     2   501   512  1.702902019E+01 -1.505349083E+01  8.427990065E+01  8.729087448E+01  1.348699152E-06  0.00000E+00  9.000E+00
#rwgt            1           1   3.1902184536026570E-002           7      202258           0
</event>
<event>
      5   9999  3.19816E-02  8.06688E+01 -1.00000E+00  1.28175E-01
      21    -1     0     0   502   501  0.000000000E+00  0.000000000E+00  1.518297513E+02  1.518297513E+02  0.000000000E+00  0.00000E+00  9.000E+00
      -1    -1     0     0     0   502  0.000000000E+00  0.000000000E+00 -1.098054975E+03  1.098054975E+03  0.000000000E+00  0.00000E+00  9.000E+00
      25     1     1     2     0     0 -2.737037032E+02  5.376463992E+01 -4.619930778E+02  5.539557362E+02  1.250000000E+02  0.00000E+00  9.000E+00
      25     1     1     2     0     0  3.327848628E+02 -1.086906488E+02 -2.494411783E+02  4.476665315E+02  1.250000000E+02  0.00000E+00  9.000E+00
      -1     1     1     2     0   501 -5.908115953E+01  5.492600884E+01 -2.347909680E+02  2.482624589E+02  2.697398305E-06  0.00000E+00  9.000E+00
#rwgt            1           1   2.6727082543210507E-002           7      202391           0
</event>
<event>
      5   9999  3.19816E-02  2.18533E+02 -1.00000E+00  1.10265E-01
      21    -1     0     0   502   511  0.000000000E+00  0.000000000E+00  3.368944691E+02  3.368944691E+02  0.000000000E+00  0.00000E+00  9.000E+00
      21    -1     0     0   501   502  0.000000000E+00  0.000000000E+00 -1.685015415E+03  1.685015415E+03  0.000000000E+00  0.00000E+00  9.000E+00
      25     1     1     2     0     0 -3.390484954E+02  4.164722451E+02 -2.289491220E+02  5.970307477E+02  1.250000000E+02  0.00000E+00  9.000E+00
      25     1     1     2     0     0  1.692232745E+02 -5.540074033E+02 -1.031102215E+03  1.189267631E+03  1.250000000E+02  0.00000E+00  9.000E+00
      21     1     1     2   501   511  1.698252210E+02  1.375351582E+02 -8.806960818E+01  2.356115050E+02  0.000000000E+00  0.00000E+00  9.000E+00
#rwgt            1           1   3.1817510368898461E-002           7      202477           0
</event>
<event>
      5   9999  3.19816E-02  1.30109E+02 -1.00000E+00  1.18896E-01
      21    -1     0     0   502   501  0.000000000E+00  0.000000000E+00  6.482807933E+02  6.482807933E+02  0.000000000E+00  0.00000E+00  9.000E+00
      -4    -1     0     0     0   502  0.000000000E+00  0.000000000E+00 -2.160013392E+03  2.160013392E+03  0.000000000E+00  0.00000E+00  9.000E+00
      25     1     1     2     0     0  1.692251371E+02 -1.704419057E+02  5.561757248E+02  6.185822719E+02  1.250000000E+02  0.00000E+00  9.000E+00
      25     1     1     2     0     0 -2.991034873E+02  1.781876194E+02 -5.300986597E+02  6.464080080E+02  1.250000000E+02  0.00000E+00  9.000E+00
      -4     1     1     2     0   501  1.298783502E+02 -7.745713713E+00 -1.537809664E+03  1.543303905E+03  0.000000000E+00  0.00000E+00  9.000E+00
#rwgt            2           7   3.7825417177626453E-005           7      202827           0
</event>
<event>
      5   9999  3.19816E-02  1.15127E+02 -1.00000E+00  1.21137E-01
       2    -1     0     0   502     0  0.000000000E+00  0.000000000E+00  5.618312194E+02  5.618312194E+02  0.000000000E+00  0.00000E+00  9.000E+00
      21    -1     0     0   501   502  0.000000000E+00  0.000000000E+00 -2.608067681E+02  2.608067681E+02  0.000000000E+00  0.00000E+00  9.000E+00
      25     1     1     2     0     0  1.757536056E+02 -3.475737008E+00  2.485891775E+01  2.171275580E+02  1.250000000E+02  0.00000E+00  9.000E+00
      25     1     1     2     0     0 -2.302914133E+02  1.048656097E+02 -2.475638434E+01  2.833175069E+02  1.250000000E+02  0.00000E+00  9.000E+00
       2     1     1     2   501     0  5.453780768E+01 -1.013898727E+02  3.009219178E+02  3.221929226E+02  6.607249480E-06  0.00000E+00  9.000E+00
#rwgt            2          18   3.5225364478497169E-004           7      203056           0
</event>
<event>
      5   9999  3.19816E-02  3.55524E+01 -1.00000E+00  1.48088E-01
       2    -1     0     0   502     0  0.000000000E+00  0.000000000E+00  2.152528813E+03  2.152528813E+03  0.000000000E+00  0.00000E+00  9.000E+00
      21    -1     0     0   501   502  0.000000000E+00  0.000000000E+00 -8.673822210E+01  8.673822210E+01  0.000000000E+00  0.00000E+00  9.000E+00
      25     1     1     2     0     0 -2.166272296E+01 -1.593075407E+02  2.107604642E+02  2.930753134E+02  1.250000000E+02  0.00000E+00  9.000E+00
      25     1     1     2     0     0  5.491910530E+01  1.718769022E+02  2.200088651E+02  3.107839738E+02  1.250000000E+02  0.00000E+00  9.000E+00
       2     1     1     2   501     0 -3.325638235E+01 -1.256936159E+01  1.635021262E+03  1.635407748E+03  3.051757812E-05  0.00000E+00  9.000E+00
#rwgt            1           1   2.3504338300328727E-002           7      203075           0
</event>
<event>
      5   9999  3.19816E-02  4.79942E+01 -1.00000E+00  1.40098E-01
      21    -1     0     0   511   501  0.000000000E+00  0.000000000E+00  6.879549206E+02  6.879549206E+02  0.000000000E+00  0.00000E+00  9.000E+00
      21    -1     0     0   501   502  0.000000000E+00  0.000000000E+00 -1.843465316E+02  1.843465316E+02  0.000000000E+00  0.00000E+00  9.000E+00
      25     1     1     2     0     0 -6.525300022E+01 -1.247378135E+02  8.697186836E+01  2.073802836E+02  1.250000000E+02  0.00000E+00  9.000E+00
      25     1     1     2     0     0  3.054838983E+01  1.578894835E+02 -3.847473576E+01  2.072862716E+02  1.250000000E+02  0.00000E+00  9.000E+00
      21     1     1     2   511   502  3.470461039E+01 -3.315167002E+01  4.551112563E+02  4.576348969E+02  7.629394531E-06  0.00000E+00  9.000E+00
#rwgt            1           1   2.5996207254632041E-002           7      203174           0
</event>
<event>
      5   9999  3.19816E-02  2.42041E+02 -1.00000E+00  1.08713E-01
      21    -1     0     0   512   501  0.000000000E+00  0.000000000E+00  1.668258767E+03  1.668258767E+03  0.000000000E+00  0.00000E+00  9.000E+00
      21    -1     0     0   501   502  0.000000000E+00  0.000000000E+00 -1.224772204E+02  1.224772204E+02  0.000000000E+00  0.00000E+00  9.000E+00
      25     1     1     2     0     0  1.018635728E+02 -1.420488277E+02  9.092488107E+02  9.342978415E+02  1.250000000E+02  0.00000E+00  9.000E+00
      25     1     1     2     0     0  1.370100104E+02  1.810785442E+02  1.192282545E+02  2.853095841E+02  1.250000000E+02  0.00000E+00  9.000E+00
      21     1     1     2   512   502 -2.388735832E+02 -3.902971649E+01  5.173044810E+02  5.711285613E+02  0.000000000E+00  0.00000E+00  9.000E+00
#rwgt            1           1   2.6244345020099178E-002           7      203273           0
</event>
<event>
      5   9999  3.19816E-02  4.05241E+01 -1.00000E+00  1.44490E-01
      21    -1     0     0   502   501  0.000000000E+00  0.000000000E+00  3.959029003E+02  3.959029003E+02  0.000000000E+00  0.00000E+00  9.000E+00
      21    -1     0     0   501   511  0.000000000E+00  0.000000000E+00 -9.265436854E+02  9.265436854E+02  0.000000000E+00  0.00000E+00  9.000E+00
      25     1     1     2     0     0  5.919445253E+01 -5.001977658E+02  4.521611485E+01  5.209330909E+02  1.250000000E+02  0.00000E+00  9.000E+00
      25     1     1     2     0     0 -5.610449393E+01  4.597916728E+02 -4.109885168E+02  6.317378076E+02  1.250000000E+02  0.00000E+00  9.000E+00
      21     1     1     2   502   511 -3.089958604E+00  4.040609301E+01 -1.648683831E+02  1.697756871E+02  1.907348633E-06  0.00000E+00  9.000E+00
#rwgt            1           1   2.7788623714096360E-002           7      203319           0
</event>
<event>
      5   9999  3.19816E-02  8.49079E+01 -1.00000E+00  1.27110E-01
       2    -1     0     0   502     0  0.000000000E+00  0.000000000E+00  2.543891831E+03  2.543891831E+03  0.000000000E+00  0.00000E+00  9.000E+00
      21    -1     0     0   501   502  0.000000000E+00  0.000000000E+00 -9.360925542E+01  9.360925542E+01  0.000000000E+00  0.00000E+00  9.000E+00
      25     1     1     2     0     0  3.714596189E+02 -1.739060728E+02  8.717833892E+02  9.715229531E+02  1.250000000E+02  0.00000E+00  9.000E+00
      25     1     1     2     0     0 -3.462316851E+02  2.549794860E+02  1.318195253E+03  1.392176225E+03  1.250000000E+02  0.00000E+00  9.000E+00
       2     1     1     2   501     0 -2.522793389E+01 -8.107341316E+01  2.603039337E+02  2.738019081E+02  3.814697266E-06  0.00000E+00  9.000E+00
#rwgt            1           1   2.6615585109541623E-002           7      203483           0
</event>
<event>
      5   9999  3.19816E-02  2.77290E+01 -1.00000E+00  1.55453E-01
      21    -1     0     0   502   501  0.000000000E+00  0.000000000E+00  4.269867317E+02  4.269867317E+02  0.000000000E+00  0.00000E+00  9.000E+00
      21    -1     0     0   501   511  0.000000000E+00  0.000000000E+00 -2.695326556E+02  2.695326556E+02  0.000000000E+00  0.00000E+00  9.000E+00
      25     1     1     2     0     0  2.353714174E+02 -3.562074754E+01  2.382341067E+02  3.592339508E+02  1.250000000E+02  0.00000E+00  9.000E+00
      25     1     1     2     0     0 -2.430548545E+02  8.977463737E+00 -2.451456320E+01  2.745582288E+02  1.250000000E+02  0.00000E+00  9.000E+00
      21     1     1     2   502   511  7.683437117E+00  2.664328380E+01 -5.626546740E+01  6.272720781E+01  1.168007728E-06  0.00000E+00  9.000E+00
#rwgt            1           1   2.7454156930695469E-002           7      203564           0
</event>
<event>
      5   9999  3.19816E-02  2.37383E+02 -1.00000E+00  1.09004E-01
      21    -1     0     0   512   501  0.000000000E+00  0.000000000E+00  2.073940737E+03  2.073940737E+03  0.000000000E+00  0.00000E+00  9.000E+00
      21    -1     0     0   501   502  0.000000000E+00  0.000000000E+00 -1.351178434E+02  1.351178434E+02  0.000000000E+00  0.00000E+00  9.000E+00
      25     1     1     2     0     0  5.408867549E+01 -1.969826478E+01 -1.429994403E+01  1.383585735E+02  1.250000000E+02  0.00000E+00  9.000E+00
      25     1     1     2     0     0 -2.093495261E+02 -1.598695022E+02  3.759427870E+02  4.757556736E+02  1.250000000E+02  0.00000E+00  9.000E+00
      21     1     1     2   512   502  1.552608506E+02  1.795677669E+02  1.577180051E+03  1.594944333E+03  2.157918644E-05  0.00000E+00  9.000E+00
#rwgt            2          11   1.3578137391521560E-003           7      203916           0
</event>
<event>
      5   9999  3.19816E-02  2.78432E+02 -1.00000E+00  1.06656E-01
       1    -1     0     0   502     0  0.000000000E+00  0.000000000E+00  3.488608663E+03  3.488608663E+03  0.000000000E+00  0.00000E+00  9.000E+00
      21    -1     0     0   501   502  0.000000000E+00  0.000000000E+00 -2.753525337E+02  2.753525337E+02  0.000000000E+00  0.00000E+00  9.000E+00
      25     1     1     2     0     0 -2.295235423E+02  5.903751915E+01 -1.893906248E+02  3.281162811E+02  1.250000000E+02  0.00000E+00  9.000E+00
      25     1     1     2     0     0 -2.847094388E+01  4.566832800E+01  2.067534337E+03  2.072008549E+03  1.250000000E+02  0.00000E+00  9.000E+00
       1     1     1     2   501     0  2.579944862E+02 -1.047058472E+02  1.335112417E+03  1.363836366E+03  2.157918644E-05  0.00000E+00  9.000E+00
#rwgt            2          17   3.6983004712119462E-004           7      203936           0
</event>
<event>
      5   9999  3.19816E-02  7.19390E+01 -1.00000E+00  1.30623E-01
      21    -1     0     0   502   501  0.000000000E+00  0.000000000E+00  7.878093442E+02  7.878093442E+02  0.000000000E+00  0.00000E+00  9.000E+00
      21    -1     0     0   511   502  0.000000000E+00  0.000000000E+00 -7.377815700E+02  7.377815700E+02  0.000000000E+00  0.00000E+00  9.000E+00
      25     1     1     2     0     0  2.010915603E+02 -2.265368168E+02  2.666377268E+02  4.224658830E+02  1.250000000E+02  0.00000E+00  9.000E+00
      25     1     1     2     0     0 -1.316500291E+02  2.453276981E+02  3.883396510E+02  4.939130431E+02  1.250000000E+02  0.00000E+00  9.000E+00
      21     1     1     2   511   501 -6.944153121E+01 -1.879088127E+01 -6.049496036E+02  6.092119880E+02  0.000000000E+00  0.00000E+00  9.000E+00
#rwgt            1           1   2.7349455324440670E-002           7      203955           0
</event>
<event>
      5   9999  3.19816E-02  3.57349E+01 -1.00000E+00  1.47944E-01
      21    -1     0     0   502   512  0.000000000E+00  0.000000000E+00  2.419561203E+03  2.419561203E+03  0.000000000E+00  0.00000E+00  9.000E+00
      21    -1     0     0   501   502  0.000000000E+00  0.000000000E+00 -5.049688932E+02  5.049688932E+02  0.000000000E+00  0.00000E+00  9.000E+00
      25     1     1     2     0     0 -6.826464730E+02  8.221382325E+02  9.865707554E+02  1.459748038E+03  1.250000000E+02  0.00000E+00  9.000E+00
      25     1     1     2     0     0  7.124313213E+02 -8.023936648E+02  8.357485869E+02  1.365831132E+03  1.250000000E+02  0.00000E+00  9.000E+00
      21     1     1     2   501   512 -2.978484827E+01 -1.974456774E+01  9.227296701E+01  9.895092513E+01  1.907348633E-06  0.00000E+00  9.000E+00
#rwgt            1           1   1.9342082615367372E-002           7      204051           0
</event>
<event>
      5   9999  3.19816E-02  4.50483E+01 -1.00000E+00  1.41710E-01
      21    -1     0     0   502   501  0.000000000E+00  0.000000000E+00  2.498367429E+02  2.498367429E+02  0.000000000E+00  0.00000E+00  9.000E+00
      21    -1     0     0   511   502  0.000000000E+00  0.000000000E+00 -3.455645874E+02  3.455645874E+02  0.000000000E+00  0.00000E+00  9.000E+00
      25     1     1     2     0     0  2.506489871E+02  4.584559955E+01 -4.852452715E+01  2.879346514E+02  1.250000000E+02  0.00000E+00  9.000E+00
      25     1     1     2     0     0 -2.094177422E+02 -2.769801792E+01 -4.651209113E+00  2.454986857E+02  1.250000000E+02  0.00000E+00  9.000E+00
      21     1     1     2   511   501 -4.123124489E+01 -1.814758163E+01 -4.255210825E+01  6.196799327E+01  4.768371582E-07  0.00000E+00  9.000E+00
#rwgt            1           1   3.0270946363765823E-002           7      204213           0
</event>
<event>
      5   9999  3.19816E-02  4.42856E+02 -1.00000E+00  1.00373E-01
      21    -1     0     0   502   501  0.000000000E+00  0.000000000E+00  3.989466517E+02  3.989466517E+02  0.000000000E+00  0.00000E+00  9.000E+00
       2    -1     0     0   501     0  0.000000000E+00  0.000000000E+00 -2.700259011E+03  2.700259011E+03  0.000000000E+00  0.00000E+00  9.000E+00
      25     1     1     2     0     0 -1.623587701E+02  7.521937551E+01 -1.467096723E+02  2.629962977E+02  1.250000000E+02  0.00000E+00  9.000E+00
      25     1     1     2     0     0  3.213768527E+02  3.381024544E+02  1.371762080E+02  5.020345239E+02  1.250000000E+02  0.00000E+00  9.000E+00
       2     1     1     2   502     0 -1.590180826E+02 -4.133218299E+02 -2.291778895E+03  2.334174841E+03  3.051757812E-05  0.00000E+00  9.000E+00
#rwgt            2          13   3.0943128217018269E-003           7      204341           0
</event>
<event>
      5   9999  3.19816E-02  5.53323E+01 -1.00000E+00  1.36610E-01
      21    -1     0     0   511   501  0.000000000E+00  0.000000000E+00  3.216675959E+01  3.216675959E+01  0.000000000E+00  0.00000E+00  9.000E+00
      21    -1     0     0   501   502  0.000000000E+00  0.000000000E+00 -1.318953760E+03  1.318953760E+03  0.000000000E+00  0.00000E+00  9.000E+00
      25     1     1     2     0     0  7.213847020E+01  1.229672049E+02 -6.258003450E+02  6.538929302E+02  1.250000000E+02  0.00000E+00  9.000E+00
      25     1     1     2     0     0 -7.662761921E+01 -6.781735321E+01 -5.496850088E+02  5.729307064E+02  1.250000000E+02  0.00000E+00  9.000E+00
      21     1     1     2   511   502  4.489149014E+00 -5.514985167E+01 -1.113016469E+02  1.242968833E+02  2.697398305E-06  0.00000E+00  9.000E+00
#rwgt            1           1   2.4831913531896718E-002           7      204360           0
</event>
<event>
      5   9999  3.19816E-02  1.28729E+02 -1.00000E+00  1.19088E-01
      21    -1     0     0   502   501  0.000000000E+00  0.000000000E+00  6.680438022E+02  6.680438022E+02  0.000000000E+00  0.00000E+00  9.000E+00
      21    -1     0     0   501   512  0.000000000E+00  0.000000000E+00 -2.436917258E+02  2.436917258E+02  0.000000000E+00  0.00000E+00  9.000E+00
      25     1     1     2     0     0  2.962763369E+02 -1.420018767E+02  3.667339741E+02  5.079990242E+02  1.250000000E+02  0.00000E+00  9.000E+00
      25     1     1     2     0     0 -1.693237089E+02  1.633150772E+02  1.033220674E+01  2.665972381E+02  1.250000000E+02  0.00000E+00  9.000E+00
      21     1     1     2   502   512 -1.269526280E+02 -2.131320054E+01  4.728589554E+01  1.371392657E+02  1.651812370E-06  0.00000E+00  9.000E+00
#rwgt            1           1   2.9558175588345056E-002           7      204432           0
</event>
<event>
      5   9999  3.19816E-02  2.48376E+02 -1.00000E+00  1.08327E-01
      21    -1     0     0   502   501  0.000000000E+00  0.000000000E+00  4.127516195E+02  4.127516195E+02  0.000000000E+00  0.00000E+00  9.000E+00
      21    -1     0     0   511   502  0.000000000E+00  0.000000000E+00 -2.863782397E+02  2.863782397E+02  0.000000000E+00  0.00000E+00  9.000E+00
      25     1     1     2     0     0 -2.067565840E+01 -8.765614446E+01 -3.004961391E+01  1.569683465E+02  1.250000000E+02  0.00000E+00  9.000E+00
      25     1     1     2     0     0  2.258140370E+02 -5.237524349E+01  1.259261190E+02  2.919204222E+02  1.250000000E+02  0.00000E+00  9.000E+00
      21     1     1     2   511   501 -2.051383786E+02  1.400313880E+02  3.049687471E+01  2.502410905E+02  2.589888690E-06  0.00000E+00  9.000E+00
#rwgt            2          11   4.0327489530773081E-003           7      204470           0
</event>
<event>
      5   9999  3.19816E-02  2.41419E+02 -1.00000E+00  1.08751E-01
      21    -1     0     0   512   501  0.000000000E+00  0.000000000E+00  3.455429468E+02  3.455429468E+02  0.000000000E+00  0.00000E+00  9.000E+00
      21    -1     0     0   501   502  0.000000000E+00  0.000000000E+00 -6.918503820E+02  6.918503820E+02  0.000000000E+00  0.00000E+00  9.000E+00
      25     1     1     2     0     0  4.125411803E+01 -4.474108698E+02 -2.915129238E+02  5.499847029E+02  1.250000000E+02  0.00000E+00  9.000E+00
      25     1     1     2     0     0 -2.824585597E+01  2.063428274E+02 -2.784016569E+01  2.444898068E+02  1.250000000E+02  0.00000E+00  9.000E+00
      21     1     1     2   512   502 -1.300826205E+01  2.410680424E+02 -2.695434568E+01  2.429188192E+02  3.724217260E-06  0.00000E+00  9.000E+00
#rwgt            1           1   2.7743389955231783E-002           7      204505           0
</event>
<event>
      5   9999  3.19816E-02  2.79843E+01 -1.00000E+00  1.55168E-01
      21    -1     0     0   502   501  0.000000000E+00  0.000000000E+00  3.823232015E+02  3.823232015E+02  0.000000000E+00  0.00000E+00  9.000E+00
      21    -1     0     0   511   502  0.000000000E+00  0.000000000E+00 -2.084935371E+02  2.084935371E+02  0.000000000E+00  0.00000E+00  9.000E+00
      25     1     1     2     0     0  1.325680363E+01  1.385763140E+02 -6.041372337E+01  1.966060925E+02  1.250000000E+02  0.00000E+00  9.000E+00
      25     1     1     2     0     0  3.435393559E+00 -1.161154775E+02  2.873397272E+02  3.341911502E+02  1.250000000E+02  0.00000E+00  9.000E+00
      21     1     1     2   511   501 -1.669219719E+01 -2.246083658E+01 -5.309633944E+01  6.001949591E+01  6.743495762E-07  0.00000E+00  9.000E+00
#rwgt            1           1   3.3388982695436130E-002           7      204545           0
</event>
<event>
      5   9999  3.19816E-02  1.20637E+02 -1.00000E+00  1.20271E-01
      21    -1     0     0   502   512  0.000000000E+00  0.000000000E+00  1.617164401E+03  1.617164401E+03  0.000000000E+00  0.00000E+00  9.000E+00
      21    -1     0     0   501   502  0.000000000E+00  0.000000000E+00 -3.388152131E+02  3.388152131E+02  0.000000000E+00  0.00000E+00  9.000E+00
      25     1     1     2     0     0 -1.531185986E+02 -5.536862829E+02  2.331703349E+02  6.324612322E+02  1.250000000E+02  0.00000E+00  9.000E+00
      25     1     1     2     0     0  2.417801466E+02  6.354939252E+02  8.920154972E+02  1.128550759E+03  1.250000000E+02  0.00000E+00  9.000E+00
      21     1     1     2   501   512 -8.866154794E+01 -8.180764231E+01  1.531633553E+02  1.949676225E+02  0.000000000E+00  0.00000E+00  9.000E+00
#rwgt            1           1   3.1029598970932850E-002           7      204673           0
</event>
<event>
      5   9999  3.19816E-02  2.58245E+02 -1.00000E+00  1.07751E-01
      21    -1     0     0   502   501  0.000000000E+00  0.000000000E+00  1.279357546E+03  1.279357546E+03  0.000000000E+00  0.00000E+00  9.000E+00
      21    -1     0     0   511   502  0.000000000E+00  0.000000000E+00 -3.269415706E+02  3.269415706E+02  0.000000000E+00  0.00000E+00  9.000E+00
      25     1     1     2     0     0 -3.769259582E+02 -1.530826139E+02  7.192526952E+02  8.357373416E+02  1.250000000E+02  0.00000E+00  9.000E+00
      25     1     1     2     0     0  1.207446356E+02  1.856640053E+02  3.920817684E+02  4.673366056E+02  1.250000000E+02  0.00000E+00  9.000E+00
      21     1     1     2   511   501  2.561813227E+02 -3.258139139E+01 -1.589184885E+02  3.032251690E+02  5.394796609E-06  0.00000E+00  9.000E+00
#rwgt            2          11   5.9958793851234860E-003           7      204735           0
</event>
<event>
      5   9999  3.19816E-02  8.39711E+01 -1.00000E+00  1.27339E-01
      21    -1     0     0   502   501  0.000000000E+00  0.000000000E+00  5.735158398E+02  5.735158398E+02  0.000000000E+00  0.00000E+00  9.000E+00
       1    -1     0     0   501     0  0.000000000E+00  0.000000000E+00 -2.339015108E+03  2.339015108E+03  0.000000000E+00  0.00000E+00  9.000E+00
      25     1     1     2     0     0 -9.648816072E+02 -1.930471717E+02 -4.371334634E+02  1.083962357E+03  1.250000000E+02  0.00000E+00  9.000E+00
      25     1     1     2     0     0  9.217490437E+02  2.650939169E+02 -6.983594644E+02  1.192990790E+03  1.250000000E+02  0.00000E+00  9.000E+00
       1     1     1     2   502     0  4.313256349E+01 -7.204674512E+01 -6.300063404E+02  6.355778005E+02  0.000000000E+00  0.00000E+00  9.000E+00
#rwgt            1           1   3.1347894755227326E-002           7      204755           0
</event>
<event>
      5   9999  3.19816E-02  1.30962E+02 -1.00000E+00  1.18779E-01
      21    -1     0     0   502   501  0.000000000E+00  0.000000000E+00  1.799405633E+02  1.799405633E+02  0.000000000E+00  0.00000E+00  9.000E+00
       2    -1     0     0   501     0  0.000000000E+00  0.000000000E+00 -1.337609845E+03  1.337609845E+03  0.000000000E+00  0.00000E+00  9.000E+00
      25     1     1     2     0     0 -2.768835922E+02  2.189967425E+02 -7.235974618E+02  8.147652322E+02  1.250000000E+02  0.00000E+00  9.000E+00
      25     1     1     2     0     0  1.678082531E+02 -1.465149479E+02 -4.960045187E+02  5.579173078E+02  1.250000000E+02  0.00000E+00  9.000E+00
       2     1     1     2   502     0  1.090753390E+02 -7.248179455E+01  6.193269873E+01  1.448678684E+02  4.815819234E-06  0.00000E+00  9.000E+00
#rwgt            2          13   1.0778560905663046E-004           7      204960           0
</event>
<event>
      5   9999  3.19816E-02  2.10745E+02 -1.00000E+00  1.10827E-01
      21    -1     0     0   502   501  0.000000000E+00  0.000000000E+00  1.506753875E+02  1.506753875E+02  0.000000000E+00  0.00000E+00  9.000E+00
      21    -1     0     0   501   511  0.000000000E+00  0.000000000E+00 -1.025277276E+03  1.025277276E+03  0.000000000E+00  0.00000E+00  9.000E+00
      25     1     1     2     0     0  4.662720664E+01 -6.534715635E+01  1.281651106E+01  1.491093900E+02  1.250000000E+02  0.00000E+00  9.000E+00
      25     1     1     2     0     0  1.588070630E+02  1.833458462E+01 -1.308214176E+02  2.414437482E+02  1.250000000E+02  0.00000E+00  9.000E+00
      21     1     1     2   502   511 -2.054342696E+02  4.701257173E+01 -7.565969822E+02  7.853995254E+02  1.078959322E-05  0.00000E+00  9.000E+00
#rwgt            1           1   6.4541821741683464E-002           7      205039           0
</event>
<event>
      5   9999  3.19816E-02  2.43277E+01 -1.00000E+00  1.59643E-01
      21    -1     0     0   512   501  0.000000000E+00  0.000000000E+00  1.471804814E+02  1.471804814E+02  0.000000000E+00  0.00000E+00  9.000E+00
      21    -1     0     0   501   502  0.000000000E+00  0.000000000E+00 -1.841622535E+03  1.841622535E+03  0.000000000E+00  0.00000E+00  9.000E+00
      25     1     1     2     0     0  3.387408770E+02  1.363978801E+02 -1.302055410E+03  1.358058561E+03  1.250000000E+02  0.00000E+00  9.000E+00
      25     1     1     2     0     0 -3.565782937E+02 -1.529406827E+02 -4.257656941E+02  5.894407165E+02  1.250000000E+02  0.00000E+00  9.000E+00
      21     1     1     2   512   502  1.783741674E+01  1.654280262E+01  3.337905123E+01  4.130373851E+01  8.259061849E-07  0.00000E+00  9.000E+00
#rwgt            1           1   3.1015672299946302E-002           7      205095           0
</event>
<event>
      5   9999  3.19816E-02  1.50810E+02 -1.00000E+00  1.16301E-01
      21    -1     0     0   502   501  0.000000000E+00  0.000000000E+00  2.368877986E+02  2.368877986E+02  0.000000000E+00  0.00000E+00  9.000E+00
      21    -1     0     0   501   511  0.000000000E+00  0.000000000E+00 -1.720095099E+03  1.720095099E+03  0.000000000E+00  0.00000E+00  9.000E+00
      25     1     1     2     0     0 -8.062240280E+01  4.059296305E+02 -1.496468355E+02  4.574909968E+02  1.250000000E+02  0.00000E+00  9.000E+00
      25     1     1     2     0     0 -1.840013145E+01 -5.196761887E+02 -1.037265887E+03  1.167025032E+03  1.250000000E+02  0.00000E+00  9.000E+00
      21     1     1     2   502   511  9.902253425E+01  1.137465582E+02 -2.962945782E+02  3.324668688E+02  5.394796609E-06  0.00000E+00  9.000E+00
#rwgt            1           1   2.6161684143768325E-002           7      205240           0
</event>
<event>
      5   9999  3.19816E-02  7.46781E+01 -1.00000E+00  1.29813E-01
      21    -1     0     0   502   512  0.000000000E+00  0.000000000E+00  5.008835649E+02  5.008835649E+02  0.000000000E+00  0.00000E+00  9.000E+00
      21    -1     0     0   501   502  0.000000000E+00  0.000000000E+00 -8.470930218E+02  8.470930218E+02  0.000000000E+00  0.00000E+00  9.000E+00
      25     1     1     2     0     0 -3.986999519E+02  3.225534038E+02  2.039061301E+02  5.658666450E+02  1.250000000E+02  0.00000E+00  9.000E+00
      25     1     1     2     0     0  3.492225098E+02 -2.666176796E+02 -5.391251778E+02  7.066274165E+02  1.250000000E+02  0.00000E+00  9.000E+00
      21     1     1     2   501   512  4.947744208E+01 -5.593572420E+01 -1.099040934E+01  7.548252522E+01  6.194296387E-07  0.00000E+00  9.000E+00
#rwgt            1           1   3.1707394069739200E-002           7      205391           0
</event>
<event>
      5   9999  3.19816E-02  7.43092E+01 -1.00000E+00  1.29920E-01
      21    -1     0     0   502   501  0.000000000E+00  0.000000000E+00  3.961067775E+02  3.961067775E+02  0.000000000E+00  0.00000E+00  9.000E+00
       1    -1     0     0   501     0  0.000000000E+00  0.000000000E+00 -3.362021395E+03  3.362021395E+03  0.000000000E+00  0.00000E+00  9.000E+00
      25     1     1     2     0     0 -4.913127041E+01  1.992267622E+02  2.234038068E+02  3.280845095E+02  1.250000000E+02  0.00000E+00  9.000E+00
      25     1     1     2     0     0  1.037240899E+02 -1.488136920E+02  1.877285505E+01  2.210918855E+02  1.250000000E+02  0.00000E+00  9.000E+00
       1     1     1     2   502     0 -5.459281949E+01 -5.041307015E+01 -3.208091279E+03  3.208951777E+03  6.103515625E-05  0.00000E+00  9.000E+00
#rwgt            1           1   2.6332647286613192E-002           7      205565           0
</event>
<event>
      5   9999  3.19816E-02  2.70272E+01 -1.00000E+00  1.56256E-01
      21    -1     0     0   502   511  0.000000000E+00  0.000000000E+00  1.127529634E+02  1.127529634E+02  0.000000000E+00  0.00000E+00  9.000E+00
      21    -1     0     0   501   502  0.000000000E+00  0.000000000E+00 -7.750561357E+02  7.750561357E+02  0.000000000E+00  0.00000E+00  9.000E+00
      25     1     1     2     0     0 -1.519589414E+02 -9.567611644E+01 -5.670955057E+02  6.078385902E+02  1.250000000E+02  0.00000E+00  9.000E+00
      25     1     1     2     0     0  1.743201745E+02  8.049573416E+01 -1.039142572E+02  2.515755538E+02  1.250000000E+02  0.00000E+00  9.000E+00
      21     1     1     2   501   511 -2.236123305E+01  1.518038228E+01  8.706590597E+00  2.839495500E+01  5.591411304E-07  0.00000E+00  9.000E+00
#rwgt            1           1   2.7637700796116233E-002           7      205625           0
</event>
<event>
      5   9999  3.19816E-02  1.85471E+01 -1.00000E+00  1.69118E-01
      21    -1     0     0   502   512  0.000000000E+00  0.000000000E+00  1.744374255E+03  1.744374255E+03  0.000000000E+00  0.00000E+00  9.000E+00
      21    -1     0     0   501   502  0.000000000E+00  0.000000000E+00 -5.187457535E+01  5.187457535E+01  0.000000000E+00  0.00000E+00  9.000E+00
      25     1     1     2     0     0  1.090968646E+02  2.069056826E+02  9.369821244E+02  9.737928880E+02  1.250000000E+02  0.00000E+00  9.000E+00
      25     1     1     2     0     0 -9.055107399E+01 -2.071295564E+02  4.697714161E+02  5.361085091E+02  1.250000000E+02  0.00000E+00  9.000E+00
      21     1     1     2   501   512 -1.854579057E+01  2.238738577E-01  2.857461387E+02  2.863474327E+02  5.394796609E-06  0.00000E+00  9.000E+00
#rwgt            1           1   2.9217124665371127E-002           7      205844           0
</event>
<event>
      5   9999  3.19816E-02  6.43759E+01 -1.00000E+00  1.33090E-01
      21    -1     0     0   502   501  0.000000000E+00  0.000000000E+00  1.799019376E+02  1.799019376E+02  0.000000000E+00  0.00000E+00  9.000E+00
       2    -1     0     0   501     0  0.000000000E+00  0.000000000E+00 -2.418257810E+03  2.418257810E+03  0.000000000E+00  0.00000E+00  9.000E+00
      25     1     1     2     0     0 -3.405494022E+02 -1.796084639E+02 -8.505420959E+02  9.419553878E+02  1.250000000E+02  0.00000E+00  9.000E+00
      25     1     1     2     0     0  3.977721589E+02  1.501159032E+02 -2.350195661E+02  5.016140660E+02  1.250000000E+02  0.00000E+00  9.000E+00
       2     1     1     2   502     0 -5.722275671E+01  2.949256075E+01 -1.152794210E+03  1.154590294E+03  2.157918644E-05  0.00000E+00  9.000E+00
#rwgt            1           1   2.6871567878213282E-002           7      206012           0
</event>
<event>
      5   9999  3.19816E-02  2.74233E+02 -1.00000E+00  1.06875E-01
      21    -1     0     0   502   501  0.000000000E+00  0.000000000E+00  9.305379903E+02  9.305379903E+02  0.000000000E+00  0.00000E+00  9.000E+00
      21    -1     0     0   511   502  0.000000000E+00  0.000000000E+00 -9.639113223E+02  9.639113223E+02  0.000000000E+00  0.00000E+00  9.000E+00
      25     1     1     2     0     0 -6.659092480E+01 -2.130010461E+02  7.446101720E+02  7.873202049E+02  1.250000000E+02  0.00000E+00  9.000E+00
      25     1     1     2     0     0 -2.008120593E+02  1.521785149E+02  1.021180746E+00  2.812646909E+02  1.250000000E+02  0.00000E+00  9.000E+00
      21     1     1     2   511   501  2.674029841E+02  6.082253128E+01 -7.790046846E+02  8.258644168E+02  1.078959322E-05  0.00000E+00  9.000E+00
#rwgt            2          11   6.3391956746678751E-003           7      206386           0
</event>
<event>
      5   9999  3.19816E-02  9.74753E+01 -1.00000E+00  1.24329E-01
      21    -1     0     0   502   512  0.000000000E+00  0.000000000E+00  5.451667898E+02  5.451667898E+02  0.000000000E+00  0.00000E+00  9.000E+00
      21    -1     0     0   501   502  0.000000000E+00  0.000000000E+00 -1.473931389E+03  1.473931389E+03  0.000000000E+00  0.00000E+00  9.000E+00
      25     1     1     2     0     0  5.099132804E+02 -1.729643588E+02 -8.998819175E+02  1.056096912E+03  1.250000000E+02  0.00000E+00  9.000E+00
      25     1     1     2     0     0 -4.411344458E+02  1.038925464E+02 -3.762932187E+02  6.021750966E+02  1.250000000E+02  0.00000E+00  9.000E+00
      21     1     1     2   501   512 -6.877883461E+01  6.907181238E+01  3.474105372E+02  3.608261697E+02  3.814697266E-06  0.00000E+00  9.000E+00
#rwgt            1           1   2.8938393071423485E-002           7      206421           0
</event>
<event>
      5   9999  4.90683E-02  1.40825E+02 -1.00000E+00  1.17490E-01
      21    -1     0     0   502   501  0.000000000E+00  0.000000000E+00  6.921775615E+01  6.921775615E+01  0.000000000E+00  0.00000E+00  9.000E+00
       2    -1     0     0   501     0  0.000000000E+00  0.000000000E+00 -2.427934843E+03  2.427934843E+03  0.000000000E+00  0.00000E+00  9.000E+00
      25     1     1     2     0     0 -1.010188504E+01 -1.098103293E+02 -1.683051082E+03  1.691285399E+03  1.250000000E+02  0.00000E+00  9.000E+00
      25     1     1     2     0     0  1.421058023E+02  1.588665468E+02 -2.267107939E+02  3.353437382E+02  1.250000000E+02  0.00000E+00  9.000E+00
       2     1     1     2   502     0 -1.320039173E+02 -4.905621745E+01 -4.489552107E+02  4.705234615E+02  9.344061824E-06  0.00000E+00  9.000E+00
#rwgt            1           1   4.3133336201885301E-002           7      206530           0
</event>
<event>
      5   9999  3.19816E-02  1.06947E+02 -1.00000E+00  1.22530E-01
      21    -1     0     0   502   511  0.000000000E+00  0.000000000E+00  1.059851134E+03  1.059851134E+03  0.000000000E+00  0.00000E+00  9.000E+00
      21    -1     0     0   501   502  0.000000000E+00  0.000000000E+00 -1.464019643E+02  1.464019643E+02  0.000000000E+00  0.00000E+00  9.000E+00
      25     1     1     2     0     0 -1.585099016E+02 -3.931481748E+01  1.593434872E+02  2.601660829E+02  1.250000000E+02  0.00000E+00  9.000E+00
      25     1     1     2     0     0  2.445179679E+02 -2.424814481E+01  1.160235607E+02  2.991044563E+02  1.250000000E+02  0.00000E+00  9.000E+00
      21     1     1     2   501   511 -8.600806624E+01  6.356296229E+01  6.380821213E+02  6.469825587E+02  0.000000000E+00  0.00000E+00  9.000E+00
#rwgt            1           1   2.8909163341934663E-002           7      206610           0
</event>
<event>
      5   9999  3.19816E-02  3.23533E+01 -1.00000E+00  1.50796E-01
      21    -1     0     0   512   501  0.000000000E+00  0.000000000E+00  5.618243955E+02  5.618243955E+02  0.000000000E+00  0.00000E+00  9.000E+00
      21    -1     0     0   501   502  0.000000000E+00  0.000000000E+00 -2.884877719E+02  2.884877719E+02  0.000000000E+00  0.00000E+00  9.000E+00
      25     1     1     2     0     0 -2.860168261E+02  7.051060418E+01 -1.017346017E+02  3.357860916E+02  1.250000000E+02  0.00000E+00  9.000E+00
      25     1     1     2     0     0  2.750126425E+02 -1.009350001E+02  3.524843747E+02  4.750684816E+02  1.250000000E+02  0.00000E+00  9.000E+00
      21     1     1     2   512   502  1.100418367E+01  3.042439591E+01  2.258685058E+01  3.945759425E+01  7.539457465E-07  0.00000E+00  9.000E+00
#rwgt            1           1   2.5219085965801462E-002           7      206655           0
</event>
<event>
      5   9999  3.19816E-02  1.67562E+02 -1.00000E+00  1.14519E-01
      21    -1     0     0   502   501  0.000000000E+00  0.000000000E+00  2.660771825E+02  2.660771825E+02  0.000000000E+00  0.00000E+00  9.000E+00
      21    -1     0     0   511   502  0.000000000E+00  0.000000000E+00 -5.704899162E+02  5.704899162E+02  0.000000000E+00  0.00000E+00  9.000E+00
      25     1     1     2     0     0  1.010102970E+02 -1.587563588E+02 -5.864168188E+01  2.333891781E+02  1.250000000E+02  0.00000E+00  9.000E+00
      25     1     1     2     0     0 -1.916307901E+02  2.996989381E+02 -1.272796498E+02  3.979534174E+02  1.250000000E+02  0.00000E+00  9.000E+00
      21     1     1     2   511   501  9.062049301E+01 -1.409425792E+02 -1.184914019E+02  2.052245032E+02  3.568322551E-06  0.00000E+00  9.000E+00
#rwgt            1           1   2.6208543142670637E-002           7      206799           0
</event>
<event>
      5   9999  3.19816E-02  5.34489E+01 -1.00000E+00  1.37443E-01
      -2    -1     0     0     0   501  0.000000000E+00  0.000000000E+00  6.782592363E+02  6.782592363E+02  0.000000000E+00  0.00000E+00  9.000E+00
      21    -1     0     0   501   502  0.000000000E+00  0.000000000E+00 -1.394970774E+03  1.394970774E+03  0.000000000E+00  0.00000E+00  9.000E+00
      25     1     1     2     0     0  2.975616079E+01  1.713542252E+02 -6.303799086E+01  2.232632704E+02  1.250000000E+02  0.00000E+00  9.000E+00
      25     1     1     2     0     0 -2.077892479E+00 -2.170783505E+02 -1.238056113E+03  1.263144991E+03  1.250000000E+02  0.00000E+00  9.000E+00
      -2     1     1     2     0   502 -2.767826831E+01  4.572412530E+01  5.843825661E+02  5.868217496E+02  7.629394531E-06  0.00000E+00  9.000E+00
#rwgt            1           1   2.7104417485510349E-002           7      206835           0
</event>
<event>
      5   9999  3.19816E-02  2.51071E+01 -1.00000E+00  1.58612E-01
      21    -1     0     0   511   501  0.000000000E+00  0.000000000E+00  2.143055451E+02  2.143055451E+02  0.000000000E+00  0.00000E+00  9.000E+00
      21    -1     0     0   501   502  0.000000000E+00  0.000000000E+00 -4.328723617E+02  4.328723617E+02  0.000000000E+00  0.00000E+00  9.000E+00
      25     1     1     2     0     0  8.941621315E+01  1.180866681E+02  1.044630268E+02  2.201754853E+02  1.250000000E+02  0.00000E+00  9.000E+00
      25     1     1     2     0     0 -7.679621496E+01 -9.638173184E+01 -3.491381656E+02  3.907807001E+02  1.250000000E+02  0.00000E+00  9.000E+00
      21     1     1     2   511   502 -1.261999819E+01 -2.170493621E+01  2.610832231E+01  3.622172144E+01  6.743495762E-07  0.00000E+00  9.000E+00
#rwgt            1           1   3.3476821629240622E-002           7      206949           0
</event>
<event>
      5   9999  3.19816E-02  1.27107E+01 -1.00000E+00  1.84439E-01
      21    -1     0     0   502   501  0.000000000E+00  0.000000000E+00  7.071507207E+01  7.071507207E+01  0.000000000E+00  0.00000E+00  9.000E+00
      21    -1     0     0   501   512  0.000000000E+00  0.000000000E+00 -2.886596503E+03  2.886596503E+03  0.000000000E+00  0.00000E+00  9.000E+00
      25     1     1     2     0     0 -2.361237451E+01  2.042714966E+02 -3.388209932E+02  4.155827884E+02  1.250000000E+02  0.00000E+00  9.000E+00
      25     1     1     2     0     0  1.410455057E+01 -1.958357176E+02 -3.868079673E+02  4.514376703E+02  1.250000000E+02  0.00000E+00  9.000E+00
      21     1     1     2   502   512  9.507823945E+00 -8.435779020E+00 -2.090252470E+03  2.090291116E+03  0.000000000E+00  0.00000E+00  9.000E+00
#rwgt            1           1   2.7669101554576365E-002           7      207067           0
</event>
<event>
      5   9999  3.19816E-02  7.28652E+02 -1.00000E+00  9.44176E-02
      21    -1     0     0   502   501  0.000000000E+00  0.000000000E+00  2.225745427E+03  2.225745427E+03  0.000000000E+00  0.00000E+00  9.000E+00
       2    -1     0     0   501     0  0.000000000E+00  0.000000000E+00 -1.586708589E+03  1.586708589E+03  0.000000000E+00  0.00000E+00  9.000E+00
      25     1     1     2     0     0  1.755798091E+02 -1.662264784E+03  2.116040752E+02  1.689483284E+03  1.250000000E+02  0.00000E+00  9.000E+00
      25     1     1     2     0     0 -4.195065752E+02  9.756549371E+02  7.700777124E+02  1.317775780E+03  1.250000000E+02  0.00000E+00  9.000E+00
       2     1     1     2   502     0  2.439267662E+02  6.866098470E+02 -3.426449494E+02  8.051949519E+02  1.265191952E-05  0.00000E+00  9.000E+00
#rwgt            2          13   2.1647198362301566E-003           7      207294           0
</event>
<event>
      5   9999  3.19816E-02  6.17065E+01 -1.00000E+00  1.34056E-01
      21    -1     0     0   502   501  0.000000000E+00  0.000000000E+00  5.108156232E+02  5.108156232E+02  0.000000000E+00  0.00000E+00  9.000E+00
      21    -1     0     0   511   502  0.000000000E+00  0.000000000E+00 -3.579268491E+02  3.579268491E+02  0.000000000E+00  0.00000E+00  9.000E+00
      25     1     1     2     0     0 -1.828497153E+02  2.280719293E+02 -8.816755086E+01  3.299232340E+02  1.250000000E+02  0.00000E+00  9.000E+00
      25     1     1     2     0     0  1.812639023E+02 -1.663857956E+02  3.302351121E+02  4.303731690E+02  1.250000000E+02  0.00000E+00  9.000E+00
      21     1     1     2   511   501  1.585812977E+00 -6.168613362E+01 -8.917878713E+01  1.084460694E+02  1.348699152E-06  0.00000E+00  9.000E+00
#rwgt            1           1   3.1541096436968022E-002           7      207313           0
</event>
<event>
      5   9999  3.19816E-02  1.11017E+01 -1.00000E+00  1.90652E-01
      21    -1     0     0   502   501  0.000000000E+00  0.000000000E+00  1.372531929E+02  1.372531929E+02  0.000000000E+00  0.00000E+00  9.000E+00
      21    -1     0     0   512   502  0.000000000E+00  0.000000000E+00 -1.306489594E+03  1.306489594E+03  0.000000000E+00  0.00000E+00  9.000E+00
      25     1     1     2     0     0  1.765859329E+02  7.871636894E+01 -5.797930286E+02  6.238299564E+02  1.250000000E+02  0.00000E+00  9.000E+00
      25     1     1     2     0     0 -1.875334233E+02 -7.687240660E+01 -7.891458624E+00  2.382549619E+02  1.250000000E+02  0.00000E+00  9.000E+00
      21     1     1     2   512   501  1.094749033E+01 -1.843962339E+00 -5.815519134E+02  5.816578683E+02  7.629394531E-06  0.00000E+00  9.000E+00
#rwgt            1           1   2.9132959478890275E-002           7      207397           0
</event>
<event>
      5   9999  3.19816E-02  2.01397E+01 -1.00000E+00  1.66120E-01
      21    -1     0     0   502   501  0.000000000E+00  0.000000000E+00  1.019235422E+03  1.019235422E+03  0.000000000E+00  0.00000E+00  9.000E+00
      21    -1     0     0   501   511  0.000000000E+00  0.000000000E+00 -1.528141708E+02  1.528141708E+02  0.000000000E+00  0.00000E+00  9.000E+00
      25     1     1     2     0     0  1.238305199E+02 -2.514482630E+02  7.265189005E+02  7.886792374E+02  1.250000000E+02  0.00000E+00  9.000E+00
      25     1     1     2     0     0 -1.416381928E+02  2.420410207E+02  1.670743364E+02  3.495483761E+02  1.250000000E+02  0.00000E+00  9.000E+00
      21     1     1     2   502   511  1.780767286E+01  9.407242228E+00 -2.717198626E+01  3.382197889E+01  9.536743164E-07  0.00000E+00  9.000E+00
#rwgt            1           1   2.8978687753087193E-002           7      207562           0
</event>
<event>
      5   9999  3.19816E-02  3.52595E+01 -1.00000E+00  1.48322E-01
      21    -1     0     0   502   512  0.000000000E+00  0.000000000E+00  3.929431353E+02  3.929431353E+02  0.000000000E+00  0.00000E+00  9.000E+00
      21    -1     0     0   501   502  0.000000000E+00  0.000000000E+00 -4.068976017E+02  4.068976017E+02  0.000000000E+00  0.00000E+00  9.000E+00
      25     1     1     2     0     0  2.237197094E+01 -1.011440381E+02 -3.517081546E+02  3.873683616E+02  1.250000000E+02  0.00000E+00  9.000E+00
      25     1     1     2     0     0 -4.943601778E+01  1.237442434E+02  3.287057233E+02  3.760704856E+02  1.250000000E+02  0.00000E+00  9.000E+00
      21     1     1     2   501   512  2.706404684E+01 -2.260020534E+01  9.047964929E+00  3.640188982E+01  2.384185791E-07  0.00000E+00  9.000E+00
#rwgt            1           1   2.8669258049142849E-002           7      207701           0
</event>
<event>
      5   9999  3.19816E-02  2.55515E+01 -1.00000E+00  1.58044E-01
      21    -1     0     0   511   501  0.000000000E+00  0.000000000E+00  5.847025606E+02  5.847025606E+02  0.000000000E+00  0.00000E+00  9.000E+00
      21    -1     0     0   501   502  0.000000000E+00  0.000000000E+00 -4.545386094E+02  4.545386094E+02  0.000000000E+00  0.00000E+00  9.000E+00
      25     1     1     2     0     0  6.529975816E+01 -4.160619411E+02  2.633535493E+02  5.122027813E+02  1.250000000E+02  0.00000E+00  9.000E+00
      25     1     1     2     0     0 -4.300311981E+01  4.035824941E+02 -1.896219468E+02  4.650909379E+02  1.250000000E+02  0.00000E+00  9.000E+00
      21     1     1     2   511   502 -2.229663835E+01  1.247944707E+01  5.643234871E+01  6.194745081E+01  0.000000000E+00  0.00000E+00  9.000E+00
#rwgt            1           1   2.9424535914043735E-002           7      207835           0
</event>
<event>
      5   9999  3.19816E-02  1.03877E+02 -1.00000E+00  1.23089E-01
       2    -1     0     0   502     0  0.000000000E+00  0.000000000E+00  2.678691666E+03  2.678691666E+03  0.000000000E+00  0.00000E+00  9.000E+00
      21    -1     0     0   501   502  0.000000000E+00  0.000000000E+00 -1.972856339E+02  1.972856339E+02  0.000000000E+00  0.00000E+00  9.000E+00
      25     1     1     2     0     0  1.883574033E+02 -1.805707025E+02  1.650825337E+02  3.331088905E+02  1.250000000E+02  0.00000E+00  9.000E+00
      25     1     1     2     0     0 -1.017733907E+02  2.379613906E+02  7.220599970E+01  2.963480266E+02  1.250000000E+02  0.00000E+00  9.000E+00
       2     1     1     2   501     0 -8.658401265E+01 -5.739068809E+01  2.244117499E+03  2.246520383E+03  3.051757812E-05  0.00000E+00  9.000E+00
#rwgt            1           1   2.5527303839422581E-002           7      208045           0
</event>
<event>
      5   9999  3.19816E-02  1.13823E+03 -1.00000E+00  8.96614E-02
      21    -1     0     0   502   511  0.000000000E+00  0.000000000E+00  1.961258578E+03  1.961258578E+03  0.000000000E+00  0.00000E+00  9.000E+00
      21    -1     0     0   501   502  0.000000000E+00  0.000000000E+00 -1.456523484E+03  1.456523484E+03  0.000000000E+00  0.00000E+00  9.000E+00
      25     1     1     2     0     0  6.304877732E+02 -9.832661849E+02  2.222569382E+01  1.174923914E+03  1.250000000E+02  0.00000E+00  9.000E+00
      25     1     1     2     0     0  4.827402990E+02  7.460117898E+02 -1.949715831E+02  9.182650516E+02  1.250000000E+02  0.00000E+00  9.000E+00
      21     1     1     2   501   511 -1.113228072E+03  2.372543951E+02  6.774809836E+02  1.324593097E+03  1.525878906E-05  0.00000E+00  9.000E+00
#rwgt            2          11   5.7918517363776288E-004           7      208250           0
</event>
<event>
      5   9999  3.19816E-02  3.12604E+01 -1.00000E+00  1.51809E-01
      21    -1     0     0   502   501  0.000000000E+00  0.000000000E+00  1.232506200E+03  1.232506200E+03  0.000000000E+00  0.00000E+00  9.000E+00
      21    -1     0     0   512   502  0.000000000E+00  0.000000000E+00 -2.546130933E+02  2.546130933E+02  0.000000000E+00  0.00000E+00  9.000E+00
      25     1     1     2     0     0 -1.179294761E+02 -9.396269499E+01 -1.693107355E+02  2.588966484E+02  1.250000000E+02  0.00000E+00  9.000E+00
      25     1     1     2     0     0  1.103008208E+02  1.242780206E+02  1.170759244E+03  1.189080950E+03  1.250000000E+02  0.00000E+00  9.000E+00
      21     1     1     2   512   501  7.628655320E+00 -3.031532559E+01 -2.355540184E+01  3.914169520E+01  1.011524364E-06  0.00000E+00  9.000E+00
#rwgt            1           1   3.0986635262620525E-002           7      208270           0
</event>
<event>
      5   9999  3.19816E-02  7.58585E+01 -1.00000E+00  1.29477E-01
      21    -1     0     0   502   511  0.000000000E+00  0.000000000E+00  4.591938582E+02  4.591938582E+02  0.000000000E+00  0.00000E+00  9.000E+00
      21    -1     0     0   501   502  0.000000000E+00  0.000000000E+00 -7.991551871E+02  7.991551871E+02  0.000000000E+00  0.00000E+00  9.000E+00
      25     1     1     2     0     0  4.829322614E+02  1.357959936E+02 -2.068793249E+01  5.174138687E+02  1.250000000E+02  0.00000E+00  9.000E+00
      25     1     1     2     0     0 -5.411714973E+02 -1.844037109E+02 -3.157916886E+02  6.649967735E+02  1.250000000E+02  0.00000E+00  9.000E+00
      21     1     1     2   501   511  5.823923595E+01  4.860771737E+01 -3.481707797E+00  7.593840321E+01  7.238958956E-07  0.00000E+00  9.000E+00
#rwgt            1           1   2.4122272615627497E-002           7      208463           0
</event>
<event>
      5   9999  3.19816E-02  3.07557E+01 -1.00000E+00  1.52293E-01
      21    -1     0     0   502   501  0.000000000E+00  0.000000000E+00  7.791674304E+01  7.791674304E+01  0.000000000E+00  0.00000E+00  9.000E+00
      21    -1     0     0   501   512  0.000000000E+00  0.000000000E+00 -6.645554179E+02  6.645554179E+02  0.000000000E+00  0.00000E+00  9.000E+00
      25     1     1     2     0     0  8.148758635E+00  1.270583317E+02 -1.080612265E+02  2.085963820E+02  1.250000000E+02  0.00000E+00  9.000E+00
      25     1     1     2     0     0 -1.205708466E+01 -1.575647044E+02 -3.733902201E+02  4.242844162E+02  1.250000000E+02  0.00000E+00  9.000E+00
      21     1     1     2   502   512  3.908326026E+00  3.050637268E+01 -1.051872283E+02  1.095913627E+02  1.907348633E-06  0.00000E+00  9.000E+00
#rwgt            1           1   2.1852615451165139E-002           7      208553           0
</event>
<event>
      5   9999  3.19816E-02  1.00469E+02 -1.00000E+00  1.23737E-01
      21    -1     0     0   502   511  0.000000000E+00  0.000000000E+00  1.037697701E+03  1.037697701E+03  0.000000000E+00  0.00000E+00  9.000E+00
      21    -1     0     0   501   502  0.000000000E+00  0.000000000E+00 -2.258481355E+02  2.258481355E+02  0.000000000E+00  0.00000E+00  9.000E+00
      25     1     1     2     0     0 -2.536834774E+02  3.312046401E+02  1.368946844E+02  4.565270802E+02  1.250000000E+02  0.00000E+00  9.000E+00
      25     1     1     2     0     0  2.044455806E+02 -2.436275989E+02  5.316178461E+02  6.319770064E+02  1.250000000E+02  0.00000E+00  9.000E+00
      21     1     1     2   501   511  4.923789682E+01 -8.757704118E+01  1.433370349E+02  1.750417499E+02  3.303624740E-06  0.00000E+00  9.000E+00
#rwgt            1           1   2.8296901149497115E-002           7      208677           0
</event>
<event>
      5   9999  3.19816E-02  2.14086E+01 -1.00000E+00  1.63967E-01
      21    -1     0     0   502   501  0.000000000E+00  0.000000000E+00  1.137168046E+03  1.137168046E+03  0.000000000E+00  0.00000E+00  9.000E+00
      21    -1     0     0   501   512  0.000000000E+00  0.000000000E+00 -4.639955562E+02  4.639955562E+02  0.000000000E+00  0.00000E+00  9.000E+00
      25     1     1     2     0     0 -2.259657686E+02 -6.590938565E+02  4.310133120E+02  8.287718115E+02  1.250000000E+02  0.00000E+00  9.000E+00
      25     1     1     2     0     0  2.465384446E+02  6.531698482E+02  2.458796914E+02  7.506622928E+02  1.250000000E+02  0.00000E+00  9.000E+00
      21     1     1     2   502   512 -2.057267596E+01  5.924008319E+00 -3.720513340E+00  2.172949816E+01  3.998401125E-07  0.00000E+00  9.000E+00
#rwgt            1           1   3.4568054527853942E-002           7      208788           0
</event>
<event>
      5   9999  3.19816E-02  4.08726E+01 -1.00000E+00  1.44261E-01
       2    -1     0     0   502     0  0.000000000E+00  0.000000000E+00  3.875764405E+03  3.875764405E+03  0.000000000E+00  0.00000E+00  9.000E+00
      21    -1     0     0   501   502  0.000000000E+00  0.000000000E+00 -4.079393750E+02  4.079393750E+02  0.000000000E+00  0.00000E+00  9.000E+00
      25     1     1     2     0     0 -2.782883937E+02 -6.260311785E+01 -7.842399570E+01  3.211524615E+02  1.250000000E+02  0.00000E+00  9.000E+00
      25     1     1     2     0     0  2.594480785E+02  2.633173419E+01 -1.075358201E+02  3.085378717E+02  1.250000000E+02  0.00000E+00  9.000E+00
       2     1     1     2   501     0  1.884031518E+01  3.627138366E+01  3.653784845E+03  3.654013447E+03  6.103515625E-05  0.00000E+00  9.000E+00
#rwgt            1           1   2.8340360470373336E-002           7      209030           0
</event>
<event>
      5   9999  3.19816E-02  3.68026E+01 -1.00000E+00  1.47120E-01
      21    -1     0     0   502   501  0.000000000E+00  0.000000000E+00  1.491872943E+02  1.491872943E+02  0.000000000E+00  0.00000E+00  9.000E+00
      21    -1     0     0   511   502  0.000000000E+00  0.000000000E+00 -3.035195872E+03  3.035195872E+03  0.000000000E+00  0.00000E+00  9.000E+00
      25     1     1     2     0     0  4.100294974E+02 -4.569893312E+02 -1.925839625E+03  2.025202878E+03  1.250000000E+02  0.00000E+00  9.000E+00
      25     1     1     2     0     0 -4.162881243E+02  4.207228138E+02 -8.518924619E+02  1.044820202E+03  1.250000000E+02  0.00000E+00  9.000E+00
      21     1     1     2   511   501  6.258626947E+00  3.626651739E+01 -1.082764908E+02  1.143600855E+02  0.000000000E+00  0.00000E+00  9.000E+00
#rwgt            1           1   6.8627393688164715E-002           7      209127           0
</event>
<event>
      5   9999  3.19816E-02  2.55718E+01 -1.00000E+00  1.58019E-01
      21    -1     0     0   502   512  0.000000000E+00  0.000000000E+00  1.163943549E+02  1.163943549E+02  0.000000000E+00  0.00000E+00  9.000E+00
      21    -1     0     0   501   502  0.000000000E+00  0.000000000E+00 -5.386227738E+02  5.386227738E+02  0.000000000E+00  0.00000E+00  9.000E+00
      25     1     1     2     0     0 -1.130445008E+02 -1.580081178E+02 -2.563344043E+02  3.450767324E+02  1.250000000E+02  0.00000E+00  9.000E+00
      25     1     1     2     0     0  1.187167870E+02  1.330733631E+02 -1.783570135E+02  2.814931966E+02  1.250000000E+02  0.00000E+00  9.000E+00
      21     1     1     2   501   512 -5.672286179E+00  2.493475471E+01  1.246299887E+01  2.844719957E+01  8.085167388E-07  0.00000E+00  9.000E+00
#rwgt            1           1   2.7532962976584200E-002           7      209294           0
</event>
<event>
      5   9999  3.19816E-02  1.27744E+02 -1.00000E+00  1.19227E-01
      21    -1     0     0   511   501  0.000000000E+00  0.000000000E+00  6.048341328E+02  6.048341328E+02  0.000000000E+00  0.00000E+00  9.000E+00
      21    -1     0     0   501   502  0.000000000E+00  0.000000000E+00 -7.558625017E+02  7.558625017E+02  0.000000000E+00  0.00000E+00  9.000E+00
      25     1     1     2     0     0 -4.846079069E+02 -5.545435967E+01 -3.854096063E+02  6.341021795E+02  1.250000000E+02  0.00000E+00  9.000E+00
      25     1     1     2     0     0  4.804827211E+02  1.831316725E+02  9.518786348E+01  5.376677265E+02  1.250000000E+02  0.00000E+00  9.000E+00
      21     1     1     2   511   502  4.125185787E+00 -1.276773128E+02  1.391933739E+02  1.889267284E+02  3.303624740E-06  0.00000E+00  9.000E+00
#rwgt            1           1   2.8818269793116153E-002           7      209382           0
</event>
<event>
      5   9999  3.19816E-02  9.93214E+01 -1.00000E+00  1.23961E-01
      21    -1     0     0   512   501  0.000000000E+00  0.000000000E+00  2.612828455E+02  2.612828455E+02  0.000000000E+00  0.00000E+00  9.000E+00
      21    -1     0     0   501   502  0.000000000E+00  0.000000000E+00 -5.890510168E+02  5.890510168E+02  0.000000000E+00  0.00000E+00  9.000E+00
      25     1     1     2     0     0  2.603817999E+02 -7.454650983E+01 -2.845187831E+01  2.996504183E+02  1.250000000E+02  0.00000E+00  9.000E+00
      25     1     1     2     0     0 -2.744191439E+02  1.728709221E+02 -2.866908305E+02  4.505628197E+02  1.250000000E+02  0.00000E+00  9.000E+00
      21     1     1     2   512   502  1.403734403E+01 -9.832441231E+01 -1.262546255E+01  1.001206242E+02  1.572478528E-06  0.00000E+00  9.000E+00
#rwgt            1           1   2.8208521361222920E-002           7      209459           0
</event>
<event>
      5   9999  3.19816E-02  2.44564E+01 -1.00000E+00  1.59469E-01
      21    -1     0     0   502   501  0.000000000E+00  0.000000000E+00  3.700153989E+02  3.700153989E+02  0.000000000E+00  0.00000E+00  9.000E+00
      21    -1     0     0   501   511  0.000000000E+00  0.000000000E+00 -1.829966881E+03  1.829966881E+03  0.000000000E+00  0.00000E+00  9.000E+00
      25     1     1     2     0     0 -2.447959981E+02 -1.708779275E+02 -9.545886669E+01  3.374340558E+02  1.250000000E+02  0.00000E+00  9.000E+00
      25     1     1     2     0     0  2.628022588E+02  1.874275466E+02  1.285923914E+02  3.692629356E+02  1.250000000E+02  0.00000E+00  9.000E+00
      21     1     1     2   502   511 -1.800626071E+01 -1.654961909E+01 -1.493085007E+03  1.493285288E+03  0.000000000E+00  0.00000E+00  9.000E+00
#rwgt            1           1   2.7210871416484483E-002           7      209550           0
</event>
<event>
      5   9999  3.19816E-02  3.56209E+01 -1.00000E+00  1.48034E-01
       2    -1     0     0   502     0  0.000000000E+00  0.000000000E+00  1.677392744E+03  1.677392744E+03  0.000000000E+00  0.00000E+00  9.000E+00
      21    -1     0     0   501   502  0.000000000E+00  0.000000000E+00 -2.148101687E+02  2.148101687E+02  0.000000000E+00  0.00000E+00  9.000E+00
      25     1     1     2     0     0 -6.656345463E+01  2.128489710E+02  3.743262415E+00  2.556841606E+02  1.250000000E+02  0.00000E+00  9.000E+00
      25     1     1     2     0     0  1.016638847E+02 -2.067820204E+02  1.052861223E+02  2.824969327E+02  1.250000000E+02  0.00000E+00  9.000E+00
       2     1     1     2   501     0 -3.510043004E+01 -6.066950560E+00  1.353553190E+03  1.354021819E+03  0.000000000E+00  0.00000E+00  9.000E+00
#rwgt            1           1   2.6077997766868428E-002           7      209781           0
</event>
<event>
      5   9999  3.19816E-02  2.82440E+01 -1.00000E+00  1.54882E-01
      21    -1     0     0   502   501  0.000000000E+00  0.000000000E+00  6.589729415E+01  6.589729415E+01  0.000000000E+00  0.00000E+00  9.000E+00
      21    -1     0     0   511   502  0.000000000E+00  0.000000000E+00 -1.521082519E+03  1.521082519E+03  0.000000000E+00  0.00000E+00  9.000E+00
      25     1     1     2     0     0  5.043292323E+01  1.408819954E+02 -1.064003334E+02  2.221198940E+02  1.250000000E+02  0.00000E+00  9.000E+00
      25     1     1     2     0     0 -2.556396135E+01 -1.274933477E+02 -1.142359580E+03  1.156511340E+03  1.250000000E+02  0.00000E+00  9.000E+00
      21     1     1     2   511   501 -2.486896188E+01 -1.338864769E+01 -2.064253115E+02  2.083485790E+02  2.697398305E-06  0.00000E+00  9.000E+00
#rwgt            1           1   2.6920096297516294E-002           7      209872           0
</event>
<event>
      5   9999  3.19816E-02  2.41898E+02 -1.00000E+00  1.08721E-01
      21    -1     0     0   502   501  0.000000000E+00  0.000000000E+00  2.818314843E+02  2.818314843E+02  0.000000000E+00  0.00000E+00  9.000E+00
      21    -1     0     0   501   512  0.000000000E+00  0.000000000E+00 -9.051256217E+02  9.051256217E+02  0.000000000E+00  0.00000E+00  9.000E+00
      25     1     1     2     0     0  1.072831899E+02  3.624327515E+02 -7.651579620E+01  4.053971501E+02  1.250000000E+02  0.00000E+00  9.000E+00
      25     1     1     2     0     0 -6.534068764E+01 -1.241985334E+02 -4.740961292E+00  1.879951006E+02  1.250000000E+02  0.00000E+00  9.000E+00
      21     1     1     2   502   512 -4.194250224E+01 -2.382342181E+02 -5.420373799E+02  5.935648553E+02  0.000000000E+00  0.00000E+00  9.000E+00
#rwgt            1           1   2.8344708792095930E-002           7      209936           0
</event>
<event>
      5   9999  3.19816E-02  3.45888E+01 -1.00000E+00  1.48867E-01
      21    -1     0     0   511   501  0.000000000E+00  0.000000000E+00  2.322966328E+02  2.322966328E+02  0.000000000E+00  0.00000E+00  9.000E+00
      21    -1     0     0   501   502  0.000000000E+00  0.000000000E+00 -3.394758383E+02  3.394758383E+02  0.000000000E+00  0.00000E+00  9.000E+00
      25     1     1     2     0     0  8.078051733E+01  5.048749876E+01 -2.691814936E+02  3.117020308E+02  1.250000000E+02  0.00000E+00  9.000E+00
      25     1     1     2     0     0 -8.464048254E+01 -1.611472631E+01  8.118372024E+01  1.721612387E+02  1.250000000E+02  0.00000E+00  9.000E+00
      21     1     1     2   511   502  3.859965215E+00 -3.437277245E+01  8.081856779E+01  8.790920155E+01  9.536743164E-07  0.00000E+00  9.000E+00
#rwgt            1           1   2.4469699071350177E-002           7      209976           0
</event>
<event>
      5   9999  3.19816E-02  1.20073E+02 -1.00000E+00  1.20357E-01
      21    -1     0     0   502   501  0.000000000E+00  0.000000000E+00  1.342755063E+02  1.342755063E+02  0.000000000E+00  0.00000E+00  9.000E+00
      21    -1     0     0   512   502  0.000000000E+00  0.000000000E+00 -1.107087064E+03  1.107087064E+03  0.000000000E+00  0.00000E+00  9.000E+00
      25     1     1     2     0     0 -1.098267922E+02 -2.462575707E+02 -5.580423896E+02  6.322507604E+02  1.250000000E+02  0.00000E+00  9.000E+00
      25     1     1     2     0     0  1.966200156E+02  1.632845291E+02 -1.574870437E+02  3.251898475E+02  1.250000000E+02  0.00000E+00  9.000E+00
      21     1     1     2   512   501 -8.679322334E+01  8.297304163E+01 -2.572821242E+02  2.839219623E+02  3.814697266E-06  0.00000E+00  9.000E+00
#rwgt            2          11   2.9286619246468768E-003           7      210118           0
</event>
<event>
      5   9999  3.19816E-02  1.66778E+02 -1.00000E+00  1.14597E-01
      21    -1     0     0   511   501  0.000000000E+00  0.000000000E+00  5.266730703E+02  5.266730703E+02  0.000000000E+00  0.00000E+00  9.000E+00
      21    -1     0     0   501   502  0.000000000E+00  0.000000000E+00 -4.851067404E+02  4.851067404E+02  0.000000000E+00  0.00000E+00  9.000E+00
      25     1     1     2     0     0  2.754283299E+02  1.283287862E+02 -1.429886073E+01  3.288745957E+02  1.250000000E+02  0.00000E+00  9.000E+00
      25     1     1     2     0     0 -3.636732081E+02 -2.698478705E+02 -6.864419579E+01  4.747768962E+02  1.250000000E+02  0.00000E+00  9.000E+00
      21     1     1     2   511   502  8.824487821E+01  1.415190843E+02  1.245093865E+02  2.081283188E+02  1.907348633E-06  0.00000E+00  9.000E+00
#rwgt            1           1   2.9181732274741211E-002           7      210138           0
</event>
<event>
      5   9999  3.19816E-02  8.32974E+01 -1.00000E+00  1.27506E-01
      21    -1     0     0   502   501  0.000000000E+00  0.000000000E+00  5.614646233E+01  5.614646233E+01  0.000000000E+00  0.00000E+00  9.000E+00
      21    -1     0     0   512   502  0.000000000E+00  0.000000000E+00 -1.740770930E+03  1.740770930E+03  0.000000000E+00  0.00000E+00  9.000E+00
      25     1     1     2     0     0  1.212984487E+02 -2.522554814E+02 -8.683022812E+02  9.208257127E+02  1.250000000E+02  0.00000E+00  9.000E+00
      25     1     1     2     0     0 -7.456532074E+01  1.833027473E+02 -5.758452762E+02  6.215968681E+02  1.250000000E+02  0.00000E+00  9.000E+00
      21     1     1     2   512   501 -4.673312791E+01  6.895273405E+01 -2.404769099E+02  2.544948113E+02  3.814697266E-06  0.00000E+00  9.000E+00
#rwgt            1           1   1.9079543493003833E-002           7      210197           0
</event>
<event>
      5   9999  3.19816E-02  2.58985E+02 -1.00000E+00  1.07709E-01
      21    -1     0     0   511   501  0.000000000E+00  0.000000000E+00  9.327344780E+02  9.327344780E+02  0.000000000E+00  0.00000E+00  9.000E+00
      21    -1     0     0   501   502  0.000000000E+00  0.000000000E+00 -1.300507753E+03  1.300507753E+03  0.000000000E+00  0.00000E+00  9.000E+00
      25     1     1     2     0     0  2.747526156E+02 -5.449558780E+02  4.261996485E+02  7.548092800E+02  1.250000000E+02  0.00000E+00  9.000E+00
      25     1     1     2     0     0 -8.992575591E+01  7.263738477E+02 -9.266513337E+02  1.187439810E+03  1.250000000E+02  0.00000E+00  9.000E+00
      21     1     1     2   511   502 -1.848268597E+02 -1.814179697E+02  1.326784100E+02  2.909931412E+02  6.031565972E-06  0.00000E+00  9.000E+00
#rwgt            1           1   2.3741480591933369E-002           7      210276           0
</event>
<event>
      5   9999  3.19816E-02  7.96825E+01 -1.00000E+00  1.28433E-01
       3    -1     0     0   502     0  0.000000000E+00  0.000000000E+00  4.204727519E+02  4.204727519E+02  0.000000000E+00  0.00000E+00  9.000E+00
      21    -1     0     0   501   502  0.000000000E+00  0.000000000E+00 -4.950716015E+02  4.950716015E+02  0.000000000E+00  0.00000E+00  9.000E+00
      25     1     1     2     0     0 -1.907116785E+02 -2.139112962E+02 -3.513435434E+02  4.703150778E+02  1.250000000E+02  0.00000E+00  9.000E+00
      25     1     1     2     0     0  1.111970745E+02  2.087420990E+02  2.303686654E+02  3.530336744E+02  1.250000000E+02  0.00000E+00  9.000E+00
       3     1     1     2   501     0  7.951460409E+01  5.169197229E+00  4.637602832E+01  9.219560112E+01  9.536743164E-07  0.00000E+00  9.000E+00
#rwgt            1           1   2.6820051494776634E-002           7      210328           0
</event>
<event>
      5   9999  3.19816E-02  2.77010E+02 -1.00000E+00  1.06729E-01
      21    -1     0     0   502   501  0.000000000E+00  0.000000000E+00  1.891053743E+02  1.891053743E+02  0.000000000E+00  0.00000E+00  9.000E+00
      21    -1     0     0   511   502  0.000000000E+00  0.000000000E+00 -2.036222671E+03  2.036222671E+03  0.000000000E+00  0.00000E+00  9.000E+00
      25     1     1     2     0     0 -2.890003154E+02  2.743557062E+02 -4.184503792E+02  5.912004361E+02  1.250000000E+02  0.00000E+00  9.000E+00
      25     1     1     2     0     0  4.045832729E+02 -2.261115494E+01 -4.556497628E+02  6.224472631E+02  1.250000000E+02  0.00000E+00  9.000E+00
      21     1     1     2   511   501 -1.155829575E+02 -2.517445512E+02 -9.730171543E+02  1.011680346E+03  1.525878906E-05  0.00000E+00  9.000E+00
#rwgt            1           1   2.3281507250694482E-002           7      210371           0
</event>
<event>
      5   9999  3.19816E-02  4.73233E+01 -1.00000E+00  1.40453E-01
      21    -1     0     0   512   501  0.000000000E+00  0.000000000E+00  3.226835305E+02  3.226835305E+02  0.000000000E+00  0.00000E+00  9.000E+00
      21    -1     0     0   501   502  0.000000000E+00  0.000000000E+00 -5.919947003E+02  5.919947003E+02  0.000000000E+00  0.00000E+00  9.000E+00
      25     1     1     2     0     0 -2.684357011E+02 -2.506369425E+02 -3.657510509E+01  3.896656784E+02  1.250000000E+02  0.00000E+00  9.000E+00
      25     1     1     2     0     0  2.716748946E+02  2.978492498E+02 -2.201785725E+02  4.760514970E+02  1.250000000E+02  0.00000E+00  9.000E+00
      21     1     1     2   512   502 -3.239193498E+00 -4.721230734E+01 -1.255749219E+01  4.896105543E+01  1.079486029E-06  0.00000E+00  9.000E+00
#rwgt            1           1   2.8446827676243586E-002           7      210460           0
</event>
<event>
      5   9999  3.19816E-02  7.17203E+01 -1.00000E+00  1.30689E-01
      21    -1     0     0   502   501  0.000000000E+00  0.000000000E+00  1.666229955E+02  1.666229955E+02  0.000000000E+00  0.00000E+00  9.000E+00
      21    -1     0     0   511   502  0.000000000E+00  0.000000000E+00 -1.276401940E+03  1.276401940E+03  0.000000000E+00  0.00000E+00  9.000E+00
      25     1     1     2     0     0  1.550321381E+02  4.916910186E-01  6.400370072E+01  2.091809727E+02  1.250000000E+02  0.00000E+00  9.000E+00
      25     1     1     2     0     0 -1.746795638E+02 -6.946837749E+01 -4.214852354E+02  4.781355552E+02  1.250000000E+02  0.00000E+00  9.000E+00
      21     1     1     2   511   501  1.964742568E+01  6.897668647E+01 -7.522974099E+02  7.557084077E+02  1.078959322E-05  0.00000E+00  9.000E+00
#rwgt            1           1   2.7688614016411917E-002           7      210528           0
</event>
<event>
      5   9999  3.19816E-02  4.17369E+01 -1.00000E+00  1.43705E-01
      21    -1     0     0   502   501  0.000000000E+00  0.000000000E+00  1.495458736E+03  1.495458736E+03  0.000000000E+00  0.00000E+00  9.000E+00
       2    -1     0     0   501     0  0.000000000E+00  0.000000000E+00 -4.214121643E+02  4.214121643E+02  0.000000000E+00  0.00000E+00  9.000E+00
      25     1     1     2     0     0 -5.245096375E+01  4.269314583E+01  2.864727310E+02  3.197896713E+02  1.250000000E+02  0.00000E+00  9.000E+00
      25     1     1     2     0     0  8.967189314E+01 -2.381007171E+01  1.186152231E+03  1.196323570E+03  1.250000000E+02  0.00000E+00  9.000E+00
       2     1     1     2   502     0 -3.722092939E+01 -1.888307412E+01 -3.985783905E+02  4.007576593E+02  7.629394531E-06  0.00000E+00  9.000E+00
#rwgt            1           1   3.3815464581809306E-002           7      210662           0
</event>
<event>
      5   9999  3.19816E-02  8.33578E+00 -1.00000E+00  2.05363E-01
      21    -1     0     0   502   511  0.000000000E+00  0.000000000E+00  1.646422630E+03  1.646422630E+03  0.000000000E+00  0.00000E+00  9.000E+00
      21    -1     0     0   501   502  0.000000000E+00  0.000000000E+00 -8.827576247E+01  8.827576247E+01  0.000000000E+00  0.00000E+00  9.000E+00
      25     1     1     2     0     0 -2.048104352E+02  1.574679673E+02  2.161728527E+02  3.593037396E+02  1.250000000E+02  0.00000E+00  9.000E+00
      25     1     1     2     0     0  2.119719916E+02 -1.532021384E+02  1.255962286E+03  1.288979939E+03  1.250000000E+02  0.00000E+00  9.000E+00
      21     1     1     2   501   511 -7.161556486E+00 -4.265828949E+00  8.601172882E+01  8.641471334E+01  0.000000000E+00  0.00000E+00  9.000E+00
#rwgt            1           1   2.3678065310878054E-002           7      210757           0
</event>
<event>
      5   9999  3.19816E-02  4.33871E+02 -1.00000E+00  1.00634E-01
       2    -1     0     0   502     0  0.000000000E+00  0.000000000E+00  7.098491628E+02  7.098491628E+02  0.000000000E+00  0.00000E+00  9.000E+00
      21    -1     0     0   501   502  0.000000000E+00  0.000000000E+00 -9.341465499E+02  9.341465499E+02  0.000000000E+00  0.00000E+00  9.000E+00
      25     1     1     2     0     0 -1.722810658E+02 -1.259531117E+02 -6.837422647E+01  2.566027802E+02  1.250000000E+02  0.00000E+00  9.000E+00
      25     1     1     2     0     0 -1.923569312E+02  3.610769863E+02 -6.192449502E+02  7.526400782E+02  1.250000000E+02  0.00000E+00  9.000E+00
       2     1     1     2   501     0  3.646379969E+02 -2.351238746E+02  4.633217896E+02  6.347528542E+02  7.629394531E-06  0.00000E+00  9.000E+00
#rwgt            1           1   2.9052477340555122E-002           7      211098           0
</event>
<event>
      5   9999  3.19816E-02  3.34834E+02 -1.00000E+00  1.04065E-01
      21    -1     0     0   502   501  0.000000000E+00  0.000000000E+00  4.155687426E+02  4.155687426E+02  0.000000000E+00  0.00000E+00  9.000E+00
      -1    -1     0     0     0   502  0.000000000E+00  0.000000000E+00 -1.671255614E+03  1.671255614E+03  0.000000000E+00  0.00000E+00  9.000E+00
      25     1     1     2     0     0 -1.361466911E+02  2.765597000E+02 -1.957223856E+02  3.859448683E+02  1.250000000E+02  0.00000E+00  9.000E+00
      25     1     1     2     0     0  1.146977338E+02 -6.107061708E+02 -4.878719309E+01  6.357065262E+02  1.250000000E+02  0.00000E+00  9.000E+00
      -1     1     1     2     0   501  2.144895728E+01  3.341464708E+02 -1.011177292E+03  1.065172962E+03  1.868812365E-05  0.00000E+00  9.000E+00
#rwgt            1           1   2.9735452112419840E-002           7      211135           0
</event>
<event>
      5   9999  3.19816E-02  1.03850E+02 -1.00000E+00  1.23094E-01
      21    -1     0     0   502   501  0.000000000E+00  0.000000000E+00  1.106786213E+03  1.106786213E+03  0.000000000E+00  0.00000E+00  9.000E+00
      21    -1     0     0   501   511  0.000000000E+00  0.000000000E+00 -1.053670702E+03  1.053670702E+03  0.000000000E+00  0.00000E+00  9.000E+00
      25     1     1     2     0     0  7.753393596E+01  1.919431448E+02 -8.256798066E+01  2.555311204E+02  1.250000000E+02  0.00000E+00  9.000E+00
      25     1     1     2     0     0 -1.812860691E+02 -1.874344766E+02  9.966321246E+02  1.037736438E+03  1.250000000E+02  0.00000E+00  9.000E+00
      21     1     1     2   502   511  1.037521331E+02 -4.508668242E+00 -8.609486327E+02  8.671893573E+02  1.078959322E-05  0.00000E+00  9.000E+00
#rwgt            1           1   2.9500149605396254E-002           7      211224           0
</event>
<event>
      5   9999  3.19816E-02  1.58039E+01 -1.00000E+00  1.75274E-01
      21    -1     0     0   502   501  0.000000000E+00  0.000000000E+00  4.828722562E+02  4.828722562E+02  0.000000000E+00  0.00000E+00  9.000E+00
      21    -1     0     0   501   512  0.000000000E+00  0.000000000E+00 -1.234359402E+03  1.234359402E+03  0.000000000E+00  0.00000E+00  9.000E+00
      25     1     1     2     0     0 -4.046222462E+01 -4.762588389E+02 -3.416283507E+02  6.006618044E+02  1.250000000E+02  0.00000E+00  9.000E+00
      25     1     1     2     0     0  3.295025566E+01  4.901633063E+02  1.713853119E+02  5.351109337E+02  1.250000000E+02  0.00000E+00  9.000E+00
      21     1     1     2   502   512  7.511968967E+00 -1.390446744E+01 -5.812441070E+02  5.814589202E+02  7.629394531E-06  0.00000E+00  9.000E+00
#rwgt            1           1   2.6012494818416020E-002           7      211296           0
</event>
<event>
      5   9999  3.19816E-02  1.02949E+02 -1.00000E+00  1.23263E-01
      21    -1     0     0   502   501  0.000000000E+00  0.000000000E+00  1.798750498E+03  1.798750498E+03  0.000000000E+00  0.00000E+00  9.000E+00
      21    -1     0     0   511   502  0.000000000E+00  0.000000000E+00 -1.121487542E+03  1.121487542E+03  0.000000000E+00  0.00000E+00  9.000E+00
      25     1     1     2     0     0 -1.236093109E+03  1.707745632E+02  9.561121880E+02  1.576979911E+03  1.250000000E+02  0.00000E+00  9.000E+00
      25     1     1     2     0     0  1.200331200E+03 -7.423665283E+01 -2.763322726E+02  1.240278434E+03  1.250000000E+02  0.00000E+00  9.000E+00
      21     1     1     2   511   501  3.576190898E+01 -9.653791041E+01 -2.516959573E+00  1.029796939E+02  1.006242217E-06  0.00000E+00  9.000E+00
#rwgt            1           1   5.3792454409494692E-002           7      211646           0
</event>
<event>
      5   9999  3.19816E-02  2.41954E+01 -1.00000E+00  1.59822E-01
      -2    -1     0     0     0   501  0.000000000E+00  0.000000000E+00  1.006807026E+03  1.006807026E+03  0.000000000E+00  0.00000E+00  9.000E+00
      21    -1     0     0   501   502  0.000000000E+00  0.000000000E+00 -9.018965168E+02  9.018965168E+02  0.000000000E+00  0.00000E+00  9.000E+00
      25     1     1     2     0     0 -8.355064002E+01  2.624166158E+02  1.987577072E+02  3.619016660E+02  1.250000000E+02  0.00000E+00  9.000E+00
      25     1     1     2     0     0  1.065614181E+02 -2.698946669E+02 -7.896845294E+02  8.505440159E+02  1.250000000E+02  0.00000E+00  9.000E+00
      -2     1     1     2     0   502 -2.301077808E+01  7.478051116E+00  6.958373314E+02  6.962578609E+02  0.000000000E+00  0.00000E+00  9.000E+00
#rwgt            1           1   2.9894473913124855E-002           7      211750           0
</event>
<event>
      5   9999  3.19816E-02  3.28805E+02 -1.00000E+00  1.04314E-01
      21    -1     0     0   502   501  0.000000000E+00  0.000000000E+00  9.416081222E+02  9.416081222E+02  0.000000000E+00  0.00000E+00  9.000E+00
      21    -1     0     0   511   502  0.000000000E+00  0.000000000E+00 -9.287765535E+02  9.287765535E+02  0.000000000E+00  0.00000E+00  9.000E+00
      25     1     1     2     0     0  4.229093908E+02  7.184125768E+02 -1.830328554E+02  8.626094189E+02  1.250000000E+02  0.00000E+00  9.000E+00
      25     1     1     2     0     0 -1.857032984E+02 -4.907150692E+02  3.517125566E+02  6.439050525E+02  1.250000000E+02  0.00000E+00  9.000E+00
      21     1     1     2   511   501 -2.372060924E+02 -2.276975076E+02 -1.558481324E+02  3.638702043E+02  2.697398305E-06  0.00000E+00  9.000E+00
#rwgt            1           1   2.7328815059291137E-002           7      211934           0
</event>
<event>
      5   9999  3.19816E-02  1.12188E+02 -1.00000E+00  1.21622E-01
      21    -1     0     0   502   501  0.000000000E+00  0.000000000E+00  5.056168551E+02  5.056168551E+02  0.000000000E+00  0.00000E+00  9.000E+00
       1    -1     0     0   501     0  0.000000000E+00  0.000000000E+00 -1.395146376E+03  1.395146376E+03  0.000000000E+00  0.00000E+00  9.000E+00
      25     1     1     2     0     0 -3.107472555E+02  4.855599144E+02 -4.159556972E+01  5.913437906E+02  1.250000000E+02  0.00000E+00  9.000E+00
      25     1     1     2     0     0  4.227311749E+02 -4.923203795E+02 -2.588127015E+02  7.097112207E+02  1.250000000E+02  0.00000E+00  9.000E+00
       1     1     1     2   502     0 -1.119839194E+02  6.760465131E+00 -5.891212496E+02  5.997082197E+02  7.629394531E-06  0.00000E+00  9.000E+00
#rwgt            2          12   4.5576815398095261E-004           7      212026           0
</event>
<event>
      5   9999  3.19816E-02  2.29171E+01 -1.00000E+00  1.61634E-01
      21    -1     0     0   502   501  0.000000000E+00  0.000000000E+00  8.658220905E+02  8.658220905E+02  0.000000000E+00  0.00000E+00  9.000E+00
      21    -1     0     0   511   502  0.000000000E+00  0.000000000E+00 -1.958340992E+02  1.958340992E+02  0.000000000E+00  0.00000E+00  9.000E+00
      25     1     1     2     0     0  2.924049552E+01  1.359511889E+02  7.766926765E+02  7.988831242E+02  1.250000000E+02  0.00000E+00  9.000E+00
      25     1     1     2     0     0 -1.594712931E+01 -1.546188142E+02 -5.607339755E+01  2.071968015E+02  1.250000000E+02  0.00000E+00  9.000E+00
      21     1     1     2   511   501 -1.329336621E+01  1.866762526E+01 -5.063128771E+01  5.557626394E+01  1.168007728E-06  0.00000E+00  9.000E+00
#rwgt            1           1   2.7812116496395620E-002           7      212060           0
</event>
<event>
      5   9999  3.19816E-02  3.51723E+01 -1.00000E+00  1.48392E-01
      21    -1     0     0   502   501  0.000000000E+00  0.000000000E+00  5.062522547E+02  5.062522547E+02  0.000000000E+00  0.00000E+00  9.000E+00
      21    -1     0     0   512   502  0.000000000E+00  0.000000000E+00 -1.603290422E+02  1.603290422E+02  0.000000000E+00  0.00000E+00  9.000E+00
      25     1     1     2     0     0 -1.261633157E+02  1.488429409E+01  3.749906022E+02  4.151887236E+02  1.250000000E+02  0.00000E+00  9.000E+00
      25     1     1     2     0     0  1.610885029E+02 -1.904599340E+01 -4.954421311E+01  2.106938174E+02  1.250000000E+02  0.00000E+00  9.000E+00
      21     1     1     2   512   501 -3.492518720E+01  4.161699312E+00  2.047682342E+01  4.069875600E+01  0.000000000E+00  0.00000E+00  9.000E+00
#rwgt            2          11   3.1628844403773968E-003           7      212249           0
</event>
<event>
      5   9999  3.19816E-02  1.66514E+01 -1.00000E+00  1.73214E-01
      21    -1     0     0   502   511  0.000000000E+00  0.000000000E+00  7.482882224E+02  7.482882224E+02  0.000000000E+00  0.00000E+00  9.000E+00
      21    -1     0     0   501   502  0.000000000E+00  0.000000000E+00 -1.258521873E+03  1.258521873E+03  0.000000000E+00  0.00000E+00  9.000E+00
      25     1     1     2     0     0 -3.981313971E+02  5.794085798E+02 -9.119223324E+02  1.158209934E+03  1.250000000E+02  0.00000E+00  9.000E+00
      25     1     1     2     0     0  4.034462699E+02 -5.951890000E+02  3.855207840E+02  8.253908852E+02  1.250000000E+02  0.00000E+00  9.000E+00
      21     1     1     2   501   511 -5.314872811E+00  1.578042029E+01  1.616789819E+01  2.320927550E+01  4.129530925E-07  0.00000E+00  9.000E+00
#rwgt            1           1   1.8117138910119783E-002           7      212269           0
</event>
<event>
      5   9999  3.19816E-02  2.34107E+01 -1.00000E+00  1.60918E-01
      21    -1     0     0   502   501  0.000000000E+00  0.000000000E+00  4.450171749E+02  4.450171749E+02  0.000000000E+00  0.00000E+00  9.000E+00
      21    -1     0     0   501   512  0.000000000E+00  0.000000000E+00 -1.908041938E+03  1.908041938E+03  0.000000000E+00  0.00000E+00  9.000E+00
      25     1     1     2     0     0  4.243118445E+02  4.949584996E+02  6.083156478E+01  6.665957823E+02  1.250000000E+02  0.00000E+00  9.000E+00
      25     1     1     2     0     0 -4.202226068E+02 -5.180093035E+02 -1.349356824E+03  1.510400449E+03  1.250000000E+02  0.00000E+00  9.000E+00
      21     1     1     2   502   512 -4.089237759E+00  2.305080387E+01 -1.744995048E+02  1.760628825E+02  2.697398305E-06  0.00000E+00  9.000E+00
#rwgt            1           1   2.8266123000474142E-002           7      212533           0
</event>
<event>
      5   9999  3.19816E-02  8.25063E+01 -1.00000E+00  1.27704E-01
      21    -1     0     0   502   501  0.000000000E+00  0.000000000E+00  1.407303830E+03  1.407303830E+03  0.000000000E+00  0.00000E+00  9.000E+00
      -5    -1     0     0     0   502  0.000000000E+00  0.000000000E+00 -7.120432983E+02  7.120432983E+02  0.000000000E+00  0.00000E+00  9.000E+00
      25     1     1     2     0     0  7.302506299E+02 -3.178552376E+02  9.328494064E+02  1.232935906E+03  1.250000000E+02  0.00000E+00  9.000E+00
      25     1     1     2     0     0 -7.208897060E+02  2.358816429E+02 -1.928330987E+02  7.925476148E+02  1.250000000E+02  0.00000E+00  9.000E+00
      -5     1     1     2     0   501 -9.360923901E+00  8.197359464E+01 -4.475577650E+01  9.386360661E+01  1.430511475E-06  0.00000E+00  9.000E+00
#rwgt            1           1   3.2013160348362352E-002           7      212853           0
</event>
<event>
      5   9999  3.19816E-02  2.56585E+01 -1.00000E+00  1.57910E-01
      21    -1     0     0   502   501  0.000000000E+00  0.000000000E+00  5.287158106E+02  5.287158106E+02  0.000000000E+00  0.00000E+00  9.000E+00
      21    -1     0     0   501   511  0.000000000E+00  0.000000000E+00 -1.867022097E+03  1.867022097E+03  0.000000000E+00  0.00000E+00  9.000E+00
      25     1     1     2     0     0  8.643981505E+01 -8.325298202E+02 -1.149456424E+03  1.427393714E+03  1.250000000E+02  0.00000E+00  9.000E+00
      25     1     1     2     0     0 -6.432463385E+01  8.455404320E+02 -8.497695168E+01  8.613491528E+02  1.250000000E+02  0.00000E+00  9.000E+00
      21     1     1     2   502   511 -2.211518119E+01 -1.301061189E+01 -1.038729103E+02  1.069950408E+02  2.336015456E-06  0.00000E+00  9.000E+00
#rwgt            1           1   4.2923242274461093E-002           7      212936           0
</event>
<event>
      5   9999  3.19816E-02  4.50330E+01 -1.00000E+00  1.41719E-01
      21    -1     0     0   512   501  0.000000000E+00  0.000000000E+00  2.185730974E+02  2.185730974E+02  0.000000000E+00  0.00000E+00  9.000E+00
      21    -1     0     0   501   502  0.000000000E+00  0.000000000E+00 -1.559083585E+03  1.559083585E+03  0.000000000E+00  0.00000E+00  9.000E+00
      25     1     1     2     0     0 -1.791722898E+02  4.224304467E+02 -1.013785532E+03  1.119792971E+03  1.250000000E+02  0.00000E+00  9.000E+00
      25     1     1     2     0     0  1.591264591E+02 -4.627557776E+02 -3.423940339E+02  6.101826071E+02  1.250000000E+02  0.00000E+00  9.000E+00
      21     1     1     2   512   502  2.004583075E+01  4.032533082E+01  1.566907906E+01  4.768110396E+01  1.517286546E-06  0.00000E+00  9.000E+00
#rwgt            1           1   1.9845395367361948E-002           7      213142           0
</event>
<event>
      5   9999  3.19816E-02  1.48882E+02 -1.00000E+00  1.16522E-01
      21    -1     0     0   502   501  0.000000000E+00  0.000000000E+00  2.800223694E+02  2.800223694E+02  0.000000000E+00  0.00000E+00  9.000E+00
      21    -1     0     0   501   511  0.000000000E+00  0.000000000E+00 -6.700023242E+02  6.700023242E+02  0.000000000E+00  0.00000E+00  9.000E+00
      25     1     1     2     0     0  3.150693936E+02 -8.549409773E+01 -1.076317945E+02  3.657698275E+02  1.250000000E+02  0.00000E+00  9.000E+00
      25     1     1     2     0     0 -2.995261493E+02 -6.257481495E+01 -9.297986523E+01  3.433682817E+02  1.250000000E+02  0.00000E+00  9.000E+00
      21     1     1     2   502   511 -1.554324429E+01  1.480689127E+02 -1.893682951E+02  2.408865844E+02  3.814697266E-06  0.00000E+00  9.000E+00
#rwgt            1           1   2.7031054051331927E-002           7      213298           0
</event>
<event>
      5   9999  3.19816E-02  4.21945E+01 -1.00000E+00  1.43416E-01
      21    -1     0     0   502   501  0.000000000E+00  0.000000000E+00  6.322166055E+02  6.322166055E+02  0.000000000E+00  0.00000E+00  9.000E+00
      21    -1     0     0   501   512  0.000000000E+00  0.000000000E+00 -6.315012648E+02  6.315012648E+02  0.000000000E+00  0.00000E+00  9.000E+00
      25     1     1     2     0     0 -4.833781993E+02  1.905611382E+02  2.843117208E+02  6.053314675E+02  1.250000000E+02  0.00000E+00  9.000E+00
      25     1     1     2     0     0  4.526577937E+02 -2.194857626E+02 -1.837075947E+02  5.499514147E+02  1.250000000E+02  0.00000E+00  9.000E+00
      21     1     1     2   502   512  3.072040562E+01  2.892462446E+01 -9.988878534E+01  1.084349882E+02  1.348699152E-06  0.00000E+00  9.000E+00
#rwgt            1           1   3.4508190694555831E-002           7      213346           0
</event>
<event>
      5   9999  3.19816E-02  4.74794E+02 -1.00000E+00  9.94944E-02
      -2    -1     0     0     0   501  0.000000000E+00  0.000000000E+00  1.032556351E+03  1.032556351E+03  0.000000000E+00  0.00000E+00  9.000E+00
      21    -1     0     0   501   502  0.000000000E+00  0.000000000E+00 -3.668218758E+02  3.668218758E+02  0.000000000E+00  0.00000E+00  9.000E+00
      25     1     1     2     0     0 -4.616219308E+01  1.026689976E+02  7.961645874E+01  1.861065599E+02  1.250000000E+02  0.00000E+00  9.000E+00
      25     1     1     2     0     0 -6.738282172E+01 -5.636862567E+02  2.570815923E+02  6.356088307E+02  1.250000000E+02  0.00000E+00  9.000E+00
      -2     1     1     2     0   502  1.135450148E+02  4.610172591E+02  3.290364238E+02  5.776628357E+02  5.394796609E-06  0.00000E+00  9.000E+00
#rwgt            2           4   5.9178172191330613E-005           7      213493           0
</event>
<event>
      5   9999  3.19816E-02  5.08089E+00 -1.00000E+00  2.37305E-01
      21    -1     0     0   502   501  0.000000000E+00  0.000000000E+00  1.448314817E+03  1.448314817E+03  0.000000000E+00  0.00000E+00  9.000E+00
      21    -1     0     0   501   511  0.000000000E+00  0.000000000E+00 -4.175341730E+02  4.175341730E+02  0.000000000E+00  0.00000E+00  9.000E+00
      25     1     1     2     0     0 -5.959416901E+01 -5.933925854E+02  1.084679909E+03  1.244114838E+03  1.250000000E+02  0.00000E+00  9.000E+00
      25     1     1     2     0     0  6.204544586E+01  5.978430499E+02 -5.137381801E+01  6.160602396E+02  1.250000000E+02  0.00000E+00  9.000E+00
      21     1     1     2   502   511 -2.451276856E+00 -4.450464489E+00 -2.525447320E+00  5.673911927E+00  7.300048300E-08  0.00000E+00  9.000E+00
#rwgt            1           1   3.0538453299432698E-002           7      213527           0
</event>
<event>
      5   9999  3.19816E-02  5.87336E+01 -1.00000E+00  1.35200E-01
      21    -1     0     0   502   501  0.000000000E+00  0.000000000E+00  1.182496570E+03  1.182496570E+03  0.000000000E+00  0.00000E+00  9.000E+00
      21    -1     0     0   512   502  0.000000000E+00  0.000000000E+00 -3.205463831E+02  3.205463831E+02  0.000000000E+00  0.00000E+00  9.000E+00
      25     1     1     2     0     0 -1.602386845E+02  5.414443085E+02  6.820127243E+02  8.942062018E+02  1.250000000E+02  0.00000E+00  9.000E+00
      25     1     1     2     0     0  1.308404787E+02 -4.905976911E+02  1.615439460E+02  5.472903908E+02  1.250000000E+02  0.00000E+00  9.000E+00
      21     1     1     2   512   501  2.939820581E+01 -5.084661740E+01  1.839351607E+01  6.154636008E+01  5.840038640E-07  0.00000E+00  9.000E+00
#rwgt            1           1   2.8985855492577404E-002           7      213995           0
</event>
<event>
      5   9999  3.19816E-02  3.89219E+02 -1.00000E+00  1.02044E-01
      21    -1     0     0   502   501  0.000000000E+00  0.000000000E+00  6.010270575E+02  6.010270575E+02  0.000000000E+00  0.00000E+00  9.000E+00
      21    -1     0     0   511   502  0.000000000E+00  0.000000000E+00 -1.243477577E+03  1.243477577E+03  0.000000000E+00  0.00000E+00  9.000E+00
      25     1     1     2     0     0  7.208409254E+01  3.462352406E+01 -4.919078302E+01  1.563318200E+02  1.250000000E+02  0.00000E+00  9.000E+00
      25     1     1     2     0     0 -3.968409540E+01 -4.224912065E+02  4.155124314E+02  6.069178096E+02  1.250000000E+02  0.00000E+00  9.000E+00
      21     1     1     2   511   501 -3.239999714E+01  3.878676824E+02 -1.008772168E+03  1.081255005E+03  1.078959322E-05  0.00000E+00  9.000E+00
#rwgt            2          11   4.3233008401362639E-003           7      214127           0
</event>
<event>
      5   9999  3.19816E-02  1.44288E+01 -1.00000E+00  1.78987E-01
      21    -1     0     0   502   501  0.000000000E+00  0.000000000E+00  3.845482834E+02  3.845482834E+02  0.000000000E+00  0.00000E+00  9.000E+00
      21    -1     0     0   512   502  0.000000000E+00  0.000000000E+00 -6.928418649E+02  6.928418649E+02  0.000000000E+00  0.00000E+00  9.000E+00
      25     1     1     2     0     0  1.313453978E+02  4.723474120E+01 -4.508992281E+02  4.882805016E+02  1.250000000E+02  0.00000E+00  9.000E+00
      25     1     1     2     0     0 -1.295555468E+02 -6.155210076E+01  3.408424648E+02  3.903484170E+02  1.250000000E+02  0.00000E+00  9.000E+00
      21     1     1     2   512   501 -1.789850945E+00  1.431735956E+01 -1.982368183E+02  1.987612298E+02  3.814697266E-06  0.00000E+00  9.000E+00
#rwgt            1           1   2.4930520960050936E-002           7      214147           0
</event>
<event>
      5   9999  3.19816E-02  1.48074E+02 -1.00000E+00  1.16616E-01
      21    -1     0     0   511   501  0.000000000E+00  0.000000000E+00  8.224576470E+02  8.224576470E+02  0.000000000E+00  0.00000E+00  9.000E+00
      21    -1     0     0   501   502  0.000000000E+00  0.000000000E+00 -8.061442115E+02  8.061442115E+02  0.000000000E+00  0.00000E+00  9.000E+00
      25     1     1     2     0     0 -2.298659720E+02  8.244266460E+01  6.457574602E+02  7.016144635E+02  1.250000000E+02  0.00000E+00  9.000E+00
      25     1     1     2     0     0  3.722728900E+02 -4.186921367E+01 -6.661637117E+02  7.744283224E+02  1.250000000E+02  0.00000E+00  9.000E+00
      21     1     1     2   511   502 -1.424069180E+02 -4.057345093E+01  3.671968700E+01  1.525590726E+02  3.754619538E-06  0.00000E+00  9.000E+00
#rwgt            1           1   3.4591172811690413E-002           7      214428           0
</event>
<event>
      5   9999  3.19816E-02  5.26436E+01 -1.00000E+00  1.37811E-01
      21    -1     0     0   502   501  0.000000000E+00  0.000000000E+00  1.755192385E+03  1.755192385E+03  0.000000000E+00  0.00000E+00  9.000E+00
      21    -1     0     0   501   512  0.000000000E+00  0.000000000E+00 -1.226020755E+02  1.226020755E+02  0.000000000E+00  0.00000E+00  9.000E+00
      25     1     1     2     0     0 -2.538178233E+02  9.549204233E+01  1.378650326E+03  1.410618283E+03  1.250000000E+02  0.00000E+00  9.000E+00
      25     1     1     2     0     0  2.696227743E+02 -1.457071325E+02  2.492190240E+02  4.143212894E+02  1.250000000E+02  0.00000E+00  9.000E+00
      21     1     1     2   502   512 -1.580495103E+01  5.021509022E+01  4.720959311E+00  5.285488832E+01  7.226679118E-07  0.00000E+00  9.000E+00
#rwgt            1           1   2.7633461484295324E-002           7      214511           0
</event>
<event>
      5   9999  3.19816E-02  9.71095E+00 -1.00000E+00  1.97241E-01
      21    -1     0     0   502   501  0.000000000E+00  0.000000000E+00  3.812264468E+02  3.812264468E+02  0.000000000E+00  0.00000E+00  9.000E+00
      21    -1     0     0   511   502  0.000000000E+00  0.000000000E+00 -2.745233084E+02  2.745233084E+02  0.000000000E+00  0.00000E+00  9.000E+00
      25     1     1     2     0     0 -2.440732558E+02  1.447812430E+02  1.447441896E+01  3.104317499E+02  1.250000000E+02  0.00000E+00  9.000E+00
      25     1     1     2     0     0  2.390022427E+02 -1.364994897E+02  1.127360336E+02  3.226276429E+02  1.250000000E+02  0.00000E+00  9.000E+00
      21     1     1     2   511   501  5.071013159E+00 -8.281753321E+00 -2.050731412E+01  2.269036238E+01  2.384185791E-07  0.00000E+00  9.000E+00
#rwgt            1           1   3.0011591440622085E-002           7      214615           0
</event>
<event>
      5   9999  3.34111E-02  5.09957E+00 -1.00000E+00  2.37030E-01
       1    -1     0     0   502     0  0.000000000E+00  0.000000000E+00  8.773703947E+02  8.773703947E+02  0.000000000E+00  0.00000E+00  9.000E+00
      21    -1     0     0   501   502  0.000000000E+00  0.000000000E+00 -2.968238015E+01  2.968238015E+01  0.000000000E+00  0.00000E+00  9.000E+00
      25     1     1     2     0     0 -1.146478801E+01 -3.818881279E+01  1.666659558E+02  2.121140439E+02  1.250000000E+02  0.00000E+00  9.000E+00
      25     1     1     2     0     0  1.602259498E+01  4.047617411E+01  6.359205341E+02  6.495498210E+02  1.250000000E+02  0.00000E+00  9.000E+00
       1     1     1     2   501     0 -4.557806962E+00 -2.287361318E+00  4.510152470E+01  4.538891006E+01  0.000000000E+00  0.00000E+00  9.000E+00
#rwgt            1           1   8.4632292267529621E-002           7      214938           0
</event>
<event>
      5   9999  3.19816E-02  1.89742E+02 -1.00000E+00  1.12487E-01
      21    -1     0     0   502   501  0.000000000E+00  0.000000000E+00  7.395395216E+02  7.395395216E+02  0.000000000E+00  0.00000E+00  9.000E+00
       4    -1     0     0   501     0  0.000000000E+00  0.000000000E+00 -4.721657451E+02  4.721657451E+02  0.000000000E+00  0.00000E+00  9.000E+00
      25     1     1     2     0     0  5.869376598E+01 -3.175258046E+02  8.188033282E+01  3.558046988E+02  1.250000000E+02  0.00000E+00  9.000E+00
      25     1     1     2     0     0  1.274940270E+02  2.809711899E+02  4.316447434E+02  5.451070730E+02  1.250000000E+02  0.00000E+00  9.000E+00
       4     1     1     2   502     0 -1.861877930E+02  3.655461471E+01 -2.461512998E+02  3.107934950E+02  4.672030912E-06  0.00000E+00  9.000E+00
#rwgt            1           1   2.9228865535705400E-002           7      215312           0
</event>
<event>
      5   9999  3.19816E-02  2.37215E+01 -1.00000E+00  1.60478E-01
      21    -1     0     0   511   501  0.000000000E+00  0.000000000E+00  2.457613949E+02  2.457613949E+02  0.000000000E+00  0.00000E+00  9.000E+00
      21    -1     0     0   501   502  0.000000000E+00  0.000000000E+00 -2.397751893E+02  2.397751893E+02  0.000000000E+00  0.00000E+00  9.000E+00
      25     1     1     2     0     0 -1.053955429E+02 -1.430387302E+02  3.485812554E+01  2.200190621E+02  1.250000000E+02  0.00000E+00  9.000E+00
      25     1     1     2     0     0  9.410025891E+01  1.638983930E+02 -5.190019065E+01  2.324568169E+02  1.250000000E+02  0.00000E+00  9.000E+00
      21     1     1     2   511   502  1.129528396E+01 -2.085966281E+01  2.302827071E+01  3.306070514E+01  7.539457465E-07  0.00000E+00  9.000E+00
#rwgt            1           1   2.5683250254977263E-002           7      215360           0
</event>
<event>
      5   9999  3.19816E-02  7.00497E+01 -1.00000E+00  1.31205E-01
      21    -1     0     0   502   501  0.000000000E+00  0.000000000E+00  1.985291881E+03  1.985291881E+03  0.000000000E+00  0.00000E+00  9.000E+00
      21    -1     0     0   501   512  0.000000000E+00  0.000000000E+00 -2.034537380E+02  2.034537380E+02  0.000000000E+00  0.00000E+00  9.000E+00
      25     1     1     2     0     0 -6.542367211E+00 -1.566037374E+02  1.491562223E+03  1.504975215E+03  1.250000000E+02  0.00000E+00  9.000E+00
      25     1     1     2     0     0  4.291263605E+01  9.673583336E+01  4.663498594E+02  4.942737168E+02  1.250000000E+02  0.00000E+00  9.000E+00
      21     1     1     2   502   512 -3.637026884E+01  5.986790401E+01 -1.760739392E+02  1.894966872E+02  7.387129490E-06  0.00000E+00  9.000E+00
#rwgt            1           1   9.0019274713657130E-002           7      215478           0
</event>
<event>
      5   9999  3.19816E-02  5.98460E+00 -1.00000E+00  2.25645E-01
      21    -1     0     0   502   501  0.000000000E+00  0.000000000E+00  6.924811000E+01  6.924811000E+01  0.000000000E+00  0.00000E+00  9.000E+00
      21    -1     0     0   511   502  0.000000000E+00  0.000000000E+00 -1.148076117E+03  1.148076117E+03  0.000000000E+00  0.00000E+00  9.000E+00
      25     1     1     2     0     0 -8.025919806E+01  2.118771517E+02 -3.075642573E+02  4.019381030E+02  1.250000000E+02  0.00000E+00  9.000E+00
      25     1     1     2     0     0  8.575700539E+01 -2.095129391E+02 -7.542124993E+02  7.973151383E+02  1.250000000E+02  0.00000E+00  9.000E+00
      21     1     1     2   511   501 -5.497807331E+00 -2.364212539E+00 -1.705125082E+01  1.807098616E+01  2.384185791E-07  0.00000E+00  9.000E+00
#rwgt            1           1   2.7174785111074712E-002           7      215526           0
</event>
<event>
      5   9999  3.19816E-02  4.90171E+02 -1.00000E+00  9.90976E-02
      21    -1     0     0   502   501  0.000000000E+00  0.000000000E+00  1.660458447E+03  1.660458447E+03  0.000000000E+00  0.00000E+00  9.000E+00
      21    -1     0     0   512   502  0.000000000E+00  0.000000000E+00 -1.552472277E+03  1.552472277E+03  0.000000000E+00  0.00000E+00  9.000E+00
      25     1     1     2     0     0  9.920865250E+02  8.203406721E+02  2.487160591E+02  1.317072196E+03  1.250000000E+02  0.00000E+00  9.000E+00
      25     1     1     2     0     0 -6.580557887E+02 -1.179075804E+03  7.972252807E+01  1.358395323E+03  1.250000000E+02  0.00000E+00  9.000E+00
      21     1     1     2   512   501 -3.340307362E+02  3.587351321E+02 -2.204524179E+02  5.374632047E+02  6.031565972E-06  0.00000E+00  9.000E+00
#rwgt            2          11   3.3204706416124796E-003           7      215892           0
</event>
<event>
      5   9999  3.19816E-02  4.20616E+01 -1.00000E+00  1.43499E-01
      21    -1     0     0   502   501  0.000000000E+00  0.000000000E+00  2.492602144E+03  2.492602144E+03  0.000000000E+00  0.00000E+00  9.000E+00
      21    -1     0     0   501   511  0.000000000E+00  0.000000000E+00 -3.628224551E+02  3.628224551E+02  0.000000000E+00  0.00000E+00  9.000E+00
      25     1     1     2     0     0 -1.510046264E+02  8.258079232E+02  1.562354088E+03  1.778014741E+03  1.250000000E+02  0.00000E+00  9.000E+00
      25     1     1     2     0     0  1.099258575E+02 -8.167686076E+02  5.976003762E+02  1.025644121E+03  1.250000000E+02  0.00000E+00  9.000E+00
      21     1     1     2   502   511  4.107876892E+01 -9.039315632E+00 -3.017477541E+01  5.176573726E+01  1.305872339E-06  0.00000E+00  9.000E+00
#rwgt            1           1   2.5934201563689429E-002           7      215912           0
</event>
<event>
      5   9999  3.19816E-02  1.09161E+02 -1.00000E+00  1.22140E-01
      21    -1     0     0   502   501  0.000000000E+00  0.000000000E+00  1.536100599E+03  1.536100599E+03  0.000000000E+00  0.00000E+00  9.000E+00
      21    -1     0     0   501   512  0.000000000E+00  0.000000000E+00 -7.613260191E+02  7.613260191E+02  0.000000000E+00  0.00000E+00  9.000E+00
      25     1     1     2     0     0  4.087229509E+01 -8.298172907E+02  1.008201309E+03  1.312387961E+03  1.250000000E+02  0.00000E+00  9.000E+00
      25     1     1     2     0     0 -1.498680563E+02  8.238070038E+02 -2.223369491E+02  8.753154476E+02  1.250000000E+02  0.00000E+00  9.000E+00
      21     1     1     2   502   512  1.089957612E+02  6.010286901E+00 -1.108978005E+01  1.097232097E+02  1.585976445E-06  0.00000E+00  9.000E+00
#rwgt            1           1   2.1419959699230183E-002           7      216029           0
</event>
<event>
      5   9999  3.19816E-02  1.32401E+02 -1.00000E+00  1.18583E-01
      21    -1     0     0   502   511  0.000000000E+00  0.000000000E+00  2.055317983E+03  2.055317983E+03  0.000000000E+00  0.00000E+00  9.000E+00
      21    -1     0     0   501   502  0.000000000E+00  0.000000000E+00 -1.247283206E+02  1.247283206E+02  0.000000000E+00  0.00000E+00  9.000E+00
      25     1     1     2     0     0  2.649169679E+02 -3.851746244E+02  6.663801922E+02  8.235460229E+02  1.250000000E+02  0.00000E+00  9.000E+00
      25     1     1     2     0     0 -1.751987810E+02  2.878054331E+02  9.181025911E+02  9.859330342E+02  1.250000000E+02  0.00000E+00  9.000E+00
      21     1     1     2   501   511 -8.971818693E+01  9.736919137E+01  3.461068790E+02  3.705672465E+02  5.394796609E-06  0.00000E+00  9.000E+00
#rwgt            1           1   2.8717205019747557E-002           7      216121           0
</event>
<event>
      5   9999  3.19816E-02  1.40078E+02 -1.00000E+00  1.17584E-01
      21    -1     0     0   502   501  0.000000000E+00  0.000000000E+00  1.360392707E+03  1.360392707E+03  0.000000000E+00  0.00000E+00  9.000E+00
      21    -1     0     0   512   502  0.000000000E+00  0.000000000E+00 -4.964108497E+02  4.964108497E+02  0.000000000E+00  0.00000E+00  9.000E+00
      25     1     1     2     0     0 -2.800072610E+02 -2.407454231E+02  1.000072045E+03  1.073373896E+03  1.250000000E+02  0.00000E+00  9.000E+00
      25     1     1     2     0     0  3.489840033E+02  3.626630803E+02  8.118943247E+01  5.249105337E+02  1.250000000E+02  0.00000E+00  9.000E+00
      21     1     1     2   512   501 -6.897674234E+01 -1.219176572E+02 -2.172796199E+02  2.585191276E+02  4.672030912E-06  0.00000E+00  9.000E+00
#rwgt            1           1   2.7363316790092573E-002           7      216196           0
</event>
<event>
      5   9999  3.19816E-02  1.58774E+01 -1.00000E+00  1.75089E-01
      21    -1     0     0   502   501  0.000000000E+00  0.000000000E+00  2.150671298E+02  2.150671298E+02  0.000000000E+00  0.00000E+00  9.000E+00
      21    -1     0     0   501   511  0.000000000E+00  0.000000000E+00 -2.170766033E+02  2.170766033E+02  0.000000000E+00  0.00000E+00  9.000E+00
      25     1     1     2     0     0 -1.091681431E+02 -6.908803445E+01 -1.109058036E+02  2.112248499E+02  1.250000000E+02  0.00000E+00  9.000E+00
      25     1     1     2     0     0  1.036003189E+02  5.421895042E+01  1.122522890E+02  2.046907351E+02  1.250000000E+02  0.00000E+00  9.000E+00
      21     1     1     2   502   511  5.567824193E+00  1.486908403E+01 -3.355958964E+00  1.622814798E+01  4.768371582E-07  0.00000E+00  9.000E+00
#rwgt            2          11   4.3867965142509874E-003           7      216327           0
</event>
<event>
      5   9999  3.19816E-02  7.80933E+01 -1.00000E+00  1.28859E-01
      21    -1     0     0   502   501  0.000000000E+00  0.000000000E+00  5.873042534E+02  5.873042534E+02  0.000000000E+00  0.00000E+00  9.000E+00
      21    -1     0     0   512   502  0.000000000E+00  0.000000000E+00 -6.617905275E+02  6.617905275E+02  0.000000000E+00  0.00000E+00  9.000E+00
      25     1     1     2     0     0  2.034050438E+02 -5.041642855E+02  1.916762033E+01  5.581645244E+02  1.250000000E+02  0.00000E+00  9.000E+00
      25     1     1     2     0     0 -1.295870502E+02  5.296489025E+02  1.200450063E+01  5.595443428E+02  1.250000000E+02  0.00000E+00  9.000E+00
      21     1     1     2   512   501 -7.381799353E+01 -2.548461703E+01 -1.056583950E+02  1.313859137E+02  1.907348633E-06  0.00000E+00  9.000E+00
#rwgt            1           1   2.5832522215865090E-002           7      216347           0
</event>
<event>
      5   9999  3.19816E-02  2.27052E+01 -1.00000E+00  1.61948E-01
      21    -1     0     0   502   501  0.000000000E+00  0.000000000E+00  1.511781325E+03  1.511781325E+03  0.000000000E+00  0.00000E+00  9.000E+00
      21    -1     0     0   501   511  0.000000000E+00  0.000000000E+00 -2.270205382E+03  2.270205382E+03  0.000000000E+00  0.00000E+00  9.000E+00
      25     1     1     2     0     0  6.306898098E+02  4.017019250E+01 -8.226433958E+02  1.044868622E+03  1.250000000E+02  0.00000E+00  9.000E+00
      25     1     1     2     0     0 -6.221228110E+02 -6.119716785E+01  1.328023450E+03  1.473110033E+03  1.250000000E+02  0.00000E+00  9.000E+00
      21     1     1     2   502   511 -8.566998753E+00  2.102697535E+01 -1.263804111E+03  1.264008053E+03  1.525878906E-05  0.00000E+00  9.000E+00
#rwgt            1           1   6.6328112405688089E-002           7      216421           0
</event>
<event>
      5   9999  3.19816E-02  4.95471E+02 -1.00000E+00  9.89644E-02
      21    -1     0     0   502   501  0.000000000E+00  0.000000000E+00  6.013523549E+02  6.013523549E+02  0.000000000E+00  0.00000E+00  9.000E+00
       2    -1     0     0   501     0  0.000000000E+00  0.000000000E+00 -1.064062129E+03  1.064062129E+03  0.000000000E+00  0.00000E+00  9.000E+00
      25     1     1     2     0     0  1.420188456E+02 -2.546235980E+02 -5.631443390E+02  6.463428469E+02  1.250000000E+02  0.00000E+00  9.000E+00
      25     1     1     2     0     0 -4.602327388E+02 -1.251539523E+02 -6.363202841E+01  4.971435614E+02  1.250000000E+02  0.00000E+00  9.000E+00
       2     1     1     2   502     0  3.182138932E+02  3.797775503E+02  1.640665929E+02  5.219280759E+02  9.147322699E-06  0.00000E+00  9.000E+00
#rwgt            1           1   2.7247722620084534E-002           7      216753           0
</event>
<event>
      5   9999  3.19816E-02  3.36908E+01 -1.00000E+00  1.49620E-01
      21    -1     0     0   502   501  0.000000000E+00  0.000000000E+00  2.767586504E+02  2.767586504E+02  0.000000000E+00  0.00000E+00  9.000E+00
       2    -1     0     0   501     0  0.000000000E+00  0.000000000E+00 -9.345478310E+02  9.345478310E+02  0.000000000E+00  0.00000E+00  9.000E+00
      25     1     1     2     0     0 -5.688908819E+00  4.256205403E+02 -8.837007430E+01  4.523488456E+02  1.250000000E+02  0.00000E+00  9.000E+00
      25     1     1     2     0     0  1.009686387E+01 -3.922193103E+02 -3.603408060E+02  5.471822645E+02  1.250000000E+02  0.00000E+00  9.000E+00
       2     1     1     2   502     0 -4.407955054E+00 -3.340122999E+01 -2.090783004E+02  2.117753714E+02  0.000000000E+00  0.00000E+00  9.000E+00
#rwgt            1           1   2.8685839850766285E-002           7      216792           0
</event>
<event>
      5   9999  3.19816E-02  3.34561E+02 -1.00000E+00  1.04076E-01
      21    -1     0     0   502   501  0.000000000E+00  0.000000000E+00  1.211484487E+03  1.211484487E+03  0.000000000E+00  0.00000E+00  9.000E+00
      -3    -1     0     0     0   502  0.000000000E+00  0.000000000E+00 -4.585831129E+02  4.585831129E+02  0.000000000E+00  0.00000E+00  9.000E+00
      25     1     1     2     0     0 -2.574448661E+02  4.406315527E+01  1.048228735E+03  1.087486966E+03  1.250000000E+02  0.00000E+00  9.000E+00
      25     1     1     2     0     0 -7.686308877E+01 -3.104585277E+01 -2.415180622E+01  1.519213255E+02  1.250000000E+02  0.00000E+00  9.000E+00
      -3     1     1     2     0   501  3.343079549E+02 -1.301730249E+01 -2.711755542E+02  4.306593086E+02  7.629394531E-06  0.00000E+00  9.000E+00
#rwgt            1           1   2.8849733852642910E-002           7      216875           0
</event>
<event>
      5   9999  3.19816E-02  3.54851E+01 -1.00000E+00  1.48142E-01
      21    -1     0     0   502   501  0.000000000E+00  0.000000000E+00  4.109554263E+02  4.109554263E+02  0.000000000E+00  0.00000E+00  9.000E+00
       2    -1     0     0   501     0  0.000000000E+00  0.000000000E+00 -1.619408144E+03  1.619408144E+03  0.000000000E+00  0.00000E+00  9.000E+00
      25     1     1     2     0     0  3.402639729E+02  3.758457225E+02 -4.475006423E+02  6.876928116E+02  1.250000000E+02  0.00000E+00  9.000E+00
      25     1     1     2     0     0 -3.437977507E+02 -3.405370442E+02  7.550739287E+01  5.054589382E+02  1.250000000E+02  0.00000E+00  9.000E+00
       2     1     1     2   502     0  3.533777850E+00 -3.530867831E+01 -8.364594686E+02  8.372118208E+02  1.078959322E-05  0.00000E+00  9.000E+00
#rwgt            1           1   2.9752645336072678E-002           7      216910           0
</event>
<event>
      5   9999  3.19816E-02  9.40341E+01 -1.00000E+00  1.25042E-01
      21    -1     0     0   502   501  0.000000000E+00  0.000000000E+00  3.781208250E+02  3.781208250E+02  0.000000000E+00  0.00000E+00  9.000E+00
      21    -1     0     0   511   502  0.000000000E+00  0.000000000E+00 -4.912660941E+02  4.912660941E+02  0.000000000E+00  0.00000E+00  9.000E+00
      25     1     1     2     0     0  2.440344114E+02  1.519823899E+02  1.967976940E+02  3.701429091E+02  1.250000000E+02  0.00000E+00  9.000E+00
      25     1     1     2     0     0 -1.500323121E+02 -1.544363715E+02 -9.833736748E+01  2.676854972E+02  1.250000000E+02  0.00000E+00  9.000E+00
      21     1     1     2   511   501 -9.400209930E+01  2.453981668E+00 -2.116055957E+02  2.315585128E+02  0.000000000E+00  0.00000E+00  9.000E+00
#rwgt            1           1   2.3808279624922168E-002           7      217124           0
</event>
<event>
      5   9999  3.19816E-02  4.40643E+01 -1.00000E+00  1.42281E-01
      21    -1     0     0   502   501  0.000000000E+00  0.000000000E+00  4.524439326E+02  4.524439326E+02  0.000000000E+00  0.00000E+00  9.000E+00
      21    -1     0     0   501   512  0.000000000E+00  0.000000000E+00 -1.690102004E+02  1.690102004E+02  0.000000000E+00  0.00000E+00  9.000E+00
      25     1     1     2     0     0 -3.289521917E+01 -1.409644142E+02 -5.578611911E+01  1.992238756E+02  1.250000000E+02  0.00000E+00  9.000E+00
      25     1     1     2     0     0  5.746898627E+00  1.062566784E+02  3.406514863E+02  3.781427556E+02  1.250000000E+02  0.00000E+00  9.000E+00
      21     1     1     2   502   512  2.714832054E+01  3.470773583E+01 -1.431634908E+00  4.408750178E+01  2.393480898E-07  0.00000E+00  9.000E+00
#rwgt            1           1   2.6566377045123574E-002           7      217184           0
</event>
<event>
      5   9999  3.19816E-02  1.42450E+01 -1.00000E+00  1.79523E-01
      21    -1     0     0   511   501  0.000000000E+00  0.000000000E+00  2.736617834E+02  2.736617834E+02  0.000000000E+00  0.00000E+00  9.000E+00
      21    -1     0     0   501   502  0.000000000E+00  0.000000000E+00 -3.668674173E+02  3.668674173E+02  0.000000000E+00  0.00000E+00  9.000E+00
      25     1     1     2     0     0 -1.574335801E+02 -1.473722039E+02 -8.587804348E+00  2.494045890E+02  1.250000000E+02  0.00000E+00  9.000E+00
      25     1     1     2     0     0  1.483811845E+02  1.583710907E+02 -1.712060028E+02  3.033724999E+02  1.250000000E+02  0.00000E+00  9.000E+00
      21     1     1     2   511   502  9.052395633E+00 -1.099888685E+01  8.658817328E+01  8.775211183E+01  9.536743164E-07  0.00000E+00  9.000E+00
#rwgt            1           1   2.7075515850816603E-002           7      217279           0
</event>
<event>
      5   9999  3.19816E-02  6.55080E+01 -1.00000E+00  1.32696E-01
      21    -1     0     0   502   512  0.000000000E+00  0.000000000E+00  3.942676701E+02  3.942676701E+02  0.000000000E+00  0.00000E+00  9.000E+00
      21    -1     0     0   501   502  0.000000000E+00  0.000000000E+00 -1.221709179E+03  1.221709179E+03  0.000000000E+00  0.00000E+00  9.000E+00
      25     1     1     2     0     0  4.013984895E+02  4.637262615E+02 -7.103071283E+02  9.467438986E+02  1.250000000E+02  0.00000E+00  9.000E+00
      25     1     1     2     0     0 -3.451853318E+02 -4.300902635E+02 -1.639018037E+02  5.887438741E+02  1.250000000E+02  0.00000E+00  9.000E+00
      21     1     1     2   501   512 -5.621315769E+01 -3.363599798E+01  4.676742347E+01  8.048907600E+01  1.348699152E-06  0.00000E+00  9.000E+00
#rwgt            1           1   2.6151063577941273E-002           7      217475           0
</event>
<event>
      5   9999  3.19816E-02  9.12820E+00 -1.00000E+00  2.00451E-01
      21    -1     0     0   502   511  0.000000000E+00  0.000000000E+00  1.699142546E+02  1.699142546E+02  0.000000000E+00  0.00000E+00  9.000E+00
      21    -1     0     0   501   502  0.000000000E+00  0.000000000E+00 -2.423900282E+02  2.423900282E+02  0.000000000E+00  0.00000E+00  9.000E+00
      25     1     1     2     0     0 -8.752022932E+01  6.669368938E+01  7.706208619E+01  1.834976945E+02  1.250000000E+02  0.00000E+00  9.000E+00
      25     1     1     2     0     0  7.840598561E+01 -6.618913849E+01 -1.486080166E+02  2.196311527E+02  1.250000000E+02  0.00000E+00  9.000E+00
      21     1     1     2   501   511  9.114243706E+00 -5.045508866E-01 -9.298431880E-01  9.175435591E+00  3.332000937E-08  0.00000E+00  9.000E+00
#rwgt            1           1   2.9139237603531903E-002           7      217602           0
</event>
<event>
      5   9999  3.19816E-02  4.92702E+01 -1.00000E+00  1.39441E-01
      21    -1     0     0   502   512  0.000000000E+00  0.000000000E+00  9.303780524E+02  9.303780524E+02  0.000000000E+00  0.00000E+00  9.000E+00
      21    -1     0     0   501   502  0.000000000E+00  0.000000000E+00 -7.950986931E+01  7.950986931E+01  0.000000000E+00  0.00000E+00  9.000E+00
      25     1     1     2     0     0 -1.777415224E+02  1.313439707E+02  2.591098616E+02  3.627756990E+02  1.250000000E+02  0.00000E+00  9.000E+00
      25     1     1     2     0     0  1.359604567E+02 -1.052308242E+02  4.761701206E+02  5.214611739E+02  1.250000000E+02  0.00000E+00  9.000E+00
      21     1     1     2   501   512  4.178106569E+01 -2.611314658E+01  1.155882009E+02  1.256510488E+02  0.000000000E+00  0.00000E+00  9.000E+00
#rwgt            1           1   2.9147058525875954E-002           7      217853           0
</event>
<event>
      5   9999  3.19816E-02  1.20367E+02 -1.00000E+00  1.20312E-01
      21    -1     0     0   502   501  0.000000000E+00  0.000000000E+00  3.237429304E+02  3.237429304E+02  0.000000000E+00  0.00000E+00  9.000E+00
      21    -1     0     0   501   511  0.000000000E+00  0.000000000E+00 -6.371131714E+02  6.371131714E+02  0.000000000E+00  0.00000E+00  9.000E+00
      25     1     1     2     0     0  2.284477289E+01 -1.979623600E+02 -1.691401413E+02  2.897315430E+02  1.250000000E+02  0.00000E+00  9.000E+00
      25     1     1     2     0     0  2.769199329E+01  3.072065318E+02  1.410635880E+02  3.614784026E+02  1.250000000E+02  0.00000E+00  9.000E+00
      21     1     1     2   502   511 -5.053676619E+01 -1.092441718E+02 -2.852936877E+02  3.096461562E+02  5.394796609E-06  0.00000E+00  9.000E+00
#rwgt            1           1   3.3690881863559848E-002           7      217937           0
</event>
<event>
      5   9999  3.19816E-02  1.79660E+01 -1.00000E+00  1.70306E-01
       2    -1     0     0   502     0  0.000000000E+00  0.000000000E+00  9.858402008E+02  9.858402008E+02  0.000000000E+00  0.00000E+00  9.000E+00
      21    -1     0     0   501   502  0.000000000E+00  0.000000000E+00 -1.062025671E+02  1.062025671E+02  0.000000000E+00  0.00000E+00  9.000E+00
      25     1     1     2     0     0 -1.336940347E+02  1.952858711E+02  3.828290264E+02  4.671121170E+02  1.250000000E+02  0.00000E+00  9.000E+00
      25     1     1     2     0     0  1.313403629E+02 -1.774746841E+02  1.884457486E+02  3.160448616E+02  1.250000000E+02  0.00000E+00  9.000E+00
       2     1     1     2   501     0  2.353671750E+00 -1.781118706E+01  3.083628587E+02  3.088857893E+02  7.629394531E-06  0.00000E+00  9.000E+00
#rwgt            1           1   2.7552296576806821E-002           7      218033           0
</event>
<event>
      5   9999  3.19816E-02  3.16452E+01 -1.00000E+00  1.51447E-01
       2    -1     0     0   502     0  0.000000000E+00  0.000000000E+00  5.955654345E+02  5.955654345E+02  0.000000000E+00  0.00000E+00  9.000E+00
      21    -1     0     0   501   502  0.000000000E+00  0.000000000E+00 -7.087053181E+02  7.087053181E+02  0.000000000E+00  0.00000E+00  9.000E+00
      25     1     1     2     0     0 -3.092366741E+01 -5.435364412E+01 -1.412811342E+02  1.987358818E+02  1.250000000E+02  0.00000E+00  9.000E+00
      25     1     1     2     0     0  8.351738642E+00  3.217423447E+01 -5.304784669E+02  5.460195388E+02  1.250000000E+02  0.00000E+00  9.000E+00
       2     1     1     2   501     0  2.257192877E+01  2.217940964E+01  5.586197174E+02  5.595153321E+02  7.629394531E-06  0.00000E+00  9.000E+00
#rwgt            1           1   2.3912498538058963E-002           7      218204           0
</event>
<event>
      5   9999  3.19816E-02  2.76906E+01 -1.00000E+00  1.55496E-01
      21    -1     0     0   502   511  0.000000000E+00  0.000000000E+00  1.415537220E+03  1.415537220E+03  0.000000000E+00  0.00000E+00  9.000E+00
      21    -1     0     0   501   502  0.000000000E+00  0.000000000E+00 -5.839169842E+02  5.839169842E+02  0.000000000E+00  0.00000E+00  9.000E+00
      25     1     1     2     0     0 -6.408496124E+02  4.743859608E+02  6.430295022E+02  1.031911918E+03  1.250000000E+02  0.00000E+00  9.000E+00
      25     1     1     2     0     0  6.351942181E+02 -4.472790129E+02  1.011290222E+01  7.869291461E+02  1.250000000E+02  0.00000E+00  9.000E+00
      21     1     1     2   501   511  5.655394313E+00 -2.710694789E+01  1.784778309E+02  1.806131397E+02  2.697398305E-06  0.00000E+00  9.000E+00
#rwgt            1           1   2.1662062033022837E-002           7      218297           0
</event>
<event>
      5   9999  3.19816E-02  1.04749E+02 -1.00000E+00  1.22928E-01
      21    -1     0     0   502   501  0.000000000E+00  0.000000000E+00  9.162792644E+02  9.162792644E+02  0.000000000E+00  0.00000E+00  9.000E+00
       2    -1     0     0   501     0  0.000000000E+00  0.000000000E+00 -1.039061395E+03  1.039061395E+03  0.000000000E+00  0.00000E+00  9.000E+00
      25     1     1     2     0     0  3.685814356E+02  5.769498438E+02  3.236779186E+02  7.675387886E+02  1.250000000E+02  0.00000E+00  9.000E+00
      25     1     1     2     0     0 -3.016625895E+02 -4.963636457E+02  1.247260251E+02  6.070904117E+02  1.250000000E+02  0.00000E+00  9.000E+00
       2     1     1     2   502     0 -6.691884617E+01 -8.058619818E+01 -5.711860738E+02  5.807114586E+02  7.629394531E-06  0.00000E+00  9.000E+00
#rwgt            1           1   2.9733602303364980E-002           7      218538           0
</event>
<event>
      5   9999  3.19816E-02  1.49931E+02 -1.00000E+00  1.16402E-01
      21    -1     0     0   511   501  0.000000000E+00  0.000000000E+00  1.312061716E+03  1.312061716E+03  0.000000000E+00  0.00000E+00  9.000E+00
      21    -1     0     0   501   502  0.000000000E+00  0.000000000E+00 -6.860675538E+02  6.860675538E+02  0.000000000E+00  0.00000E+00  9.000E+00
      25     1     1     2     0     0 -6.618703412E+02  3.852055245E+02  7.013374403E+02  1.045922966E+03  1.250000000E+02  0.00000E+00  9.000E+00
      25     1     1     2     0     0  7.137848781E+02 -2.445496498E+02 -1.580745965E+02  7.809647633E+02  1.250000000E+02  0.00000E+00  9.000E+00
      21     1     1     2   511   502 -5.191453692E+01 -1.406558748E+02  8.273131788E+01  1.712415405E+02  1.348699152E-06  0.00000E+00  9.000E+00
#rwgt            1           1   2.5170968653295024E-002           7      218613           0
</event>
<event>
      5   9999  3.19816E-02  1.14066E+02 -1.00000E+00  1.21311E-01
      21    -1     0     0   512   501  0.000000000E+00  0.000000000E+00  2.297548810E+02  2.297548810E+02  0.000000000E+00  0.00000E+00  9.000E+00
      21    -1     0     0   501   502  0.000000000E+00  0.000000000E+00 -2.382285061E+02  2.382285061E+02  0.000000000E+00  0.00000E+00  9.000E+00
      25     1     1     2     0     0  4.433682400E+01 -1.655635239E+02  1.906011078E+01  2.129913666E+02  1.250000000E+02  0.00000E+00  9.000E+00
      25     1     1     2     0     0 -1.631306962E+01  5.499352301E+01 -3.055285753E+01  1.408860565E+02  1.250000000E+02  0.00000E+00  9.000E+00
      21     1     1     2   512   502 -2.802375438E+01  1.105700009E+02  3.019121675E+00  1.141059639E+02  1.939671051E-06  0.00000E+00  9.000E+00
#rwgt            1           1   3.0775865700223212E-002           7      218756           0
</event>
<event>
      5   9999  3.19816E-02  1.42078E+01 -1.00000E+00  1.79633E-01
      21    -1     0     0   502   501  0.000000000E+00  0.000000000E+00  3.675937078E+02  3.675937078E+02  0.000000000E+00  0.00000E+00  9.000E+00
      21    -1     0     0   501   511  0.000000000E+00  0.000000000E+00 -2.134417704E+02  2.134417704E+02  0.000000000E+00  0.00000E+00  9.000E+00
      25     1     1     2     0     0 -7.828530051E+01 -1.056738117E+02 -8.036476504E+01  1.984415234E+02  1.250000000E+02  0.00000E+00  9.000E+00
      25     1     1     2     0     0  7.514749663E+01  9.181685785E+01  2.833989595E+02  3.316887877E+02  1.250000000E+02  0.00000E+00  9.000E+00
      21     1     1     2   502   511  3.137803879E+00  1.385695387E+01 -4.888225705E+01  5.090516710E+01  0.000000000E+00  0.00000E+00  9.000E+00
#rwgt            1           1   2.6030323973542907E-002           7      218804           0
</event>
<event>
      5   9999  3.19816E-02  9.61518E+01 -1.00000E+00  1.24599E-01
      21    -1     0     0   502   501  0.000000000E+00  0.000000000E+00  6.474815042E+02  6.474815042E+02  0.000000000E+00  0.00000E+00  9.000E+00
      21    -1     0     0   512   502  0.000000000E+00  0.000000000E+00 -3.913810054E+02  3.913810054E+02  0.000000000E+00  0.00000E+00  9.000E+00
      25     1     1     2     0     0 -1.429001281E+02 -3.792814821E+02  1.616544155E+02  4.539075229E+02  1.250000000E+02  0.00000E+00  9.000E+00
      25     1     1     2     0     0  7.246617548E+01  4.447354270E+02  1.250522475E+02  4.840495959E+02  1.250000000E+02  0.00000E+00  9.000E+00
      21     1     1     2   512   501  7.043395263E+01 -6.545394491E+01 -3.060616426E+01  1.009053907E+02  1.815741803E-06  0.00000E+00  9.000E+00
#rwgt            1           1   2.6846956112194918E-002           7      218956           0
</event>
<event>
      5   9999  3.19816E-02  4.06019E+01 -1.00000E+00  1.44439E-01
      21    -1     0     0   502   501  0.000000000E+00  0.000000000E+00  2.210487346E+03  2.210487346E+03  0.000000000E+00  0.00000E+00  9.000E+00
       5    -1     0     0   501     0  0.000000000E+00  0.000000000E+00 -5.478305432E+02  5.478305432E+02  0.000000000E+00  0.00000E+00  9.000E+00
      25     1     1     2     0     0 -3.685094591E+02  6.883498302E+02  7.614328978E+02  1.097738479E+03  1.250000000E+02  0.00000E+00  9.000E+00
      25     1     1     2     0     0  3.300285798E+02 -6.753984176E+02  1.165876839E+03  1.392830101E+03  1.250000000E+02  0.00000E+00  9.000E+00
       5     1     1     2   502     0  3.848087927E+01 -1.295141259E+01 -2.646529341E+02  2.677493094E+02  1.009274029E-05  0.00000E+00  9.000E+00
#rwgt            1           1   2.6421153030757125E-002           7      219042           0
</event>
<event>
      5   9999  3.19816E-02  2.65099E+02 -1.00000E+00  1.07367E-01
      21    -1     0     0   502   511  0.000000000E+00  0.000000000E+00  5.130327223E+02  5.130327223E+02  0.000000000E+00  0.00000E+00  9.000E+00
      21    -1     0     0   501   502  0.000000000E+00  0.000000000E+00 -4.433924313E+02  4.433924313E+02  0.000000000E+00  0.00000E+00  9.000E+00
      25     1     1     2     0     0  2.166673220E+02  6.070642521E+01 -4.064488075E+01  2.605897250E+02  1.250000000E+02  0.00000E+00  9.000E+00
      25     1     1     2     0     0 -2.982050632E+02  1.915416587E+02 -6.025617982E+01  3.806182785E+02  1.250000000E+02  0.00000E+00  9.000E+00
      21     1     1     2   501   511  8.153774126E+01 -2.522480839E+02  1.705413516E+02  3.152171500E+02  1.907348633E-06  0.00000E+00  9.000E+00
#rwgt            1           1   3.0076699942156390E-002           7      219225           0
</event>
<event>
      5   9999  3.19816E-02  3.05624E+01 -1.00000E+00  1.52482E-01
      21    -1     0     0   502   501  0.000000000E+00  0.000000000E+00  1.201397691E+03  1.201397691E+03  0.000000000E+00  0.00000E+00  9.000E+00
      21    -1     0     0   512   502  0.000000000E+00  0.000000000E+00 -9.150692051E+01  9.150692051E+01  0.000000000E+00  0.00000E+00  9.000E+00
      25     1     1     2     0     0 -8.803897992E+01 -2.233882796E+02  5.382136418E+02  6.024550686E+02  1.250000000E+02  0.00000E+00  9.000E+00
      25     1     1     2     0     0  7.011233878E+01  2.481409374E+02  5.892230262E+02  6.552086992E+02  1.250000000E+02  0.00000E+00  9.000E+00
      21     1     1     2   512   501  1.792664114E+01 -2.475265785E+01 -1.754589767E+01  3.524084361E+01  1.507891493E-06  0.00000E+00  9.000E+00
#rwgt            1           1   2.9493351150157752E-002           7      219283           0
</event>
<event>
      5   9999  3.19816E-02  1.12239E+02 -1.00000E+00  1.21614E-01
      21    -1     0     0   502   501  0.000000000E+00  0.000000000E+00  6.636419128E+02  6.636419128E+02  0.000000000E+00  0.00000E+00  9.000E+00
      21    -1     0     0   501   511  0.000000000E+00  0.000000000E+00 -8.909961075E+02  8.909961075E+02  0.000000000E+00  0.00000E+00  9.000E+00
      25     1     1     2     0     0  2.911828303E+00  1.765552645E+02  4.333095457E+02  4.843164281E+02  1.250000000E+02  0.00000E+00  9.000E+00
      25     1     1     2     0     0 -2.542305378E+01 -6.659673572E+01  1.753342627E+02  2.268227514E+02  1.250000000E+02  0.00000E+00  9.000E+00
      21     1     1     2   502   511  2.251122548E+01 -1.099585288E+02 -8.359980030E+02  8.434988408E+02  1.078959322E-05  0.00000E+00  9.000E+00
#rwgt            1           1   2.9752833365889776E-002           7      219373           0
</event>
<event>
      5   9999  3.19816E-02  2.09861E+01 -1.00000E+00  1.64663E-01
      21    -1     0     0   502   501  0.000000000E+00  0.000000000E+00  6.185272401E+02  6.185272401E+02  0.000000000E+00  0.00000E+00  9.000E+00
      21    -1     0     0   512   502  0.000000000E+00  0.000000000E+00 -2.159666178E+02  2.159666178E+02  0.000000000E+00  0.00000E+00  9.000E+00
      25     1     1     2     0     0  7.512006653E+01  1.222771342E+02  5.381949409E+02  5.708533229E+02  1.250000000E+02  0.00000E+00  9.000E+00
      25     1     1     2     0     0 -9.565065381E+01 -1.179284287E+02 -1.409796976E+02  2.419843735E+02  1.250000000E+02  0.00000E+00  9.000E+00
      21     1     1     2   512   501  2.053058728E+01 -4.348705570E+00  5.345378967E+00  2.165616149E+01  2.230201594E-07  0.00000E+00  9.000E+00
#rwgt            1           1   3.1244437627156924E-002           7      219455           0
</event>
<event>
      5   9999  3.19816E-02  1.77082E+01 -1.00000E+00  1.70851E-01
      21    -1     0     0   502   501  0.000000000E+00  0.000000000E+00  1.985017052E+02  1.985017052E+02  0.000000000E+00  0.00000E+00  9.000E+00
      21    -1     0     0   511   502  0.000000000E+00  0.000000000E+00 -3.073317407E+02  3.073317407E+02  0.000000000E+00  0.00000E+00  9.000E+00
      25     1     1     2     0     0  1.217922921E+02 -2.175995165E+01  2.630881342E+01  1.778314133E+02  1.250000000E+02  0.00000E+00  9.000E+00
      25     1     1     2     0     0 -1.390945858E+02  1.799005817E+01  3.828314959E+00  1.879111545E+02  1.250000000E+02  0.00000E+00  9.000E+00
      21     1     1     2   511   501  1.730229377E+01  3.769893478E+00 -1.389671639E+02  1.400908780E+02  2.697398305E-06  0.00000E+00  9.000E+00
#rwgt            1           1   2.4938456050813362E-002           7      219624           0
</event>
<event>
      5   9999  3.19816E-02  1.43098E+02 -1.00000E+00  1.17210E-01
      21    -1     0     0   502   501  0.000000000E+00  0.000000000E+00  1.676246830E+03  1.676246830E+03  0.000000000E+00  0.00000E+00  9.000E+00
      21    -1     0     0   512   502  0.000000000E+00  0.000000000E+00 -9.721868289E+02  9.721868289E+02  0.000000000E+00  0.00000E+00  9.000E+00
      25     1     1     2     0     0 -5.832166597E+02  8.563228700E+00  2.760702165E+02  6.573087292E+02  1.250000000E+02  0.00000E+00  9.000E+00
      25     1     1     2     0     0  4.783934794E+02 -1.059760942E+02  1.149367109E+03  1.255691445E+03  1.250000000E+02  0.00000E+00  9.000E+00
      21     1     1     2   512   501  1.048231803E+02  9.741286549E+01 -7.213773246E+02  7.354334844E+02  1.078959322E-05  0.00000E+00  9.000E+00
#rwgt            1           1   3.2626017935494300E-002           7      219804           0
</event>
<event>
      5   9999  3.19816E-02  6.44229E+01 -1.00000E+00  1.33073E-01
       4    -1     0     0   502     0  0.000000000E+00  0.000000000E+00  4.087827328E+02  4.087827328E+02  0.000000000E+00  0.00000E+00  9.000E+00
      21    -1     0     0   501   502  0.000000000E+00  0.000000000E+00 -8.394849938E+02  8.394849938E+02  0.000000000E+00  0.00000E+00  9.000E+00
      25     1     1     2     0     0  5.146350392E+02 -1.725238652E+02 -3.176431085E+02  6.411987617E+02  1.250000000E+02  0.00000E+00  9.000E+00
      25     1     1     2     0     0 -4.628437068E+02  1.342097604E+02 -1.648177041E+02  5.244296257E+02  1.250000000E+02  0.00000E+00  9.000E+00
       4     1     1     2   501     0 -5.179133237E+01  3.831410479E+01  5.175855151E+01  8.263933923E+01  1.348699152E-06  0.00000E+00  9.000E+00
#rwgt            1           1   2.8911355949562387E-002           7      219907           0
</event>
<event>
      5   9999  3.19816E-02  1.90750E+01 -1.00000E+00  1.68084E-01
      21    -1     0     0   502   501  0.000000000E+00  0.000000000E+00  3.397959284E+02  3.397959284E+02  0.000000000E+00  0.00000E+00  9.000E+00
      21    -1     0     0   501   511  0.000000000E+00  0.000000000E+00 -4.612882972E+02  4.612882972E+02  0.000000000E+00  0.00000E+00  9.000E+00
      25     1     1     2     0     0 -8.205061720E+01 -1.078078651E+02  2.523489586E+02  3.125057383E+02  1.250000000E+02  0.00000E+00  9.000E+00
      25     1     1     2     0     0  6.777796100E+01  9.515297694E+01 -7.116799245E+01  1.853046793E+02  1.250000000E+02  0.00000E+00  9.000E+00
      21     1     1     2   502   511  1.427265620E+01  1.265488820E+01 -3.026733349E+02  3.032738080E+02  0.000000000E+00  0.00000E+00  9.000E+00
#rwgt            1           1   2.7379837299624572E-002           7      219986           0
</event>
<event>
      5   9999  3.19816E-02  9.13513E+01 -1.00000E+00  1.25621E-01
      21    -1     0     0   512   501  0.000000000E+00  0.000000000E+00  2.462774265E+02  2.462774265E+02  0.000000000E+00  0.00000E+00  9.000E+00
      21    -1     0     0   501   502  0.000000000E+00  0.000000000E+00 -1.822907553E+03  1.822907553E+03  0.000000000E+00  0.00000E+00  9.000E+00
      25     1     1     2     0     0  2.197527130E+02  1.600466284E+02 -1.572396379E+03  1.600612868E+03  1.250000000E+02  0.00000E+00  9.000E+00
      25     1     1     2     0     0 -2.492160226E+02 -7.357713647E+01 -1.273862597E+02  3.152371807E+02  1.250000000E+02  0.00000E+00  9.000E+00
      21     1     1     2   512   502  2.946330951E+01 -8.646949188E+01  1.231525128E+02  1.533349310E+02  3.814697266E-06  0.00000E+00  9.000E+00
#rwgt            1           1   2.7829955317033545E-002           7      220148           0
</event>
<event>
      5   9999  3.19816E-02  4.91289E+01 -1.00000E+00  1.39512E-01
      -1    -1     0     0     0   501  0.000000000E+00  0.000000000E+00  3.671808296E+02  3.671808296E+02  0.000000000E+00  0.00000E+00  9.000E+00
      21    -1     0     0   501   502  0.000000000E+00  0.000000000E+00 -1.325222827E+02  1.325222827E+02  0.000000000E+00  0.00000E+00  9.000E+00
      25     1     1     2     0     0 -1.398473539E+02  2.325765917E+01  5.928291211E+01  1.980849938E+02  1.250000000E+02  0.00000E+00  9.000E+00
      25     1     1     2     0     0  9.123554409E+01 -3.036684868E+01  4.761483254E+01  1.647368880E+02  1.250000000E+02  0.00000E+00  9.000E+00
      -1     1     1     2     0   502  4.861180984E+01  7.109189508E+00  1.277608023E+02  1.368812304E+02  2.336015456E-06  0.00000E+00  9.000E+00
#rwgt            1           1   2.2552350188320823E-002           7      220206           0
</event>
<event>
      5   9999  3.19816E-02  4.33178E+01 -1.00000E+00  1.42726E-01
      21    -1     0     0   502   501  0.000000000E+00  0.000000000E+00  1.526574957E+02  1.526574957E+02  0.000000000E+00  0.00000E+00  9.000E+00
      21    -1     0     0   511   502  0.000000000E+00  0.000000000E+00 -2.978997835E+02  2.978997835E+02  0.000000000E+00  0.00000E+00  9.000E+00
      25     1     1     2     0     0  4.287757846E+00 -1.139972733E+02 -1.224997681E+02  2.089137534E+02  1.250000000E+02  0.00000E+00  9.000E+00
      25     1     1     2     0     0  2.916876661E+01  1.415125666E+02  3.332972302E+00  1.910830504E+02  1.250000000E+02  0.00000E+00  9.000E+00
      21     1     1     2   511   501 -3.345652446E+01 -2.751529330E+01 -2.607549194E+01  5.056047541E+01  8.259061849E-07  0.00000E+00  9.000E+00
#rwgt            1           1   2.5648012197553381E-002           7      220336           0
</event>
<event>
      5   9999  3.19816E-02  7.06401E+01 -1.00000E+00  1.31021E-01
      21    -1     0     0   512   501  0.000000000E+00  0.000000000E+00  1.045008355E+03  1.045008355E+03  0.000000000E+00  0.00000E+00  9.000E+00
      21    -1     0     0   501   502  0.000000000E+00  0.000000000E+00 -1.031706727E+03  1.031706727E+03  0.000000000E+00  0.00000E+00  9.000E+00
      25     1     1     2     0     0  5.303573430E+02 -2.862466130E+02 -3.503474216E+02  7.082262001E+02  1.250000000E+02  0.00000E+00  9.000E+00
      25     1     1     2     0     0 -5.165939094E+02  3.555329467E+02 -2.963045609E+02  7.047654477E+02  1.250000000E+02  0.00000E+00  9.000E+00
      21     1     1     2   512   502 -1.376343361E+01 -6.928633373E+01  6.599536105E+02  6.637234335E+02  1.321449896E-05  0.00000E+00  9.000E+00
#rwgt            1           1   2.6854902041401854E-002           7      220411           0
</event>
<event>
      5   9999  3.19816E-02  1.96101E+02 -1.00000E+00  1.11960E-01
      21    -1     0     0   502   501  0.000000000E+00  0.000000000E+00  1.779704861E+03  1.779704861E+03  0.000000000E+00  0.00000E+00  9.000E+00
      21    -1     0     0   501   511  0.000000000E+00  0.000000000E+00 -2.612084015E+02  2.612084015E+02  0.000000000E+00  0.00000E+00  9.000E+00
      25     1     1     2     0     0 -4.109471030E+00  2.199508210E+00  1.408962177E+03  1.414503850E+03  1.250000000E+02  0.00000E+00  9.000E+00
      25     1     1     2     0     0 -1.246832679E+02 -1.500781961E+02  2.821862727E+02  3.651348720E+02  1.250000000E+02  0.00000E+00  9.000E+00
      21     1     1     2   502   511  1.287927390E+02  1.478786879E+02 -1.726519900E+02  2.612745407E+02  5.722045898E-06  0.00000E+00  9.000E+00
#rwgt            1           1   2.9180689292731831E-002           7      220479           0
</event>
<event>
      5   9999  3.19816E-02  2.04519E+02 -1.00000E+00  1.11296E-01
      21    -1     0     0   502   501  0.000000000E+00  0.000000000E+00  1.320371157E+03  1.320371157E+03  0.000000000E+00  0.00000E+00  9.000E+00
      21    -1     0     0   512   502  0.000000000E+00  0.000000000E+00 -3.260123600E+02  3.260123600E+02  0.000000000E+00  0.00000E+00  9.000E+00
      25     1     1     2     0     0 -1.370807204E+01  1.611974051E+02  1.094240107E+03  1.113175155E+03  1.250000000E+02  0.00000E+00  9.000E+00
      25     1     1     2     0     0 -1.786649332E+02 -2.306294488E+02 -8.259093949E+01  3.279593943E+02  1.250000000E+02  0.00000E+00  9.000E+00
      21     1     1     2   512   501  1.923730052E+02  6.943204364E+01 -1.729037028E+01  2.052489677E+02  3.568322551E-06  0.00000E+00  9.000E+00
#rwgt            2          11   4.5113315502387057E-003           7      220545           0
</event>
<event>
      5   9999  3.19816E-02  1.11875E+03 -1.00000E+00  8.98365E-02
      21    -1     0     0   502   511  0.000000000E+00  0.000000000E+00  1.414888499E+03  1.414888499E+03  0.000000000E+00  0.00000E+00  9.000E+00
      21    -1     0     0   501   502  0.000000000E+00  0.000000000E+00 -2.095627948E+03  2.095627948E+03  0.000000000E+00  0.00000E+00  9.000E+00
      25     1     1     2     0     0  2.197975670E+02  5.194150386E+02  6.205977962E+01  5.810158080E+02  1.250000000E+02  0.00000E+00  9.000E+00
      25     1     1     2     0     0 -1.186280600E+03 -1.082888505E+03 -8.206724999E+02  1.808047988E+03  1.250000000E+02  0.00000E+00  9.000E+00
      21     1     1     2   501   511  9.664830331E+02  5.634734659E+02  7.787327142E+01  1.121452650E+03  1.124365437E-05  0.00000E+00  9.000E+00
#rwgt            2          11   7.0534850821276523E-004           7      220565           0
</event>
<event>
      5   9999  3.19816E-02  4.33311E+01 -1.00000E+00  1.42718E-01
      21    -1     0     0   512   501  0.000000000E+00  0.000000000E+00  8.369606776E+02  8.369606776E+02  0.000000000E+00  0.00000E+00  9.000E+00
      21    -1     0     0   501   502  0.000000000E+00  0.000000000E+00 -1.014672990E+02  1.014672990E+02  0.000000000E+00  0.00000E+00  9.000E+00
      25     1     1     2     0     0  7.551401999E+01  2.094548816E+02  3.242600660E+02  4.127266711E+02  1.250000000E+02  0.00000E+00  9.000E+00
      25     1     1     2     0     0 -1.186128845E+02 -2.049744336E+02  2.797315996E+02  3.872444998E+02  1.250000000E+02  0.00000E+00  9.000E+00
      21     1     1     2   512   502  4.309886452E+01 -4.480447964E+00  1.315017130E+02  1.384568057E+02  0.000000000E+00  0.00000E+00  9.000E+00
#rwgt            1           1   2.6781693669174208E-002           7      220585           0
</event>
<event>
      5   9999  3.19816E-02  1.06862E+02 -1.00000E+00  1.22545E-01
      21    -1     0     0   502   501  0.000000000E+00  0.000000000E+00  1.112552391E+02  1.112552391E+02  0.000000000E+00  0.00000E+00  9.000E+00
      -1    -1     0     0     0   502  0.000000000E+00  0.000000000E+00 -5.307094013E+02  5.307094013E+02  0.000000000E+00  0.00000E+00  9.000E+00
      25     1     1     2     0     0 -2.215518855E+00  8.347816430E+01 -2.845408303E+02  3.218104979E+02  1.250000000E+02  0.00000E+00  9.000E+00
      25     1     1     2     0     0  1.040376671E+02 -5.104682173E+01 -1.278226415E+02  2.130568982E+02  1.250000000E+02  0.00000E+00  9.000E+00
      -1     1     1     2     0   501 -1.018221483E+02 -3.243134258E+01 -7.090690340E+00  1.070972443E+02  2.690804801E-06  0.00000E+00  9.000E+00
#rwgt            1           1   1.7841297405335774E-002           7      220688           0
</event>
<event>
      5   9999  3.32589E-02  2.19515E+02 -1.00000E+00  1.10196E-01
      21    -1     0     0   502   511  0.000000000E+00  0.000000000E+00  2.337094027E+03  2.337094027E+03  0.000000000E+00  0.00000E+00  9.000E+00
      21    -1     0     0   501   502  0.000000000E+00  0.000000000E+00 -8.402406857E+02  8.402406857E+02  0.000000000E+00  0.00000E+00  9.000E+00
      25     1     1     2     0     0  7.206677557E+02  4.609475715E+01 -4.821653834E+02  8.772657508E+02  1.250000000E+02  0.00000E+00  9.000E+00
      25     1     1     2     0     0 -9.380049667E+02 -7.694046276E+01  1.670061109E+03  1.921068000E+03  1.250000000E+02  0.00000E+00  9.000E+00
      21     1     1     2   501   511  2.173372111E+02  3.084570560E+01  3.089576162E+02  3.790009624E+02  0.000000000E+00  0.00000E+00  9.000E+00
#rwgt            1           1   8.0749195178949629E-002           7      220757           0
</event>
<event>
      5   9999  3.19816E-02  7.34809E+01 -1.00000E+00  1.30162E-01
      21    -1     0     0   502   512  0.000000000E+00  0.000000000E+00  7.620688858E+02  7.620688858E+02  0.000000000E+00  0.00000E+00  9.000E+00
      21    -1     0     0   501   502  0.000000000E+00  0.000000000E+00 -2.381305980E+02  2.381305980E+02  0.000000000E+00  0.00000E+00  9.000E+00
      25     1     1     2     0     0  5.765144497E+00  3.158822194E+02  1.488872897E+02  3.709544964E+02  1.250000000E+02  0.00000E+00  9.000E+00
      25     1     1     2     0     0 -6.738355534E+01 -2.758495452E+02  7.346296854E+01  3.188343189E+02  1.250000000E+02  0.00000E+00  9.000E+00
      21     1     1     2   501   512  6.161841084E+01 -4.003267413E+01  3.015880295E+02  3.104106685E+02  5.394796609E-06  0.00000E+00  9.000E+00
#rwgt            1           1   2.4093265600953692E-002           7      220836           0
</event>
<event>
      5   9999  3.19816E-02  1.93324E+01 -1.00000E+00  1.67595E-01
      21    -1     0     0   502   501  0.000000000E+00  0.000000000E+00  1.399486862E+03  1.399486862E+03  0.000000000E+00  0.00000E+00  9.000E+00
       2    -1     0     0   501     0  0.000000000E+00  0.000000000E+00 -1.510678435E+03  1.510678435E+03  0.000000000E+00  0.00000E+00  9.000E+00
      25     1     1     2     0     0 -1.353469278E+02  1.943254602E+02  1.303534140E+03  1.330754458E+03  1.250000000E+02  0.00000E+00  9.000E+00
      25     1     1     2     0     0  1.201140230E+02 -1.824217083E+02 -1.101726300E+02  2.747145183E+02  1.250000000E+02  0.00000E+00  9.000E+00
       2     1     1     2   502     0  1.523290480E+01 -1.190375196E+01 -1.304553083E+03  1.304696320E+03  1.525878906E-05  0.00000E+00  9.000E+00
#rwgt            1           1   3.6916197236175466E-002           7      220910           0
</event>
<event>
      5   9999  3.19816E-02  1.48205E+02 -1.00000E+00  1.16601E-01
      21    -1     0     0   502   501  0.000000000E+00  0.000000000E+00  5.181132149E+02  5.181132149E+02  0.000000000E+00  0.00000E+00  9.000E+00
      21    -1     0     0   511   502  0.000000000E+00  0.000000000E+00 -7.514449546E+02  7.514449546E+02  0.000000000E+00  0.00000E+00  9.000E+00
      25     1     1     2     0     0 -1.409641925E+02  2.129985784E+02 -8.547336209E+01  2.969343254E+02  1.250000000E+02  0.00000E+00  9.000E+00
      25     1     1     2     0     0  8.813074298E+01 -3.514667332E+02  3.089901438E+02  4.923370811E+02  1.250000000E+02  0.00000E+00  9.000E+00
      21     1     1     2   511   501  5.283344956E+01  1.384681548E+02 -4.568485214E+02  4.802867630E+02  5.394796609E-06  0.00000E+00  9.000E+00
#rwgt            1           1   2.5698048775292855E-002           7      221134           0
</event>
<event>
      5   9999  3.19816E-02  4.35439E+01 -1.00000E+00  1.42590E-01
      21    -1     0     0   502   501  0.000000000E+00  0.000000000E+00  7.704131288E+02  7.704131288E+02  0.000000000E+00  0.00000E+00  9.000E+00
      21    -1     0     0   501   512  0.000000000E+00  0.000000000E+00 -1.048487085E+03  1.048487085E+03  0.000000000E+00  0.00000E+00  9.000E+00
      25     1     1     2     0     0 -2.626319619E+02  4.511526647E+01  1.418766456E+02  3.267490126E+02  1.250000000E+02  0.00000E+00  9.000E+00
      25     1     1     2     0     0  3.052012062E+02 -3.595403535E+01  4.841992194E+02  5.869534504E+02  1.250000000E+02  0.00000E+00  9.000E+00
      21     1     1     2   502   512 -4.256924421E+01 -9.161231120E+00 -9.041498209E+02  9.051977504E+02  1.078959322E-05  0.00000E+00  9.000E+00
#rwgt            1           1   3.1403833570147449E-002           7      221194           0
</event>
<event>
      5   9999  3.19816E-02  1.32007E+02 -1.00000E+00  1.18636E-01
      21    -1     0     0   502   501  0.000000000E+00  0.000000000E+00  8.745914029E+02  8.745914029E+02  0.000000000E+00  0.00000E+00  9.000E+00
      21    -1     0     0   501   511  0.000000000E+00  0.000000000E+00 -1.714271644E+02  1.714271644E+02  0.000000000E+00  0.00000E+00  9.000E+00
      25     1     1     2     0     0 -2.175338205E+01 -2.175171207E+02  3.343281310E+01  2.540268892E+02  1.250000000E+02  0.00000E+00  9.000E+00
      25     1     1     2     0     0 -9.400782113E+01  1.540721985E+02  6.076880189E+02  6.461311330E+02  1.250000000E+02  0.00000E+00  9.000E+00
      21     1     1     2   502   511  1.157612032E+02  6.344492217E+01  6.204340655E+01  1.458605451E+02  2.236564522E-06  0.00000E+00  9.000E+00
#rwgt            1           1   1.9168494770542169E-002           7      221316           0
</event>
<event>
      5   9999  3.19816E-02  7.08146E+01 -1.00000E+00  1.30967E-01
      21    -1     0     0   502   501  0.000000000E+00  0.000000000E+00  3.443055525E+02  3.443055525E+02  0.000000000E+00  0.00000E+00  9.000E+00
      21    -1     0     0   501   512  0.000000000E+00  0.000000000E+00 -3.282058863E+02  3.282058863E+02  0.000000000E+00  0.00000E+00  9.000E+00
      25     1     1     2     0     0  1.116282538E+02 -1.944666530E+02  1.474753354E+02  2.960610085E+02  1.250000000E+02  0.00000E+00  9.000E+00
      25     1     1     2     0     0 -1.203187529E+02  1.241873585E+02  1.495316066E+01  2.138871182E+02  1.250000000E+02  0.00000E+00  9.000E+00
      21     1     1     2   502   512  8.690499136E+00  7.027929457E+01 -1.463288298E+02  1.625633122E+02  2.697398305E-06  0.00000E+00  9.000E+00
#rwgt            1           1   2.9744888672800628E-002           7      221370           0
</event>
<event>
      5   9999  3.19816E-02  1.48919E+02 -1.00000E+00  1.16518E-01
      21    -1     0     0   502   501  0.000000000E+00  0.000000000E+00  8.919070517E+01  8.919070517E+01  0.000000000E+00  0.00000E+00  9.000E+00
      21    -1     0     0   511   502  0.000000000E+00  0.000000000E+00 -1.160502862E+03  1.160502862E+03  0.000000000E+00  0.00000E+00  9.000E+00
      25     1     1     2     0     0  7.069146067E+00  1.179784413E+02 -1.401242418E+02  2.218753897E+02  1.250000000E+02  0.00000E+00  9.000E+00
      25     1     1     2     0     0  6.485916598E+01 -2.483749739E+02 -5.849812952E+02  6.509415909E+02  1.250000000E+02  0.00000E+00  9.000E+00
      21     1     1     2   511   501 -7.192831204E+01  1.303965327E+02 -3.462066197E+02  3.768765863E+02  5.394796609E-06  0.00000E+00  9.000E+00
#rwgt            1           1   2.8832492954457223E-002           7      221451           0
</event>
<event>
      5   9999  3.19816E-02  6.75765E+01 -1.00000E+00  1.32000E-01
      21    -1     0     0   502   512  0.000000000E+00  0.000000000E+00  3.017204773E+02  3.017204773E+02  0.000000000E+00  0.00000E+00  9.000E+00
      21    -1     0     0   501   502  0.000000000E+00  0.000000000E+00 -3.802111685E+02  3.802111685E+02  0.000000000E+00  0.00000E+00  9.000E+00
      25     1     1     2     0     0  1.302348259E+02  1.263715592E+02 -2.740476564E+02  3.516503929E+02  1.250000000E+02  0.00000E+00  9.000E+00
      25     1     1     2     0     0 -1.082532181E+02 -6.247012548E+01  1.943234235E+02  2.626934882E+02  1.250000000E+02  0.00000E+00  9.000E+00
      21     1     1     2   501   512 -2.198160785E+01 -6.390143368E+01  1.233541722E+00  6.758776469E+01  8.470101053E-07  0.00000E+00  9.000E+00
#rwgt            1           1   3.1243458297488858E-002           7      221498           0
</event>
<event>
      5   9999  3.19816E-02  3.60694E+02 -1.00000E+00  1.03056E-01
      21    -1     0     0   511   501  0.000000000E+00  0.000000000E+00  2.594099973E+03  2.594099973E+03  0.000000000E+00  0.00000E+00  9.000E+00
      21    -1     0     0   501   502  0.000000000E+00  0.000000000E+00 -7.584135465E+02  7.584135465E+02  0.000000000E+00  0.00000E+00  9.000E+00
      25     1     1     2     0     0 -5.242349566E+02 -7.086064014E+00 -3.563421870E+02  6.461247993E+02  1.250000000E+02  0.00000E+00  9.000E+00
      25     1     1     2     0     0  6.936657297E+02 -3.113373361E+02  3.806206854E+02  8.594185171E+02  1.250000000E+02  0.00000E+00  9.000E+00
      21     1     1     2   511   502 -1.694307732E+02  3.184234001E+02  1.811407928E+03  1.846970203E+03  2.157918644E-05  0.00000E+00  9.000E+00
#rwgt            2          11   8.2913268221107529E-004           7      221586           0
</event>
<event>
      5   9999  3.19816E-02  6.19647E+01 -1.00000E+00  1.33960E-01
      -3    -1     0     0     0   501  0.000000000E+00  0.000000000E+00  5.744530684E+02  5.744530684E+02  0.000000000E+00  0.00000E+00  9.000E+00
      21    -1     0     0   501   502  0.000000000E+00  0.000000000E+00 -1.627757327E+03  1.627757327E+03  0.000000000E+00  0.00000E+00  9.000E+00
      25     1     1     2     0     0  3.761708440E+02 -3.174320657E+02 -6.973331493E+02  8.626506485E+02  1.250000000E+02  0.00000E+00  9.000E+00
      25     1     1     2     0     0 -3.401783622E+02  2.669923247E+02 -7.856312401E+02  9.054543970E+02  1.250000000E+02  0.00000E+00  9.000E+00
      -3     1     1     2     0   502 -3.599248185E+01  5.043974096E+01  4.296601311E+02  4.341053496E+02  7.629394531E-06  0.00000E+00  9.000E+00
#rwgt            1           1   2.8235463640955666E-002           7      221636           0
</event>
<event>
      5   9999  3.19816E-02  1.04065E+02 -1.00000E+00  1.23054E-01
      21    -1     0     0   502   511  0.000000000E+00  0.000000000E+00  4.926339439E+02  4.926339439E+02  0.000000000E+00  0.00000E+00  9.000E+00
      21    -1     0     0   501   502  0.000000000E+00  0.000000000E+00 -2.189988417E+02  2.189988417E+02  0.000000000E+00  0.00000E+00  9.000E+00
      25     1     1     2     0     0 -1.547779334E+02  1.310402982E+02 -8.259914319E+01  2.521416009E+02  1.250000000E+02  0.00000E+00  9.000E+00
      25     1     1     2     0     0  6.003434507E+01 -8.799072472E+01  2.979536354E+02  3.402173703E+02  1.250000000E+02  0.00000E+00  9.000E+00
      21     1     1     2   501   511  9.474358833E+01 -4.304957350E+01  5.828060990E+01  1.192738144E+02  2.523185073E-06  0.00000E+00  9.000E+00
#rwgt            1           1   3.0285855659318479E-002           7      221735           0
</event>
<event>
      5   9999  3.19816E-02  1.57345E+01 -1.00000E+00  1.75450E-01
      21    -1     0     0   502   501  0.000000000E+00  0.000000000E+00  1.444152441E+02  1.444152441E+02  0.000000000E+00  0.00000E+00  9.000E+00
      21    -1     0     0   501   512  0.000000000E+00  0.000000000E+00 -3.371727166E+02  3.371727166E+02  0.000000000E+00  0.00000E+00  9.000E+00
      25     1     1     2     0     0 -1.541374316E+02 -1.389271429E+01 -2.596976032E+01  2.006259798E+02  1.250000000E+02  0.00000E+00  9.000E+00
      25     1     1     2     0     0  1.673002781E+02  2.251320597E+01 -1.587581020E+02  2.632970992E+02  1.250000000E+02  0.00000E+00  9.000E+00
      21     1     1     2   502   512 -1.316284654E+01 -8.620491680E+00 -8.029610215E+00  1.766488172E+01  2.384185791E-07  0.00000E+00  9.000E+00
#rwgt            1           1   2.7550050172518208E-002           7      221765           0
</event>
<event>
      5   9999  3.45906E-02  1.23806E+01 -1.00000E+00  1.85614E-01
      21    -1     0     0   502   501  0.000000000E+00  0.000000000E+00  1.813040442E+03  1.813040442E+03  0.000000000E+00  0.00000E+00  9.000E+00
      21    -1     0     0   501   511  0.000000000E+00  0.000000000E+00 -6.556828383E+01  6.556828383E+01  0.000000000E+00  0.00000E+00  9.000E+00
      25     1     1     2     0     0 -3.173953348E+01  4.516639350E+01  4.794500719E+02  4.985426487E+02  1.250000000E+02  0.00000E+00  9.000E+00
      25     1     1     2     0     0  2.835362015E+01 -3.325779871E+01  1.320004380E+03  1.326629780E+03  1.250000000E+02  0.00000E+00  9.000E+00
      21     1     1     2   502   511  3.385913330E+00 -1.190859479E+01 -5.198229371E+01  5.343629757E+01  3.693564745E-06  0.00000E+00  9.000E+00
#rwgt            1           1  0.18070724158984661                7      221887           0
</event>
<event>
      5   9999  3.19816E-02  4.73567E+01 -1.00000E+00  1.40435E-01
      21    -1     0     0   502   501  0.000000000E+00  0.000000000E+00  3.573367490E+02  3.573367490E+02  0.000000000E+00  0.00000E+00  9.000E+00
      21    -1     0     0   501   512  0.000000000E+00  0.000000000E+00 -5.702454884E+02  5.702454884E+02  0.000000000E+00  0.00000E+00  9.000E+00
      25     1     1     2     0     0  2.184985225E+02  3.247603773E+02 -2.233746607E+01  4.115031827E+02  1.250000000E+02  0.00000E+00  9.000E+00
      25     1     1     2     0     0 -1.712629932E+02 -3.281457383E+02 -8.422004690E+01  3.996606744E+02  1.250000000E+02  0.00000E+00  9.000E+00
      21     1     1     2   502   512 -4.723552929E+01  3.385360986E+00 -1.063512264E+02  1.164183803E+02  1.348699152E-06  0.00000E+00  9.000E+00
#rwgt            1           1   2.6808506101671195E-002           7      221981           0
</event>
<event>
      5   9999  3.19816E-02  8.28819E+00 -1.00000E+00  2.05681E-01
      21    -1     0     0   502   511  0.000000000E+00  0.000000000E+00  7.351879063E+02  7.351879063E+02  0.000000000E+00  0.00000E+00  9.000E+00
      21    -1     0     0   501   502  0.000000000E+00  0.000000000E+00 -1.816973593E+02  1.816973593E+02  0.000000000E+00  0.00000E+00  9.000E+00
      25     1     1     2     0     0  1.470583793E+02 -6.005041863E+01  2.035098802E+02  2.868335598E+02  1.250000000E+02  0.00000E+00  9.000E+00
      25     1     1     2     0     0 -1.552654316E+02  5.889350502E+01 -6.284629133E+01  2.171415564E+02  1.250000000E+02  0.00000E+00  9.000E+00
      21     1     1     2   501   511  8.207052310E+00  1.156913613E+00  4.128269581E+02  4.129101494E+02  5.394796609E-06  0.00000E+00  9.000E+00
#rwgt            1           1   2.5782297890180217E-002           7      222124           0
</event>
<event>
      5   9999  3.19816E-02  5.69068E+02 -1.00000E+00  9.72814E-02
      21    -1     0     0   502   501  0.000000000E+00  0.000000000E+00  2.024304477E+02  2.024304477E+02  0.000000000E+00  0.00000E+00  9.000E+00
       2    -1     0     0   501     0  0.000000000E+00  0.000000000E+00 -2.478724812E+03  2.478724812E+03  0.000000000E+00  0.00000E+00  9.000E+00
      25     1     1     2     0     0  3.808757825E+02 -2.111448550E+02 -5.022758099E+02  6.764277498E+02  1.250000000E+02  0.00000E+00  9.000E+00
      25     1     1     2     0     0  1.854569734E+02  2.668684311E+02 -8.628115631E+02  9.304202502E+02  1.250000000E+02  0.00000E+00  9.000E+00
       2     1     1     2   502     0 -5.663327559E+02 -5.572357605E+01 -9.112069909E+02  1.074307259E+03  1.078959322E-05  0.00000E+00  9.000E+00
#rwgt            2          13   1.2940781460634855E-003           7      222407           0
</event>
<event>
      5   9999  3.19816E-02  8.19011E+01 -1.00000E+00  1.27858E-01
      21    -1     0     0   502   501  0.000000000E+00  0.000000000E+00  5.486489318E+02  5.486489318E+02  0.000000000E+00  0.00000E+00  9.000E+00
      21    -1     0     0   511   502  0.000000000E+00  0.000000000E+00 -7.305363097E+02  7.305363097E+02  0.000000000E+00  0.00000E+00  9.000E+00
      25     1     1     2     0     0 -3.544099781E+02 -2.659934027E+02 -2.928784332E+02  5.456754525E+02  1.250000000E+02  0.00000E+00  9.000E+00
      25     1     1     2     0     0  3.070899913E+02  1.991457881E+02  3.244786875E+02  5.048511922E+02  1.250000000E+02  0.00000E+00  9.000E+00
      21     1     1     2   511   501  4.731998677E+01  6.684761466E+01 -2.134876323E+02  2.286585967E+02  0.000000000E+00  0.00000E+00  9.000E+00
#rwgt            1           1   2.9250175269288116E-002           7      222426           0
</event>
<event>
      5   9999  3.19816E-02  1.83932E+01 -1.00000E+00  1.69427E-01
      21    -1     0     0   502   501  0.000000000E+00  0.000000000E+00  9.478104271E+01  9.478104271E+01  0.000000000E+00  0.00000E+00  9.000E+00
      21    -1     0     0   501   512  0.000000000E+00  0.000000000E+00 -1.011379454E+03  1.011379454E+03  0.000000000E+00  0.00000E+00  9.000E+00
      25     1     1     2     0     0 -2.093108596E+02  9.094242753E+01 -1.817840207E+02  3.174145417E+02  1.250000000E+02  0.00000E+00  9.000E+00
      25     1     1     2     0     0  1.956674680E+02 -7.860683380E+01 -5.396377750E+02  5.927045812E+02  1.250000000E+02  0.00000E+00  9.000E+00
      21     1     1     2   502   512  1.364339162E+01 -1.233559373E+01 -1.951766154E+02  1.960413738E+02  2.697398305E-06  0.00000E+00  9.000E+00
#rwgt            1           1   2.4928395424161465E-002           7      222541           0
</event>
<event>
      5   9999  3.19816E-02  4.22018E+01 -1.00000E+00  1.43412E-01
      21    -1     0     0   502   501  0.000000000E+00  0.000000000E+00  1.333881515E+02  1.333881515E+02  0.000000000E+00  0.00000E+00  9.000E+00
      21    -1     0     0   511   502  0.000000000E+00  0.000000000E+00 -9.410686493E+02  9.410686493E+02  0.000000000E+00  0.00000E+00  9.000E+00
      25     1     1     2     0     0  2.351300251E+02 -5.433725443E+01 -6.199999282E+02  6.769516799E+02  1.250000000E+02  0.00000E+00  9.000E+00
      25     1     1     2     0     0 -2.014703689E+02  2.888100306E+01 -3.783262552E+01  2.418278922E+02  1.250000000E+02  0.00000E+00  9.000E+00
      21     1     1     2   511   501 -3.365965619E+01  2.545625137E+01 -1.498479441E+02  1.556772287E+02  2.697398305E-06  0.00000E+00  9.000E+00
#rwgt            1           1   2.8234003096141980E-002           7      222682           0
</event>
<event>
      5   9999  3.19816E-02  1.57557E+01 -1.00000E+00  1.75396E-01
      21    -1     0     0   502   512  0.000000000E+00  0.000000000E+00  2.051595925E+03  2.051595925E+03  0.000000000E+00  0.00000E+00  9.000E+00
      21    -1     0     0   501   502  0.000000000E+00  0.000000000E+00 -8.074993913E+01  8.074993913E+01  0.000000000E+00  0.00000E+00  9.000E+00
      25     1     1     2     0     0 -2.598807980E+02 -5.777857726E+01  1.412085477E+03  1.442389263E+03  1.250000000E+02  0.00000E+00  9.000E+00
      25     1     1     2     0     0  2.737968994E+02  5.039056743E+01  2.908126097E+02  4.215458758E+02  1.250000000E+02  0.00000E+00  9.000E+00
      21     1     1     2   501   512 -1.391610136E+01  7.388009830E+00  2.679478997E+02  2.684107254E+02  5.394796609E-06  0.00000E+00  9.000E+00
#rwgt            1           1   3.5798496915597097E-002           7      222740           0
</event>
<event>
      5   9999  3.19816E-02  4.77157E+01 -1.00000E+00  1.40244E-01
      21    -1     0     0   502   501  0.000000000E+00  0.000000000E+00  2.608141648E+03  2.608141648E+03  0.000000000E+00  0.00000E+00  9.000E+00
      21    -1     0     0   511   502  0.000000000E+00  0.000000000E+00 -1.503749505E+01  1.503749505E+01  0.000000000E+00  0.00000E+00  9.000E+00
      25     1     1     2     0     0  9.226760180E+01 -7.347029256E+01  8.270848187E+02  8.447517337E+02  1.250000000E+02  0.00000E+00  9.000E+00
      25     1     1     2     0     0 -6.752242560E+01  3.267245893E+01  1.567066697E+03  1.573832838E+03  1.250000000E+02  0.00000E+00  9.000E+00
      21     1     1     2   511   501 -2.474517620E+01  4.079783363E+01  1.989526372E+02  2.045945718E+02  2.697398305E-06  0.00000E+00  9.000E+00
#rwgt            1           1   4.7298327220993697E-002           7      222964           0
</event>
<event>
      5   9999  3.19816E-02  1.54165E+02 -1.00000E+00  1.15924E-01
      21    -1     0     0   502   501  0.000000000E+00  0.000000000E+00  1.270797083E+03  1.270797083E+03  0.000000000E+00  0.00000E+00  9.000E+00
      21    -1     0     0   501   512  0.000000000E+00  0.000000000E+00 -2.188205571E+02  2.188205571E+02  0.000000000E+00  0.00000E+00  9.000E+00
      25     1     1     2     0     0  7.160868146E+01  4.895770536E+02  6.773331725E+02  8.480676396E+02  1.250000000E+02  0.00000E+00  9.000E+00
      25     1     1     2     0     0 -6.475488973E+01 -3.355647613E+02  2.323210255E+02  4.317348302E+02  1.250000000E+02  0.00000E+00  9.000E+00
      21     1     1     2   502   512 -6.853791734E+00 -1.540122924E+02  1.423223277E+02  2.098151701E+02  3.303624740E-06  0.00000E+00  9.000E+00
#rwgt            1           1   3.0990111739332256E-002           7      223045           0
</event>
<event>
      5   9999  3.19816E-02  2.33275E+01 -1.00000E+00  1.61037E-01
      21    -1     0     0   511   501  0.000000000E+00  0.000000000E+00  1.621431509E+01  1.621431509E+01  0.000000000E+00  0.00000E+00  9.000E+00
      21    -1     0     0   501   502  0.000000000E+00  0.000000000E+00 -4.552059344E+03  4.552059344E+03  0.000000000E+00  0.00000E+00  9.000E+00
      25     1     1     2     0     0  5.893489763E+00 -7.055680458E+01 -3.763861733E+02  4.028703853E+02  1.250000000E+02  0.00000E+00  9.000E+00
      25     1     1     2     0     0  5.775736048E+00  5.035774741E+01 -4.088173168E+03  4.090397794E+03  1.250000000E+02  0.00000E+00  9.000E+00
      21     1     1     2   511   502 -1.166922581E+01  2.019905717E+01 -7.128568830E+01  7.500548045E+01  1.907348633E-06  0.00000E+00  9.000E+00
#rwgt            1           1   2.0158540158183190E-003           7      223123           0
</event>
<event>
      5   9999  3.19816E-02  6.63580E+00 -1.00000E+00  2.18886E-01
      21    -1     0     0   512   501  0.000000000E+00  0.000000000E+00  9.467984203E+02  9.467984203E+02  0.000000000E+00  0.00000E+00  9.000E+00
      21    -1     0     0   501   502  0.000000000E+00  0.000000000E+00 -1.712513273E+02  1.712513273E+02  0.000000000E+00  0.00000E+00  9.000E+00
      25     1     1     2     0     0 -3.188738886E+02 -1.107905988E+02  4.611325880E+02  5.849986131E+02  1.250000000E+02  0.00000E+00  9.000E+00
      25     1     1     2     0     0  3.131092500E+02  1.075038455E+02  1.773367137E+02  3.958128210E+02  1.250000000E+02  0.00000E+00  9.000E+00
      21     1     1     2   512   502  5.764638542E+00  3.286753302E+00  1.370777914E+02  1.372383135E+02  0.000000000E+00  0.00000E+00  9.000E+00
#rwgt            1           1   3.3811681944272060E-002           7      223261           0
</event>
<event>
      5   9999  3.19816E-02  2.64641E+01 -1.00000E+00  1.56922E-01
      21    -1     0     0   502   501  0.000000000E+00  0.000000000E+00  5.634115637E+02  5.634115637E+02  0.000000000E+00  0.00000E+00  9.000E+00
      21    -1     0     0   511   502  0.000000000E+00  0.000000000E+00 -2.480473398E+02  2.480473398E+02  0.000000000E+00  0.00000E+00  9.000E+00
      25     1     1     2     0     0  2.011958671E+02  2.430523415E+02  1.055996939E+01  3.395448875E+02  1.250000000E+02  0.00000E+00  9.000E+00
      25     1     1     2     0     0 -1.990068211E+02 -2.166789280E+02  3.096143621E+02  4.450163210E+02  1.250000000E+02  0.00000E+00  9.000E+00
      21     1     1     2   511   501 -2.189045998E+00 -2.637341349E+01 -4.810107701E+00  2.689769502E+01  2.920019320E-07  0.00000E+00  9.000E+00
#rwgt            1           1   2.9431159567366746E-002           7      223484           0
</event>
<event>
      5   9999  3.19816E-02  2.27891E+02 -1.00000E+00  1.09622E-01
       2    -1     0     0   502     0  0.000000000E+00  0.000000000E+00  4.328188195E+02  4.328188195E+02  0.000000000E+00  0.00000E+00  9.000E+00
      21    -1     0     0   501   502  0.000000000E+00  0.000000000E+00 -8.283028301E+02  8.283028301E+02  0.000000000E+00  0.00000E+00  9.000E+00
      25     1     1     2     0     0  6.921097522E+01  3.024212198E+02 -4.609946177E+02  5.695522722E+02  1.250000000E+02  0.00000E+00  9.000E+00
      25     1     1     2     0     0  1.510215769E+02 -2.438404576E+02 -1.764373961E+02  3.591947107E+02  1.250000000E+02  0.00000E+00  9.000E+00
       2     1     1     2   501     0 -2.202325522E+02 -5.858076222E+01  2.419480032E+02  3.323746666E+02  0.000000000E+00  0.00000E+00  9.000E+00
#rwgt            2          18   6.8883790082145885E-004           7      223656           0
</event>
<event>
      5   9999  3.19816E-02  1.23743E+02 -1.00000E+00  1.19805E-01
      21    -1     0     0   502   501  0.000000000E+00  0.000000000E+00  3.216373814E+02  3.216373814E+02  0.000000000E+00  0.00000E+00  9.000E+00
      21    -1     0     0   511   502  0.000000000E+00  0.000000000E+00 -9.297804892E+02  9.297804892E+02  0.000000000E+00  0.00000E+00  9.000E+00
      25     1     1     2     0     0  1.191064294E+01 -3.985736444E+02 -3.626094904E+02  5.532752081E+02  1.250000000E+02  0.00000E+00  9.000E+00
      25     1     1     2     0     0  8.418872366E+01  4.765306715E+02 -1.046530605E+02  5.106334156E+02  1.250000000E+02  0.00000E+00  9.000E+00
      21     1     1     2   511   501 -9.609936660E+01 -7.795702714E+01 -1.408805569E+02  1.875092469E+02  1.907348633E-06  0.00000E+00  9.000E+00
#rwgt            1           1   2.6963819676520565E-002           7      223705           0
</event>
<event>
      5   9999  3.19816E-02  2.93763E+02 -1.00000E+00  1.05889E-01
      21    -1     0     0   502   512  0.000000000E+00  0.000000000E+00  2.507750083E+02  2.507750083E+02  0.000000000E+00  0.00000E+00  9.000E+00
      21    -1     0     0   501   502  0.000000000E+00  0.000000000E+00 -8.301912246E+02  8.301912246E+02  0.000000000E+00  0.00000E+00  9.000E+00
      25     1     1     2     0     0 -2.756417868E+02  2.513233915E+02 -4.230211559E+02  5.776796172E+02  1.250000000E+02  0.00000E+00  9.000E+00
      25     1     1     2     0     0  1.354866749E+02  6.849443514E+00 -6.624014797E+01  1.960007937E+02  1.250000000E+02  0.00000E+00  9.000E+00
      21     1     1     2   501   512  1.401551119E+02 -2.581728350E+02 -9.015491247E+01  3.072858220E+02  6.180515955E-06  0.00000E+00  9.000E+00
#rwgt            1           1   2.7413549756669077E-002           7      223762           0
</event>
<event>
      5   9999  3.19816E-02  8.00430E+01 -1.00000E+00  1.28338E-01
       2    -1     0     0   502     0  0.000000000E+00  0.000000000E+00  1.893917344E+03  1.893917344E+03  0.000000000E+00  0.00000E+00  9.000E+00
      21    -1     0     0   501   502  0.000000000E+00  0.000000000E+00 -1.511510938E+02  1.511510938E+02  0.000000000E+00  0.00000E+00  9.000E+00
      25     1     1     2     0     0  9.914190529E+01 -1.582661467E+02 -5.329973970E+01  2.309613665E+02  1.250000000E+02  0.00000E+00  9.000E+00
      25     1     1     2     0     0 -4.908158157E+01  9.580940922E+01  9.455011293E+02  9.597842622E+02  1.250000000E+02  0.00000E+00  9.000E+00
       2     1     1     2   501     0 -5.006032372E+01  6.245673744E+01  8.505648604E+02  8.543228089E+02  1.078959322E-05  0.00000E+00  9.000E+00
#rwgt            1           1   2.9062935229164904E-002           7      223794           0
</event>
<event>
      5   9999  3.19816E-02  1.72913E+02 -1.00000E+00  1.13998E-01
      21    -1     0     0   502   501  0.000000000E+00  0.000000000E+00  5.173516560E+02  5.173516560E+02  0.000000000E+00  0.00000E+00  9.000E+00
      21    -1     0     0   501   511  0.000000000E+00  0.000000000E+00 -4.990602052E+02  4.990602052E+02  0.000000000E+00  0.00000E+00  9.000E+00
      25     1     1     2     0     0  1.860401737E+02  1.290526719E+02 -2.640846043E+02  3.696366007E+02  1.250000000E+02  0.00000E+00  9.000E+00
      25     1     1     2     0     0 -1.809247317E+02 -3.018899391E+02  2.912611271E+02  4.736341817E+02  1.250000000E+02  0.00000E+00  9.000E+00
      21     1     1     2   502   511 -5.115442034E+00  1.728372672E+02 -8.885072103E+00  1.731410788E+02  3.923054378E-06  0.00000E+00  9.000E+00
#rwgt            1           1   2.7293084083770760E-002           7      223863           0
</event>
<event>
      5   9999  3.19816E-02  6.33093E+01 -1.00000E+00  1.33469E-01
      21    -1     0     0   502   512  0.000000000E+00  0.000000000E+00  1.214102165E+03  1.214102165E+03  0.000000000E+00  0.00000E+00  9.000E+00
      21    -1     0     0   501   502  0.000000000E+00  0.000000000E+00 -3.334172508E+02  3.334172508E+02  0.000000000E+00  0.00000E+00  9.000E+00
      25     1     1     2     0     0  3.238100203E+02 -3.730980614E+02  6.583175227E+02  8.325034855E+02  1.250000000E+02  0.00000E+00  9.000E+00
      25     1     1     2     0     0 -3.796062338E+02  4.030120848E+02  9.871439972E+01  5.760982259E+02  1.250000000E+02  0.00000E+00  9.000E+00
      21     1     1     2   501   512  5.579621344E+01 -2.991402337E+01  1.236529914E+02  1.389177041E+02  1.348699152E-06  0.00000E+00  9.000E+00
#rwgt            1           1   2.4893932945060201E-002           7      223938           0
</event>
<event>
      5   9999  3.19816E-02  2.58371E+01 -1.00000E+00  1.57687E-01
      21    -1     0     0   511   501  0.000000000E+00  0.000000000E+00  1.401361633E+03  1.401361633E+03  0.000000000E+00  0.00000E+00  9.000E+00
      21    -1     0     0   501   502  0.000000000E+00  0.000000000E+00 -5.698119744E+02  5.698119744E+02  0.000000000E+00  0.00000E+00  9.000E+00
      25     1     1     2     0     0  5.006656818E+02 -3.420524099E+02 -2.756569552E+02  6.777003268E+02  1.250000000E+02  0.00000E+00  9.000E+00
      25     1     1     2     0     0 -5.149568555E+02  3.635772714E+02  1.070509594E+03  1.248593123E+03  1.250000000E+02  0.00000E+00  9.000E+00
      21     1     1     2   511   502  1.429117375E+01 -2.152486151E+01  3.669701953E+01  4.488015768E+01  0.000000000E+00  0.00000E+00  9.000E+00
#rwgt            1           1   3.1310871064513565E-002           7      224089           0
</event>
<event>
      5   9999  3.19816E-02  9.26669E+01 -1.00000E+00  1.25334E-01
      21    -1     0     0   512   501  0.000000000E+00  0.000000000E+00  5.097963143E+02  5.097963143E+02  0.000000000E+00  0.00000E+00  9.000E+00
      21    -1     0     0   501   502  0.000000000E+00  0.000000000E+00 -1.139110235E+03  1.139110235E+03  0.000000000E+00  0.00000E+00  9.000E+00
      25     1     1     2     0     0 -6.199708225E+02  2.610148637E+02 -2.795404544E+02  7.390943414E+02  1.250000000E+02  0.00000E+00  9.000E+00
      25     1     1     2     0     0  6.762229043E+02 -1.873748025E+02 -3.857088522E+02  8.104215271E+02  1.250000000E+02  0.00000E+00  9.000E+00
      21     1     1     2   512   502 -5.625208183E+01 -7.364006122E+01  3.593538648E+01  9.939068029E+01  6.743495762E-07  0.00000E+00  9.000E+00
#rwgt            1           1   2.2727680628265468E-002           7      224327           0
</event>
<event>
      5   9999  3.19816E-02  1.40828E+01 -1.00000E+00  1.80005E-01
      21    -1     0     0   502   501  0.000000000E+00  0.000000000E+00  5.827491518E+02  5.827491518E+02  0.000000000E+00  0.00000E+00  9.000E+00
       1    -1     0     0   501     0  0.000000000E+00  0.000000000E+00 -1.698668674E+03  1.698668674E+03  0.000000000E+00  0.00000E+00  9.000E+00
      25     1     1     2     0     0 -2.598554488E+02 -1.913173143E+01  7.444455882E+01  2.984256519E+02  1.250000000E+02  0.00000E+00  9.000E+00
      25     1     1     2     0     0  2.726460431E+02  1.323895313E+01  3.394179527E+02  4.531453204E+02  1.250000000E+02  0.00000E+00  9.000E+00
       1     1     1     2   502     0 -1.279059438E+01  5.892778302E+00 -1.529782034E+03  1.529846853E+03  2.157918644E-05  0.00000E+00  9.000E+00
#rwgt            1           1   2.7479516044917753E-002           7      224397           0
</event>
<event>
      5   9999  3.19816E-02  3.97854E+02 -1.00000E+00  1.01756E-01
      21    -1     0     0   502   501  0.000000000E+00  0.000000000E+00  5.270243281E+02  5.270243281E+02  0.000000000E+00  0.00000E+00  9.000E+00
       2    -1     0     0   501     0  0.000000000E+00  0.000000000E+00 -8.065005032E+02  8.065005032E+02  0.000000000E+00  0.00000E+00  9.000E+00
      25     1     1     2     0     0  1.520062275E+02  3.950599593E+02 -3.930166094E+02  5.909867341E+02  1.250000000E+02  0.00000E+00  9.000E+00
      25     1     1     2     0     0 -2.611778134E+02 -1.247757733E+01 -7.921575132E+01  3.004491228E+02  1.250000000E+02  0.00000E+00  9.000E+00
       2     1     1     2   502     0  1.091715859E+02 -3.825823820E+02  1.927561856E+02  4.420889744E+02  8.946258087E-06  0.00000E+00  9.000E+00
#rwgt            2          13   1.7899490188909769E-004           7      224593           0
</event>
<event>
      5   9999  3.19816E-02  7.79806E+01 -1.00000E+00  1.28889E-01
      -1    -1     0     0     0   501  0.000000000E+00  0.000000000E+00  9.875750930E+02  9.875750930E+02  0.000000000E+00  0.00000E+00  9.000E+00
      21    -1     0     0   501   502  0.000000000E+00  0.000000000E+00 -1.370990609E+03  1.370990609E+03  0.000000000E+00  0.00000E+00  9.000E+00
      25     1     1     2     0     0 -3.083959691E+02 -4.170782224E+02 -8.058761477E+02  9.665007412E+02  1.250000000E+02  0.00000E+00  9.000E+00
      25     1     1     2     0     0  2.410559244E+02  3.777552617E+02 -3.708401546E+02  5.949406834E+02  1.250000000E+02  0.00000E+00  9.000E+00
      -1     1     1     2     0   502  6.734004468E+01  3.932296074E+01  7.933007860E+02  7.971242776E+02  1.525878906E-05  0.00000E+00  9.000E+00
#rwgt            1           1   2.6612966626002914E-002           7      224702           0
</event>
<event>
      5   9999  3.19816E-02  7.42132E+02 -1.00000E+00  9.42121E-02
      21    -1     0     0   502   501  0.000000000E+00  0.000000000E+00  2.386832809E+03  2.386832809E+03  0.000000000E+00  0.00000E+00  9.000E+00
      21    -1     0     0   511   502  0.000000000E+00  0.000000000E+00 -1.666605777E+03  1.666605777E+03  0.000000000E+00  0.00000E+00  9.000E+00
      25     1     1     2     0     0  3.368943859E+02  2.059991255E+02  4.586179170E+02  6.179715696E+02  1.250000000E+02  0.00000E+00  9.000E+00
      25     1     1     2     0     0 -5.885278276E+02  4.921707158E+02  1.670819283E+03  1.842785688E+03  1.250000000E+02  0.00000E+00  9.000E+00
      21     1     1     2   511   501  2.516334417E+02 -6.981698414E+02 -1.409210168E+03  1.592681329E+03  1.525878906E-05  0.00000E+00  9.000E+00
#rwgt            2          11   3.9284061988086559E-003           7      224944           0
</event>
<event>
      5   9999  3.19816E-02  3.05027E+02 -1.00000E+00  1.05358E-01
      21    -1     0     0   502   501  0.000000000E+00  0.000000000E+00  3.908145267E+02  3.908145267E+02  0.000000000E+00  0.00000E+00  9.000E+00
      21    -1     0     0   501   512  0.000000000E+00  0.000000000E+00 -4.411208573E+02  4.411208573E+02  0.000000000E+00  0.00000E+00  9.000E+00
      25     1     1     2     0     0  1.368798905E+01  2.641012199E+02 -1.133124104E+02  3.136901620E+02  1.250000000E+02  0.00000E+00  9.000E+00
      25     1     1     2     0     0  7.817163793E+01  2.676562826E+01  1.384663914E+02  2.040224140E+02  1.250000000E+02  0.00000E+00  9.000E+00
      21     1     1     2   502   512 -9.185962698E+01 -2.908668482E+02 -7.546031161E+01  3.142228080E+02  3.162979880E-06  0.00000E+00  9.000E+00
#rwgt            1           1   2.7670401606620366E-002           7      224964           0
</event>
<event>
      5   9999  3.19816E-02  2.42042E+01 -1.00000E+00  1.59810E-01
      21    -1     0     0   502   501  0.000000000E+00  0.000000000E+00  1.856285010E+02  1.856285010E+02  0.000000000E+00  0.00000E+00  9.000E+00
      21    -1     0     0   511   502  0.000000000E+00  0.000000000E+00 -1.121814333E+03  1.121814333E+03  0.000000000E+00  0.00000E+00  9.000E+00
      25     1     1     2     0     0  4.266031821E+01 -2.475487286E+02 -7.999799047E+02  8.477577034E+02  1.250000000E+02  0.00000E+00  9.000E+00
      25     1     1     2     0     0 -5.208105118E+01  2.252531353E+02  5.369090719E+01  2.682519793E+02  1.250000000E+02  0.00000E+00  9.000E+00
      21     1     1     2   511   501  9.420732968E+00  2.229559324E+01 -1.898968341E+02  1.914331510E+02  2.697398305E-06  0.00000E+00  9.000E+00
#rwgt            1           1   2.8859950611058279E-002           7      224996           0
</event>
<event>
      5   9999  3.19816E-02  5.62707E+01 -1.00000E+00  1.36210E-01
      21    -1     0     0   502   501  0.000000000E+00  0.000000000E+00  1.440896375E+03  1.440896375E+03  0.000000000E+00  0.00000E+00  9.000E+00
      21    -1     0     0   501   512  0.000000000E+00  0.000000000E+00 -4.684160607E+02  4.684160607E+02  0.000000000E+00  0.00000E+00  9.000E+00
      25     1     1     2     0     0 -5.891180942E+02 -2.882201473E+00 -5.193381149E-03  6.022403474E+02  1.250000000E+02  0.00000E+00  9.000E+00
      25     1     1     2     0     0  6.229065548E+02 -4.211484028E+01  1.039846779E+03  1.219300028E+03  1.250000000E+02  0.00000E+00  9.000E+00
      21     1     1     2   502   512 -3.378846057E+01  4.499704175E+01 -6.736127059E+01  8.777206053E+01  1.348699152E-06  0.00000E+00  9.000E+00
#rwgt            1           1   2.3635404334315099E-002           7      225171           0
</event>
<event>
      5   9999  3.19816E-02  1.80397E+02 -1.00000E+00  1.13304E-01
      21    -1     0     0   502   501  0.000000000E+00  0.000000000E+00  2.301389050E+02  2.301389050E+02  0.000000000E+00  0.00000E+00  9.000E+00
      21    -1     0     0   501   511  0.000000000E+00  0.000000000E+00 -4.331335220E+03  4.331335220E+03  0.000000000E+00  0.00000E+00  9.000E+00
      25     1     1     2     0     0  7.210055668E+02  4.492529549E+02 -8.932006268E+02  1.238995401E+03  1.250000000E+02  0.00000E+00  9.000E+00
      25     1     1     2     0     0 -5.644828721E+02 -3.595656905E+02 -2.408506013E+03  2.502889253E+03  1.250000000E+02  0.00000E+00  9.000E+00
      21     1     1     2   502   511 -1.565226947E+02 -8.968726448E+01 -7.994896756E+02  8.195894708E+02  0.000000000E+00  0.00000E+00  9.000E+00
#rwgt            1           1   5.1779644019902336E-002           7      225303           0
</event>
<event>
      5   9999  3.19816E-02  4.32868E+01 -1.00000E+00  1.42745E-01
      21    -1     0     0   502   501  0.000000000E+00  0.000000000E+00  8.724250876E+02  8.724250876E+02  0.000000000E+00  0.00000E+00  9.000E+00
      21    -1     0     0   512   502  0.000000000E+00  0.000000000E+00 -5.099729973E+02  5.099729973E+02  0.000000000E+00  0.00000E+00  9.000E+00
      25     1     1     2     0     0  3.391510420E+00 -4.633301897E+02  3.801250582E+02  6.122143635E+02  1.250000000E+02  0.00000E+00  9.000E+00
      25     1     1     2     0     0 -4.592521591E+01  4.552909346E+02  2.240493830E+02  5.246161327E+02  1.250000000E+02  0.00000E+00  9.000E+00
      21     1     1     2   512   501  4.253370549E+01  8.039255074E+00 -2.417223509E+02  2.455675888E+02  4.672030912E-06  0.00000E+00  9.000E+00
#rwgt            1           1   2.6826574085120000E-002           7      225375           0
</event>
<event>
      5   9999  3.19816E-02  4.72652E+01 -1.00000E+00  1.40484E-01
      21    -1     0     0   502   501  0.000000000E+00  0.000000000E+00  1.638877508E+03  1.638877508E+03  0.000000000E+00  0.00000E+00  9.000E+00
       1    -1     0     0   501     0  0.000000000E+00  0.000000000E+00 -3.365688312E+02  3.365688312E+02  0.000000000E+00  0.00000E+00  9.000E+00
      25     1     1     2     0     0  1.401880216E+02  3.506233376E+02  1.091733708E+03  1.161936700E+03  1.250000000E+02  0.00000E+00  9.000E+00
      25     1     1     2     0     0 -1.874264884E+02 -3.522113383E+02  4.236714059E+02  5.952343871E+02  1.250000000E+02  0.00000E+00  9.000E+00
       1     1     1     2   502     0  4.723846683E+01  1.588000722E+00 -2.130964366E+02  2.182752523E+02  2.697398305E-06  0.00000E+00  9.000E+00
#rwgt            1           1   3.2052282471242526E-002           7      225577           0
</event>
<event>
      5   9999  3.19816E-02  6.14622E+01 -1.00000E+00  1.34147E-01
      21    -1     0     0   502   501  0.000000000E+00  0.000000000E+00  3.202800583E+02  3.202800583E+02  0.000000000E+00  0.00000E+00  9.000E+00
      21    -1     0     0   511   502  0.000000000E+00  0.000000000E+00 -3.467871975E+02  3.467871975E+02  0.000000000E+00  0.00000E+00  9.000E+00
      25     1     1     2     0     0  1.071106152E+02  1.448124238E+02 -1.549660658E+02  2.684824082E+02  1.250000000E+02  0.00000E+00  9.000E+00
      25     1     1     2     0     0 -1.573355731E+02 -1.802392206E+02  1.748168395E+02  3.216000413E+02  1.250000000E+02  0.00000E+00  9.000E+00
      21     1     1     2   511   501  5.022495782E+01  3.542679679E+01 -4.635791294E+01  7.698480636E+01  1.168007728E-06  0.00000E+00  9.000E+00
#rwgt            1           1   2.7239761927269519E-002           7      225676           0
</event>
<event>
      5   9999  3.19816E-02  1.17973E+02 -1.00000E+00  1.20683E-01
      21    -1     0     0   502   512  0.000000000E+00  0.000000000E+00  1.945700597E+02  1.945700597E+02  0.000000000E+00  0.00000E+00  9.000E+00
      21    -1     0     0   501   502  0.000000000E+00  0.000000000E+00 -1.222957069E+03  1.222957069E+03  0.000000000E+00  0.00000E+00  9.000E+00
      25     1     1     2     0     0  2.804818867E+02  2.763434315E+02 -2.749747327E+02  4.962578811E+02  1.250000000E+02  0.00000E+00  9.000E+00
      25     1     1     2     0     0 -1.630345576E+02 -2.874659218E+02 -7.144225135E+02  7.970203579E+02  1.250000000E+02  0.00000E+00  9.000E+00
      21     1     1     2   501   512 -1.174473291E+02  1.112249026E+01 -3.898976269E+01  1.242488893E+02  1.581489940E-06  0.00000E+00  9.000E+00
#rwgt            2          11   4.9031810451328718E-003           7      225816           0
</event>
<event>
      5   9999  3.19816E-02  1.59165E+02 -1.00000E+00  1.15382E-01
      21    -1     0     0   502   501  0.000000000E+00  0.000000000E+00  1.008288656E+03  1.008288656E+03  0.000000000E+00  0.00000E+00  9.000E+00
      21    -1     0     0   501   511  0.000000000E+00  0.000000000E+00 -1.910355484E+03  1.910355484E+03  0.000000000E+00  0.00000E+00  9.000E+00
      25     1     1     2     0     0 -4.800716589E+01 -1.557767670E+02  2.734148980E+02  3.419821568E+02  1.250000000E+02  0.00000E+00  9.000E+00
      25     1     1     2     0     0 -1.039098418E+02  2.032601705E+02  6.728800135E+02  7.214599536E+02  1.250000000E+02  0.00000E+00  9.000E+00
      21     1     1     2   502   511  1.519170077E+02 -4.748340346E+01 -1.848361740E+03  1.855202030E+03  3.051757812E-05  0.00000E+00  9.000E+00
#rwgt            1           1   3.0542704589603696E-002           7      225836           0
</event>
<event>
      5   9999  3.19816E-02  1.78885E+01 -1.00000E+00  1.70469E-01
      21    -1     0     0   502   501  0.000000000E+00  0.000000000E+00  4.930078206E+02  4.930078206E+02  0.000000000E+00  0.00000E+00  9.000E+00
       2    -1     0     0   501     0  0.000000000E+00  0.000000000E+00 -9.937920216E+02  9.937920216E+02  0.000000000E+00  0.00000E+00  9.000E+00
      25     1     1     2     0     0 -1.318272822E+02  2.147489318E+02  6.981645780E+00  2.813703599E+02  1.250000000E+02  0.00000E+00  9.000E+00
      25     1     1     2     0     0  1.296807407E+02 -2.325081440E+02  2.867190867E+02  4.107431877E+02  1.250000000E+02  0.00000E+00  9.000E+00
       2     1     1     2   502     0  2.146541501E+00  1.775921222E+01 -7.944849335E+02  7.946862946E+02  1.525878906E-05  0.00000E+00  9.000E+00
#rwgt            1           1   2.6187042958025465E-002           7      225908           0
</event>
<event>
      5   9999  3.19816E-02  3.78300E+01 -1.00000E+00  1.46359E-01
      21    -1     0     0   502   501  0.000000000E+00  0.000000000E+00  1.474393919E+02  1.474393919E+02  0.000000000E+00  0.00000E+00  9.000E+00
      21    -1     0     0   511   502  0.000000000E+00  0.000000000E+00 -7.109937548E+02  7.109937548E+02  0.000000000E+00  0.00000E+00  9.000E+00
      25     1     1     2     0     0 -1.807545318E+02  1.376267787E+01 -4.121157272E+02  4.672536620E+02  1.250000000E+02  0.00000E+00  9.000E+00
      25     1     1     2     0     0  1.711293368E+02 -5.034775362E+01  1.706025213E+01  2.184861515E+02  1.250000000E+02  0.00000E+00  9.000E+00
      21     1     1     2   511   501  9.625195004E+00  3.658507574E+01 -1.684988878E+02  1.726933332E+02  3.303624740E-06  0.00000E+00  9.000E+00
#rwgt            1           1   3.0473541094517779E-002           7      226036           0
</event>
<event>
      5   9999  3.19816E-02  4.13527E+02 -1.00000E+00  1.01253E-01
      21    -1     0     0   502   512  0.000000000E+00  0.000000000E+00  2.643161315E+03  2.643161315E+03  0.000000000E+00  0.00000E+00  9.000E+00
      21    -1     0     0   501   502  0.000000000E+00  0.000000000E+00 -2.539087397E+02  2.539087397E+02  0.000000000E+00  0.00000E+00  9.000E+00
      25     1     1     2     0     0  3.124847367E+02 -7.364872392E+01  1.459995165E+02  3.741813785E+02  1.250000000E+02  0.00000E+00  9.000E+00
      25     1     1     2     0     0 -4.979448981E+02  4.432557100E+02  9.658513019E+02  1.180219676E+03  1.250000000E+02  0.00000E+00  9.000E+00
      21     1     1     2   501   512  1.854601614E+02 -3.696069861E+02  1.277401757E+03  1.342669000E+03  0.000000000E+00  0.00000E+00  9.000E+00
#rwgt            2          11   8.7536407323331243E-004           7      226198           0
</event>
<event>
      5   9999  3.19816E-02  9.75310E+01 -1.00000E+00  1.24318E-01
      21    -1     0     0   511   501  0.000000000E+00  0.000000000E+00  3.916372121E+02  3.916372121E+02  0.000000000E+00  0.00000E+00  9.000E+00
      21    -1     0     0   501   502  0.000000000E+00  0.000000000E+00 -9.806018003E+02  9.806018003E+02  0.000000000E+00  0.00000E+00  9.000E+00
      25     1     1     2     0     0 -2.926259751E+02 -3.654540617E+02 -1.564862389E+02  5.092146654E+02  1.250000000E+02  0.00000E+00  9.000E+00
      25     1     1     2     0     0  3.684615992E+02  3.041250312E+02 -5.304748352E+02  7.247651588E+02  1.250000000E+02  0.00000E+00  9.000E+00
      21     1     1     2   511   502 -7.583562411E+01  6.132903047E+01  9.799648586E+01  1.382591881E+02  1.907348633E-06  0.00000E+00  9.000E+00
#rwgt            2          11   3.5861164721746287E-003           7      226218           0
</event>
<event>
      5   9999  3.19816E-02  5.54007E+02 -1.00000E+00  9.76028E-02
      21    -1     0     0   502   512  0.000000000E+00  0.000000000E+00  1.124940408E+03  1.124940408E+03  0.000000000E+00  0.00000E+00  9.000E+00
      21    -1     0     0   501   502  0.000000000E+00  0.000000000E+00 -2.394305169E+03  2.394305169E+03  0.000000000E+00  0.00000E+00  9.000E+00
      25     1     1     2     0     0 -8.267620792E+02 -9.311731871E+02 -4.974872644E+02  1.346750763E+03  1.250000000E+02  0.00000E+00  9.000E+00
      25     1     1     2     0     0  3.760153807E+02  1.253276672E+03 -9.134835309E+02  1.600677089E+03  1.250000000E+02  0.00000E+00  9.000E+00
      21     1     1     2   501   512  4.507466984E+02 -3.221034849E+02  1.416060345E+02  5.718177246E+02  7.864199878E-06  0.00000E+00  9.000E+00
#rwgt            2          11   2.9848480159894403E-003           7      226253           0
</event>
<event>
      5   9999  3.19816E-02  6.33098E+01 -1.00000E+00  1.33469E-01
      21    -1     0     0   502   501  0.000000000E+00  0.000000000E+00  1.108435583E+03  1.108435583E+03  0.000000000E+00  0.00000E+00  9.000E+00
      21    -1     0     0   501   511  0.000000000E+00  0.000000000E+00 -3.614187081E+02  3.614187081E+02  0.000000000E+00  0.00000E+00  9.000E+00
      25     1     1     2     0     0  2.536415059E+01  4.030074256E+02  2.699887657E+02  5.015747789E+02  1.250000000E+02  0.00000E+00  9.000E+00
      25     1     1     2     0     0 -2.542865504E+01 -3.396976125E+02  6.717696748E+02  7.635054554E+02  1.250000000E+02  0.00000E+00  9.000E+00
      21     1     1     2   502   511  6.450444509E-02 -6.330981315E+01 -1.947415660E+02  2.047740563E+02  3.814697266E-06  0.00000E+00  9.000E+00
#rwgt            2          11   2.7821870021925805E-003           7      226288           0
</event>
<event>
      5   9999  3.19816E-02  2.85743E+01 -1.00000E+00  1.54523E-01
      21    -1     0     0   512   501  0.000000000E+00  0.000000000E+00  2.261971267E+02  2.261971267E+02  0.000000000E+00  0.00000E+00  9.000E+00
      21    -1     0     0   501   502  0.000000000E+00  0.000000000E+00 -9.729205994E+02  9.729205994E+02  0.000000000E+00  0.00000E+00  9.000E+00
      25     1     1     2     0     0 -1.012287915E+02 -1.003983707E+02 -7.710439014E+02  7.940156163E+02  1.250000000E+02  0.00000E+00  9.000E+00
      25     1     1     2     0     0  7.349158965E+01  1.072641602E+02 -1.462169355E+02  2.321874373E+02  1.250000000E+02  0.00000E+00  9.000E+00
      21     1     1     2   512   502  2.773720190E+01 -6.865789427E+00  1.705373641E+02  1.729146726E+02  5.394796609E-06  0.00000E+00  9.000E+00
#rwgt            1           1   2.7658781943880509E-002           7      226308           0
</event>
<event>
      5   9999  3.19816E-02  3.99218E+01 -1.00000E+00  1.44893E-01
      21    -1     0     0   502   511  0.000000000E+00  0.000000000E+00  2.546321987E+02  2.546321987E+02  0.000000000E+00  0.00000E+00  9.000E+00
      21    -1     0     0   501   502  0.000000000E+00  0.000000000E+00 -4.117763400E+02  4.117763400E+02  0.000000000E+00  0.00000E+00  9.000E+00
      25     1     1     2     0     0 -8.147270410E+01  6.519289632E+01 -3.576789636E+02  3.929976543E+02  1.250000000E+02  0.00000E+00  9.000E+00
      25     1     1     2     0     0  4.420635458E+01 -5.087608028E+01  1.308693674E+02  1.931174996E+02  1.250000000E+02  0.00000E+00  9.000E+00
      21     1     1     2   501   511  3.726634952E+01 -1.431681604E+01  6.966545502E+01  8.029338486E+01  1.348699152E-06  0.00000E+00  9.000E+00
#rwgt            1           1   2.6565345571318458E-002           7      226422           0
</event>
<event>
      5   9999  3.19816E-02  2.20489E+01 -1.00000E+00  1.62948E-01
       2    -1     0     0   502     0  0.000000000E+00  0.000000000E+00  1.229055717E+02  1.229055717E+02  0.000000000E+00  0.00000E+00  9.000E+00
      21    -1     0     0   501   502  0.000000000E+00  0.000000000E+00 -2.539512952E+03  2.539512952E+03  0.000000000E+00  0.00000E+00  9.000E+00
      25     1     1     2     0     0  4.320304309E+01  9.431838921E+01 -4.567766314E+02  4.848013536E+02  1.250000000E+02  0.00000E+00  9.000E+00
      25     1     1     2     0     0 -2.929447777E+01 -7.720973702E+01 -2.064865443E+03  2.070293170E+03  1.250000000E+02  0.00000E+00  9.000E+00
       2     1     1     2   501     0 -1.390856533E+01 -1.710865219E+01  1.050346940E+02  1.073240007E+02  1.348699152E-06  0.00000E+00  9.000E+00
#rwgt            1           1   5.0190649812821196E-002           7      226574           0
</event>
<event>
      5   9999  3.19816E-02  6.94662E+01 -1.00000E+00  1.31389E-01
      21    -1     0     0   511   501  0.000000000E+00  0.000000000E+00  6.446045758E+02  6.446045758E+02  0.000000000E+00  0.00000E+00  9.000E+00
      21    -1     0     0   501   502  0.000000000E+00  0.000000000E+00 -3.678269541E+02  3.678269541E+02  0.000000000E+00  0.00000E+00  9.000E+00
      25     1     1     2     0     0  2.239659650E+02 -1.441535541E+02 -2.386286569E+02  3.788266577E+02  1.250000000E+02  0.00000E+00  9.000E+00
      25     1     1     2     0     0 -2.536340790E+02  8.134146505E+01  4.533274885E+02  5.404419413E+02  1.250000000E+02  0.00000E+00  9.000E+00
      21     1     1     2   511   502  2.966811402E+01  6.281208908E+01  6.207879005E+01  9.316293092E+01  6.743495762E-07  0.00000E+00  9.000E+00
#rwgt            1           1   2.6850676391684404E-002           7      226704           0
</event>
<event>
      5   9999  3.19816E-02  3.45762E+01 -1.00000E+00  1.48877E-01
      21    -1     0     0   502   501  0.000000000E+00  0.000000000E+00  5.309922534E+02  5.309922534E+02  0.000000000E+00  0.00000E+00  9.000E+00
      21    -1     0     0   512   502  0.000000000E+00  0.000000000E+00 -6.666300837E+02  6.666300837E+02  0.000000000E+00  0.00000E+00  9.000E+00
      25     1     1     2     0     0 -1.474553847E+02 -5.878694647E+01  4.812486841E+02  5.219428048E+02  1.250000000E+02  0.00000E+00  9.000E+00
      25     1     1     2     0     0  1.411021090E+02  2.479948495E+01 -2.887468524E+02  3.457232483E+02  1.250000000E+02  0.00000E+00  9.000E+00
      21     1     1     2   512   501  6.353275706E+00  3.398746152E+01 -3.281396620E+02  3.299562841E+02  5.394796609E-06  0.00000E+00  9.000E+00
#rwgt            1           1   2.4846235893441430E-002           7      226827           0
</event>
<event>
      5   9999  3.19816E-02  2.52941E+01 -1.00000E+00  1.58371E-01
      21    -1     0     0   502   501  0.000000000E+00  0.000000000E+00  3.910386301E+02  3.910386301E+02  0.000000000E+00  0.00000E+00  9.000E+00
      21    -1     0     0   501   511  0.000000000E+00  0.000000000E+00 -1.298454554E+03  1.298454554E+03  0.000000000E+00  0.00000E+00  9.000E+00
      25     1     1     2     0     0  9.085733740E+01  2.659133145E+02 -1.888398808E+01  3.081339832E+02  1.250000000E+02  0.00000E+00  9.000E+00
      25     1     1     2     0     0 -1.112211587E+02 -2.509098269E+02  1.539281291E+02  3.385923158E+02  1.250000000E+02  0.00000E+00  9.000E+00
      21     1     1     2   502   511  2.036382133E+01 -1.500348761E+01 -1.042460065E+03  1.042766885E+03  2.157918644E-05  0.00000E+00  9.000E+00
#rwgt            1           1   2.7557904000186855E-002           7      226971           0
</event>
<event>
      5   9999  3.19816E-02  7.06647E+01 -1.00000E+00  1.31013E-01
      21    -1     0     0   512   501  0.000000000E+00  0.000000000E+00  1.195123951E+02  1.195123951E+02  0.000000000E+00  0.00000E+00  9.000E+00
      21    -1     0     0   501   502  0.000000000E+00  0.000000000E+00 -1.282284056E+03  1.282284056E+03  0.000000000E+00  0.00000E+00  9.000E+00
      25     1     1     2     0     0  1.562477215E+02 -1.157973778E+02 -7.107279943E+01  2.418650988E+02  1.250000000E+02  0.00000E+00  9.000E+00
      25     1     1     2     0     0 -8.920390387E+01  1.381274027E+02 -1.064274237E+03  1.084131527E+03  1.250000000E+02  0.00000E+00  9.000E+00
      21     1     1     2   512   502 -6.704381768E+01 -2.233002495E+01 -2.742462437E+01  7.579982536E+01  5.840038640E-07  0.00000E+00  9.000E+00
#rwgt            1           1   2.8218128762867830E-002           7      227081           0
</event>
<event>
      5   9999  3.19816E-02  1.94053E+01 -1.00000E+00  1.67458E-01
      21    -1     0     0   502   501  0.000000000E+00  0.000000000E+00  7.366966760E+02  7.366966760E+02  0.000000000E+00  0.00000E+00  9.000E+00
      21    -1     0     0   501   511  0.000000000E+00  0.000000000E+00 -1.788340034E+02  1.788340034E+02  0.000000000E+00  0.00000E+00  9.000E+00
      25     1     1     2     0     0  7.791520007E+01  9.685605465E+01  6.295531866E+02  6.537691401E+02  1.250000000E+02  0.00000E+00  9.000E+00
      25     1     1     2     0     0 -8.858702216E+01 -8.064869932E+01  1.418726631E+01  1.737185992E+02  1.250000000E+02  0.00000E+00  9.000E+00
      21     1     1     2   502   511  1.067182209E+01 -1.620735533E+01 -8.587778031E+01  8.804294012E+01  2.336015456E-06  0.00000E+00  9.000E+00
#rwgt            1           1   2.8706767710135316E-002           7      227232           0
</event>
<event>
      5   9999  3.19816E-02  3.57450E+02 -1.00000E+00  1.03177E-01
       4    -1     0     0   502     0  0.000000000E+00  0.000000000E+00  8.201126962E+02  8.201126962E+02  0.000000000E+00  0.00000E+00  9.000E+00
      21    -1     0     0   501   502  0.000000000E+00  0.000000000E+00 -1.355577085E+03  1.355577085E+03  0.000000000E+00  0.00000E+00  9.000E+00
      25     1     1     2     0     0  2.862915985E+02  2.368082511E+02 -9.790021869E+02  1.054566882E+03  1.250000000E+02  0.00000E+00  9.000E+00
      25     1     1     2     0     0  4.767372018E+01 -3.642362192E+02 -1.599631863E+02  4.197070740E+02  1.250000000E+02  0.00000E+00  9.000E+00
       4     1     1     2   501     0 -3.339653187E+02  1.274279681E+02  6.035009844E+02  7.014158249E+02  1.525878906E-05  0.00000E+00  9.000E+00
#rwgt            2          20   9.0127946974533917E-005           7      227377           0
</event>
<event>
      5   9999  3.19816E-02  2.65151E+01 -1.00000E+00  1.56860E-01
      21    -1     0     0   511   501  0.000000000E+00  0.000000000E+00  1.286406736E+03  1.286406736E+03  0.000000000E+00  0.00000E+00  9.000E+00
      21    -1     0     0   501   502  0.000000000E+00  0.000000000E+00 -7.288820686E+01  7.288820686E+01  0.000000000E+00  0.00000E+00  9.000E+00
      25     1     1     2     0     0 -2.036042590E+02  1.094622566E+02  3.776613363E+02  4.600975602E+02  1.250000000E+02  0.00000E+00  9.000E+00
      25     1     1     2     0     0  2.114890150E+02 -1.347778482E+02  6.040471786E+02  6.658758636E+02  1.250000000E+02  0.00000E+00  9.000E+00
      21     1     1     2   511   502 -7.884756004E+00  2.531559166E+01  2.318100146E+02  2.333215194E+02  2.697398305E-06  0.00000E+00  9.000E+00
#rwgt            1           1   2.8632842004253343E-002           7      227396           0
</event>
<event>
      5   9999  3.19816E-02  1.30923E+02 -1.00000E+00  1.18784E-01
       1    -1     0     0   502     0  0.000000000E+00  0.000000000E+00  2.591822334E+02  2.591822334E+02  0.000000000E+00  0.00000E+00  9.000E+00
      21    -1     0     0   501   502  0.000000000E+00  0.000000000E+00 -4.770397494E+02  4.770397494E+02  0.000000000E+00  0.00000E+00  9.000E+00
      25     1     1     2     0     0  1.116991532E+02 -1.344253044E+02 -4.173955590E+01  2.188927907E+02  1.250000000E+02  0.00000E+00  9.000E+00
      25     1     1     2     0     0 -1.622673902E+02  2.551886577E+02 -4.201272541E+01  3.299121489E+02  1.250000000E+02  0.00000E+00  9.000E+00
       1     1     1     2   501     0  5.056823696E+01 -1.207633533E+02 -1.341052347E+02  1.874170431E+02  1.907348633E-06  0.00000E+00  9.000E+00
#rwgt            1           1   2.6544182667861013E-002           7      227538           0
</event>
<event>
      5   9999  3.19816E-02  1.46179E+02 -1.00000E+00  1.16839E-01
      21    -1     0     0   502   511  0.000000000E+00  0.000000000E+00  5.169666637E+02  5.169666637E+02  0.000000000E+00  0.00000E+00  9.000E+00
      21    -1     0     0   501   502  0.000000000E+00  0.000000000E+00 -1.165408946E+03  1.165408946E+03  0.000000000E+00  0.00000E+00  9.000E+00
      25     1     1     2     0     0 -3.782170624E+02  7.905480874E+01 -9.477878661E+02  1.031127853E+03  1.250000000E+02  0.00000E+00  9.000E+00
      25     1     1     2     0     0  4.062921366E+02  6.440269060E+01  1.977734166E+02  4.732444729E+02  1.250000000E+02  0.00000E+00  9.000E+00
      21     1     1     2   501   511 -2.807507423E+01 -1.434574993E+02  1.015721675E+02  1.780032840E+02  3.303624740E-06  0.00000E+00  9.000E+00
#rwgt            1           1   2.9469435788170378E-002           7      227609           0
</event>
<event>
      5   9999  3.19816E-02  9.73905E+00 -1.00000E+00  1.97094E-01
      21    -1     0     0   502   512  0.000000000E+00  0.000000000E+00  9.692322142E+02  9.692322142E+02  0.000000000E+00  0.00000E+00  9.000E+00
      21    -1     0     0   501   502  0.000000000E+00  0.000000000E+00 -2.081495220E+02  2.081495220E+02  0.000000000E+00  0.00000E+00  9.000E+00
      25     1     1     2     0     0 -4.676311553E+01  1.646084655E+02 -1.305359630E+02  2.488922931E+02  1.250000000E+02  0.00000E+00  9.000E+00
      25     1     1     2     0     0  5.527252658E+01 -1.598714863E+02  5.840792808E+02  6.207959009E+02  1.250000000E+02  0.00000E+00  9.000E+00
      21     1     1     2   501   512 -8.509411049E+00 -4.736979241E+00  3.075393745E+02  3.076935422E+02  5.394796609E-06  0.00000E+00  9.000E+00
#rwgt            1           1   2.6733347180138464E-002           7      227707           0
</event>
<event>
      5   9999  3.19816E-02  2.10595E+01 -1.00000E+00  1.64540E-01
      21    -1     0     0   502   501  0.000000000E+00  0.000000000E+00  8.359499376E+02  8.359499376E+02  0.000000000E+00  0.00000E+00  9.000E+00
      21    -1     0     0   501   511  0.000000000E+00  0.000000000E+00 -1.861776543E+03  1.861776543E+03  0.000000000E+00  0.00000E+00  9.000E+00
      25     1     1     2     0     0  3.761825017E+02  2.699056554E+02  3.038648322E+02  5.677333649E+02  1.250000000E+02  0.00000E+00  9.000E+00
      25     1     1     2     0     0 -3.607421943E+02 -2.842269083E+02  2.585191664E+02  5.416428949E+02  1.250000000E+02  0.00000E+00  9.000E+00
      21     1     1     2   502   511 -1.544030736E+01  1.432125295E+01 -1.588210604E+03  1.588350220E+03  2.157918644E-05  0.00000E+00  9.000E+00
#rwgt            1           1   2.8560533490017252E-002           7      228020           0
</event>
<event>
      5   9999  3.19816E-02  3.03992E+02 -1.00000E+00  1.05406E-01
       1    -1     0     0   502     0  0.000000000E+00  0.000000000E+00  3.663097973E+02  3.663097973E+02  0.000000000E+00  0.00000E+00  9.000E+00
      21    -1     0     0   501   502  0.000000000E+00  0.000000000E+00 -7.210133195E+02  7.210133195E+02  0.000000000E+00  0.00000E+00  9.000E+00
      25     1     1     2     0     0  1.521059608E+02  6.561434808E+01 -2.272756468E+01  2.087654382E+02  1.250000000E+02  0.00000E+00  9.000E+00
      25     1     1     2     0     0 -3.316641403E+02 -3.109098603E+02 -3.283442596E+02  5.745441636E+02  1.250000000E+02  0.00000E+00  9.000E+00
       1     1     1     2   501     0  1.795581794E+02  2.452955122E+02 -3.631697965E+00  3.040135151E+02  5.689512342E-06  0.00000E+00  9.000E+00
#rwgt            2          17   1.6107581076724360E-004           7      228263           0
</event>
<event>
      5   9999  3.19816E-02  2.79722E+01 -1.00000E+00  1.55181E-01
      21    -1     0     0   502   501  0.000000000E+00  0.000000000E+00  7.821009026E+01  7.821009026E+01  0.000000000E+00  0.00000E+00  9.000E+00
       2    -1     0     0   501     0  0.000000000E+00  0.000000000E+00 -1.076510757E+03  1.076510757E+03  0.000000000E+00  0.00000E+00  9.000E+00
      25     1     1     2     0     0  5.448513158E+01 -1.877605090E+02 -2.995415172E+02  3.789099614E+02  1.250000000E+02  0.00000E+00  9.000E+00
      25     1     1     2     0     0 -7.378717112E+01  2.080058480E+02 -3.864707689E+02  4.622722516E+02  1.250000000E+02  0.00000E+00  9.000E+00
       2     1     1     2   502     0  1.930203954E+01 -2.024533898E+01 -3.122883804E+02  3.135386340E+02  0.000000000E+00  0.00000E+00  9.000E+00
#rwgt            1           1   2.9105584480571569E-002           7      228282           0
</event>
<event>
      5   9999  3.32992E-02  2.22963E+02 -1.00000E+00  1.09956E-01
      21    -1     0     0   502   501  0.000000000E+00  0.000000000E+00  2.722448910E+02  2.722448910E+02  0.000000000E+00  0.00000E+00  9.000E+00
       2    -1     0     0   501     0  0.000000000E+00  0.000000000E+00 -8.232818052E+02  8.232818052E+02  0.000000000E+00  0.00000E+00  9.000E+00
      25     1     1     2     0     0 -1.238727555E+01  2.487510809E+01  2.374430492E+01  1.302344333E+02  1.250000000E+02  0.00000E+00  9.000E+00
      25     1     1     2     0     0  2.202847990E+02  5.569217038E+01  8.176918480E+01  2.719158143E+02  1.250000000E+02  0.00000E+00  9.000E+00
       2     1     1     2   502     0 -2.078975234E+02 -8.056727847E+01 -6.565504039E+02  6.933764486E+02  7.629394531E-06  0.00000E+00  9.000E+00
#rwgt            1           1   8.5833070682256166E-002           7      228434           0
</event>
<event>
      5   9999  3.19816E-02  4.90722E+01 -1.00000E+00  1.39541E-01
      21    -1     0     0   511   501  0.000000000E+00  0.000000000E+00  8.959518695E+02  8.959518695E+02  0.000000000E+00  0.00000E+00  9.000E+00
      21    -1     0     0   501   502  0.000000000E+00  0.000000000E+00 -5.690045701E+02  5.690045701E+02  0.000000000E+00  0.00000E+00  9.000E+00
      25     1     1     2     0     0  6.067641952E+02  2.724610907E+02  1.173458421E+02  6.868718084E+02  1.250000000E+02  0.00000E+00  9.000E+00
      25     1     1     2     0     0 -5.884333303E+02 -3.179809613E+02  1.429017759E+02  6.952780692E+02  1.250000000E+02  0.00000E+00  9.000E+00
      21     1     1     2   511   502 -1.833086485E+01  4.551987055E+01  6.669968142E+01  8.280656207E+01  9.536743164E-07  0.00000E+00  9.000E+00
#rwgt            1           1   2.9349416495099246E-002           7      228488           0
</event>
<event>
      5   9999  3.19816E-02  3.27756E+01 -1.00000E+00  1.50418E-01
      21    -1     0     0   502   501  0.000000000E+00  0.000000000E+00  7.188997029E+02  7.188997029E+02  0.000000000E+00  0.00000E+00  9.000E+00
       1    -1     0     0   501     0  0.000000000E+00  0.000000000E+00 -2.450018189E+03  2.450018189E+03  0.000000000E+00  0.00000E+00  9.000E+00
      25     1     1     2     0     0  4.491749571E+02  8.398346127E+02 -4.418618638E+02  1.057330235E+03  1.250000000E+02  0.00000E+00  9.000E+00
      25     1     1     2     0     0 -4.342060284E+02 -8.689923344E+02 -1.727018056E+02  9.945518921E+02  1.250000000E+02  0.00000E+00  9.000E+00
       1     1     1     2   502     0 -1.496892872E+01  2.915772175E+01 -1.116554817E+03  1.117035765E+03  0.000000000E+00  0.00000E+00  9.000E+00
#rwgt            1           1   3.7978220873450007E-002           7      228652           0
</event>
<event>
      5   9999  3.19816E-02  1.96548E+02 -1.00000E+00  1.11924E-01
      21    -1     0     0   511   501  0.000000000E+00  0.000000000E+00  5.832637606E+02  5.832637606E+02  0.000000000E+00  0.00000E+00  9.000E+00
      21    -1     0     0   501   502  0.000000000E+00  0.000000000E+00 -6.135793063E+02  6.135793063E+02  0.000000000E+00  0.00000E+00  9.000E+00
      25     1     1     2     0     0 -2.247708582E+02  1.408547260E+02 -2.807608310E+02  4.059724582E+02  1.250000000E+02  0.00000E+00  9.000E+00
      25     1     1     2     0     0  4.924212361E+01 -5.241869534E+01 -2.301711422E+02  2.716178585E+02  1.250000000E+02  0.00000E+00  9.000E+00
      21     1     1     2   511   502  1.755287346E+02 -8.843603069E+01  4.806164276E+02  5.192527502E+02  9.344061824E-06  0.00000E+00  9.000E+00
#rwgt            2          11   9.5457275291849185E-003           7      228810           0
</event>
<event>
      5   9999  3.19816E-02  2.25557E+02 -1.00000E+00  1.09779E-01
      21    -1     0     0   512   501  0.000000000E+00  0.000000000E+00  9.408745058E+02  9.408745058E+02  0.000000000E+00  0.00000E+00  9.000E+00
      21    -1     0     0   501   502  0.000000000E+00  0.000000000E+00 -1.079075074E+03  1.079075074E+03  0.000000000E+00  0.00000E+00  9.000E+00
      25     1     1     2     0     0  2.593681799E+02 -1.229365813E+02 -9.169894688E+02  9.689581733E+02  1.250000000E+02  0.00000E+00  9.000E+00
      25     1     1     2     0     0 -3.066781693E+02 -9.760319049E+01  1.382661544E+02  3.719145221E+02  1.250000000E+02  0.00000E+00  9.000E+00
      21     1     1     2   512   502  4.730998939E+01  2.205397718E+02  6.405227463E+02  6.790768841E+02  0.000000000E+00  0.00000E+00  9.000E+00
#rwgt            1           1   3.0271527118089395E-002           7      228830           0
</event>
<event>
      5   9999  3.19816E-02  4.66700E+01 -1.00000E+00  1.40805E-01
      21    -1     0     0   502   501  0.000000000E+00  0.000000000E+00  4.398389505E+02  4.398389505E+02  0.000000000E+00  0.00000E+00  9.000E+00
      21    -1     0     0   511   502  0.000000000E+00  0.000000000E+00 -1.894136452E+03  1.894136452E+03  0.000000000E+00  0.00000E+00  9.000E+00
      25     1     1     2     0     0  1.401185690E+02 -3.347906735E+02  3.127353043E+02  4.951225898E+02  1.250000000E+02  0.00000E+00  9.000E+00
      25     1     1     2     0     0 -1.421803638E+02  3.814150588E+02 -1.722476179E+03  1.774328575E+03  1.250000000E+02  0.00000E+00  9.000E+00
      21     1     1     2   511   501  2.061794862E+00 -4.662438535E+01 -4.455662640E+01  6.452423780E+01  4.768371582E-07  0.00000E+00  9.000E+00
#rwgt            1           1   1.9448785193136014E-002           7      228893           0
</event>
<event>
      5   9999  3.19816E-02  3.17323E+01 -1.00000E+00  1.51366E-01
      21    -1     0     0   502   501  0.000000000E+00  0.000000000E+00  1.202594162E+03  1.202594162E+03  0.000000000E+00  0.00000E+00  9.000E+00
      21    -1     0     0   512   502  0.000000000E+00  0.000000000E+00 -1.380042486E+02  1.380042486E+02  0.000000000E+00  0.00000E+00  9.000E+00
      25     1     1     2     0     0 -3.062652736E+02 -9.432880649E+01  8.187860412E+02  8.881058061E+02  1.250000000E+02  0.00000E+00  9.000E+00
      25     1     1     2     0     0  2.855825314E+02  1.183946051E+02  2.546175909E+02  4.195590332E+02  1.250000000E+02  0.00000E+00  9.000E+00
      21     1     1     2   512   501  2.068274219E+01 -2.406579857E+01 -8.813718666E+00  3.293357135E+01  7.348554138E-07  0.00000E+00  9.000E+00
#rwgt            1           1   2.9660670764393438E-002           7      229052           0
</event>
<event>
      5   9999  3.19816E-02  6.77281E+01 -1.00000E+00  1.31951E-01
       4    -1     0     0   502     0  0.000000000E+00  0.000000000E+00  1.830680362E+02  1.830680362E+02  0.000000000E+00  0.00000E+00  9.000E+00
      21    -1     0     0   501   502  0.000000000E+00  0.000000000E+00 -2.000453499E+03  2.000453499E+03  0.000000000E+00  0.00000E+00  9.000E+00
      25     1     1     2     0     0 -2.149552292E+02  2.053751631E+02 -4.841192508E+02  5.817053869E+02  1.250000000E+02  0.00000E+00  9.000E+00
      25     1     1     2     0     0  1.769824853E+02 -1.492933599E+02 -1.446302067E+03  1.470042848E+03  1.250000000E+02  0.00000E+00  9.000E+00
       4     1     1     2   501     0  3.797274395E+01 -5.608180317E+01  1.130358552E+02  1.317732996E+02  1.348699152E-06  0.00000E+00  9.000E+00
#rwgt            1           1   3.3556443550510850E-002           7      229148           0
</event>
<event>
      5   9999  3.19816E-02  1.77792E+02 -1.00000E+00  1.13541E-01
      21    -1     0     0   502   501  0.000000000E+00  0.000000000E+00  1.728111438E+03  1.728111438E+03  0.000000000E+00  0.00000E+00  9.000E+00
      21    -1     0     0   511   502  0.000000000E+00  0.000000000E+00 -2.970228918E+03  2.970228918E+03  0.000000000E+00  0.00000E+00  9.000E+00
      25     1     1     2     0     0 -4.318859968E+02 -1.012233669E+03 -2.388030169E+03  2.632385914E+03  1.250000000E+02  0.00000E+00  9.000E+00
      25     1     1     2     0     0  3.961381820E+02  1.186394727E+03  1.316023337E+03  1.819890197E+03  1.250000000E+02  0.00000E+00  9.000E+00
      21     1     1     2   511   501  3.574781481E+01 -1.741610579E+02 -1.701106474E+02  2.460642451E+02  3.303624740E-06  0.00000E+00  9.000E+00
#rwgt            1           1   9.8384388212955729E-003           7      229232           0
</event>
<event>
      5   9999  3.19816E-02  6.31209E+01 -1.00000E+00  1.33537E-01
      21    -1     0     0   502   501  0.000000000E+00  0.000000000E+00  1.930578239E+03  1.930578239E+03  0.000000000E+00  0.00000E+00  9.000E+00
      21    -1     0     0   512   502  0.000000000E+00  0.000000000E+00 -4.037548994E+02  4.037548994E+02  0.000000000E+00  0.00000E+00  9.000E+00
      25     1     1     2     0     0  4.194154332E+02  2.484640614E+02  1.703178088E+03  1.775974182E+03  1.250000000E+02  0.00000E+00  9.000E+00
      25     1     1     2     0     0 -3.588824920E+02 -2.663529161E+02 -1.725788650E+02  4.951252201E+02  1.250000000E+02  0.00000E+00  9.000E+00
      21     1     1     2   512   501 -6.053294122E+01  1.788885470E+01 -3.775883533E+00  6.323373618E+01  4.440446027E-07  0.00000E+00  9.000E+00
#rwgt            1           1   2.3166804819147041E-002           7      229328           0
</event>
<event>
      5   9999  3.19816E-02  8.54686E+01 -1.00000E+00  1.26975E-01
       2    -1     0     0   502     0  0.000000000E+00  0.000000000E+00  1.491076725E+03  1.491076725E+03  0.000000000E+00  0.00000E+00  9.000E+00
      21    -1     0     0   501   502  0.000000000E+00  0.000000000E+00 -5.900111001E+02  5.900111001E+02  0.000000000E+00  0.00000E+00  9.000E+00
      25     1     1     2     0     0  1.002011144E+02  1.634418099E+02 -3.395325878E+02  4.094641214E+02  1.250000000E+02  0.00000E+00  9.000E+00
      25     1     1     2     0     0 -1.109490169E+02 -2.482319312E+02 -1.096215885E+02  3.187015354E+02  1.250000000E+02  0.00000E+00  9.000E+00
       2     1     1     2   501     0  1.074790243E+01  8.479012133E+01  1.350219801E+03  1.352922168E+03  0.000000000E+00  0.00000E+00  9.000E+00
#rwgt            1           1   2.8733948940877368E-002           7      229461           0
</event>
<event>
      5   9999  3.19816E-02  2.85558E+02 -1.00000E+00  1.06293E-01
      21    -1     0     0   502   511  0.000000000E+00  0.000000000E+00  1.819964384E+02  1.819964384E+02  0.000000000E+00  0.00000E+00  9.000E+00
      21    -1     0     0   501   502  0.000000000E+00  0.000000000E+00 -1.515409000E+03  1.515409000E+03  0.000000000E+00  0.00000E+00  9.000E+00
      25     1     1     2     0     0  4.395181462E+02  3.950827462E+01 -4.163597628E+02  6.194493980E+02  1.250000000E+02  0.00000E+00  9.000E+00
      25     1     1     2     0     0 -1.541423013E+02 -2.930376637E+01 -6.731741187E+02  7.024293230E+02  1.250000000E+02  0.00000E+00  9.000E+00
      21     1     1     2   501   511 -2.853758448E+02 -1.020450824E+01 -2.438786797E+02  3.755267171E+02  7.136645101E-06  0.00000E+00  9.000E+00
#rwgt            1           1   2.7908450420311395E-002           7      229510           0
</event>
<event>
      5   9999  3.19816E-02  1.33230E+02 -1.00000E+00  1.18471E-01
      21    -1     0     0   502   501  0.000000000E+00  0.000000000E+00  9.411981833E+02  9.411981833E+02  0.000000000E+00  0.00000E+00  9.000E+00
      21    -1     0     0   501   512  0.000000000E+00  0.000000000E+00 -2.328542482E+03  2.328542482E+03  0.000000000E+00  0.00000E+00  9.000E+00
      25     1     1     2     0     0 -4.345129257E+02  8.632002851E+02 -1.514675413E+03  1.801050477E+03  1.250000000E+02  0.00000E+00  9.000E+00
      25     1     1     2     0     0  3.292634130E+02 -7.815138649E+02  5.547062288E+02  1.021030027E+03  1.250000000E+02  0.00000E+00  9.000E+00
      21     1     1     2   502   512  1.052495127E+02 -8.168642023E+01 -4.273751137E+02  4.476601602E+02  5.394796609E-06  0.00000E+00  9.000E+00
#rwgt            1           1   4.5599133603803806E-002           7      229540           0
</event>
<event>
      5   9999  3.19816E-02  2.43773E+01 -1.00000E+00  1.59576E-01
      21    -1     0     0   502   501  0.000000000E+00  0.000000000E+00  7.779654647E+02  7.779654647E+02  0.000000000E+00  0.00000E+00  9.000E+00
      21    -1     0     0   501   511  0.000000000E+00  0.000000000E+00 -7.602047242E+01  7.602047242E+01  0.000000000E+00  0.00000E+00  9.000E+00
      25     1     1     2     0     0 -1.491524433E+01  1.028787733E+02  1.142852420E+02  1.987275095E+02  1.250000000E+02  0.00000E+00  9.000E+00
      25     1     1     2     0     0 -3.239370919E+00 -8.661025610E+01  6.059708048E+02  6.247699146E+02  1.250000000E+02  0.00000E+00  9.000E+00
      21     1     1     2   502   511  1.815461525E+01 -1.626851722E+01 -1.831105446E+01  3.048851296E+01  6.307962682E-07  0.00000E+00  9.000E+00
#rwgt            1           1   3.1220553796995031E-002           7      229690           0
</event>
<event>
      5   9999  3.19816E-02  1.45209E+02 -1.00000E+00  1.16955E-01
      21    -1     0     0   502   501  0.000000000E+00  0.000000000E+00  1.439199381E+03  1.439199381E+03  0.000000000E+00  0.00000E+00  9.000E+00
      21    -1     0     0   501   512  0.000000000E+00  0.000000000E+00 -1.288916390E+02  1.288916390E+02  0.000000000E+00  0.00000E+00  9.000E+00
      25     1     1     2     0     0 -1.835827614E+01 -6.523634392E+01  1.251801585E+03  1.259851188E+03  1.250000000E+02  0.00000E+00  9.000E+00
      25     1     1     2     0     0 -7.189264838E+01 -4.851985947E+01  5.857696838E+01  1.630306440E+02  1.250000000E+02  0.00000E+00  9.000E+00
      21     1     1     2   502   512  9.025092453E+01  1.137562034E+02 -7.081191794E-02  1.452091877E+02  3.259460970E-06  0.00000E+00  9.000E+00
#rwgt            1           1   3.1245625095649866E-002           7      229847           0
</event>
<event>
      5   9999  3.19816E-02  1.45331E+02 -1.00000E+00  1.16941E-01
      21    -1     0     0   502   501  0.000000000E+00  0.000000000E+00  1.424052895E+03  1.424052895E+03  0.000000000E+00  0.00000E+00  9.000E+00
      21    -1     0     0   501   511  0.000000000E+00  0.000000000E+00 -1.138059271E+03  1.138059271E+03  0.000000000E+00  0.00000E+00  9.000E+00
      25     1     1     2     0     0  8.342541692E+02 -2.195966261E+02  9.038555330E+02  1.255700013E+03  1.250000000E+02  0.00000E+00  9.000E+00
      25     1     1     2     0     0 -8.545725020E+02  3.634999589E+02 -3.473849472E+02  9.993636390E+02  1.250000000E+02  0.00000E+00  9.000E+00
      21     1     1     2   502   511  2.031833283E+01 -1.439033328E+02 -2.704769615E+02  3.070485149E+02  5.394796609E-06  0.00000E+00  9.000E+00
#rwgt            1           1   3.0702447964324975E-002           7      229911           0
</event>
<event>
      5   9999  3.19816E-02  2.70980E+01 -1.00000E+00  1.56173E-01
      21    -1     0     0   502   501  0.000000000E+00  0.000000000E+00  7.780143979E+02  7.780143979E+02  0.000000000E+00  0.00000E+00  9.000E+00
      21    -1     0     0   512   502  0.000000000E+00  0.000000000E+00 -7.845197297E+01  7.845197297E+01  0.000000000E+00  0.00000E+00  9.000E+00
      25     1     1     2     0     0 -1.590206417E+01 -1.722226734E+02  4.888768653E+02  5.334220789E+02  1.250000000E+02  0.00000E+00  9.000E+00
      25     1     1     2     0     0 -1.065736468E+01  1.775982236E+02  1.925301418E+02  2.904265208E+02  1.250000000E+02  0.00000E+00  9.000E+00
      21     1     1     2   512   501  2.655942885E+01 -5.375550206E+00  1.815541779E+01  3.261777117E+01  5.840038640E-07  0.00000E+00  9.000E+00
#rwgt            1           1   3.3417323054767724E-002           7      230010           0
</event>
<event>
      5   9999  3.19816E-02  7.27108E+00 -1.00000E+00  2.13248E-01
      21    -1     0     0   502   511  0.000000000E+00  0.000000000E+00  7.795995113E+02  7.795995113E+02  0.000000000E+00  0.00000E+00  9.000E+00
      21    -1     0     0   501   502  0.000000000E+00  0.000000000E+00 -1.076556216E+03  1.076556216E+03  0.000000000E+00  0.00000E+00  9.000E+00
      25     1     1     2     0     0  2.816455471E+02 -4.048367640E+02 -9.151769911E+02  1.047086885E+03  1.250000000E+02  0.00000E+00  9.000E+00
      25     1     1     2     0     0 -2.795838618E+02  4.118094242E+02  6.005537459E+02  7.899645178E+02  1.250000000E+02  0.00000E+00  9.000E+00
      21     1     1     2   501   511 -2.061685335E+00 -6.972660220E+00  1.766654087E+01  1.910432421E+01  2.384185791E-07  0.00000E+00  9.000E+00
#rwgt            1           1   2.0051785592585948E-002           7      230157           0
</event>
<event>
      5   9999  3.19816E-02  1.48325E+01 -1.00000E+00  1.77844E-01
      -4    -1     0     0     0   501  0.000000000E+00  0.000000000E+00  2.051788595E+03  2.051788595E+03  0.000000000E+00  0.00000E+00  9.000E+00
      21    -1     0     0   501   502  0.000000000E+00  0.000000000E+00 -1.312182241E+02  1.312182241E+02  0.000000000E+00  0.00000E+00  9.000E+00
      25     1     1     2     0     0  2.084576119E+02 -1.589068640E+02  3.147811045E+02  4.282734070E+02  1.250000000E+02  0.00000E+00  9.000E+00
      25     1     1     2     0     0 -2.090880337E+02  1.737259831E+02  2.262559293E+02  3.751203388E+02  1.250000000E+02  0.00000E+00  9.000E+00
      -4     1     1     2     0   502  6.304218405E-01 -1.481911904E+01  1.379533337E+03  1.379613073E+03  3.411968960E-05  0.00000E+00  9.000E+00
#rwgt            1           1   2.7026512447432646E-002           7      230567           0
</event>
<event>
      5   9999  3.19816E-02  2.41955E+01 -1.00000E+00  1.59822E-01
      21    -1     0     0   502   511  0.000000000E+00  0.000000000E+00  2.554453417E+02  2.554453417E+02  0.000000000E+00  0.00000E+00  9.000E+00
      21    -1     0     0   501   502  0.000000000E+00  0.000000000E+00 -5.063169054E+02  5.063169054E+02  0.000000000E+00  0.00000E+00  9.000E+00
      25     1     1     2     0     0 -1.246346218E+02  4.772759639E+01  1.024451422E+02  2.095989494E+02  1.250000000E+02  0.00000E+00  9.000E+00
      25     1     1     2     0     0  1.486068268E+02 -4.444819092E+01 -4.288440685E+02  4.728550156E+02  1.250000000E+02  0.00000E+00  9.000E+00
      21     1     1     2   501   511 -2.397220501E+01 -3.279405471E+00  7.552736263E+01  7.930828216E+01  0.000000000E+00  0.00000E+00  9.000E+00
#rwgt            1           1   2.7176953293162869E-002           7      230743           0
</event>
<event>
      5   9999  3.19816E-02  1.22536E+02 -1.00000E+00  1.19984E-01
      21    -1     0     0   502   501  0.000000000E+00  0.000000000E+00  1.072748429E+03  1.072748429E+03  0.000000000E+00  0.00000E+00  9.000E+00
      21    -1     0     0   512   502  0.000000000E+00  0.000000000E+00 -9.489475803E+02  9.489475803E+02  0.000000000E+00  0.00000E+00  9.000E+00
      25     1     1     2     0     0 -3.978390388E+02  2.446911867E+02  8.329400953E+01  4.906246730E+02  1.250000000E+02  0.00000E+00  9.000E+00
      25     1     1     2     0     0  4.782119226E+02 -1.521969447E+02  6.943792377E+02  8.658164232E+02  1.250000000E+02  0.00000E+00  9.000E+00
      21     1     1     2   512   501 -8.037288378E+01 -9.249424196E+01 -6.538723988E+02  6.652549129E+02  1.078959322E-05  0.00000E+00  9.000E+00
#rwgt            1           1   2.8592328031467100E-002           7      230927           0
</event>
<event>
      5   9999  3.19816E-02  4.88641E+00 -1.00000E+00  2.44538E-01
      21    -1     0     0   502   511  0.000000000E+00  0.000000000E+00  4.448105466E+02  4.448105466E+02  0.000000000E+00  0.00000E+00  9.000E+00
      21    -1     0     0   501   502  0.000000000E+00  0.000000000E+00 -3.457560822E+02  3.457560822E+02  0.000000000E+00  0.00000E+00  9.000E+00
      25     1     1     2     0     0 -1.507177569E+02 -1.842309029E+02 -2.337153163E+02  3.562368831E+02  1.250000000E+02  0.00000E+00  9.000E+00
      25     1     1     2     0     0  1.543797219E+02  1.874661725E+02  3.309788865E+02  4.291254918E+02  1.250000000E+02  0.00000E+00  9.000E+00
      21     1     1     2   501   511 -3.661964958E+00 -3.235269670E+00  1.790894100E+00  5.204253920E+00  5.161913656E-08  0.00000E+00  9.000E+00
#rwgt            1           1   2.9396046749698403E-002           7      231048           0
</event>
<event>
      5   9999  3.19816E-02  7.08555E+01 -1.00000E+00  1.30954E-01
      21    -1     0     0   512   501  0.000000000E+00  0.000000000E+00  1.125773384E+03  1.125773384E+03  0.000000000E+00  0.00000E+00  9.000E+00
      21    -1     0     0   501   502  0.000000000E+00  0.000000000E+00 -4.396977173E+02  4.396977173E+02  0.000000000E+00  0.00000E+00  9.000E+00
      25     1     1     2     0     0 -4.027212634E+02  1.919291103E+02  1.034833087E+02  4.747156987E+02  1.250000000E+02  0.00000E+00  9.000E+00
      25     1     1     2     0     0  4.735442777E+02 -1.940759740E+02  2.365666249E+01  5.273464747E+02  1.250000000E+02  0.00000E+00  9.000E+00
      21     1     1     2   512   502 -7.082301433E+01  2.146863662E+00  5.589356954E+02  5.634089278E+02  7.629394531E-06  0.00000E+00  9.000E+00
#rwgt            1           1   2.9422818375988456E-002           7      231535           0
</event>
<event>
      5   9999  3.19816E-02  5.15553E+01 -1.00000E+00  1.38321E-01
      21    -1     0     0   502   511  0.000000000E+00  0.000000000E+00  8.165421223E+02  8.165421223E+02  0.000000000E+00  0.00000E+00  9.000E+00
      21    -1     0     0   501   502  0.000000000E+00  0.000000000E+00 -1.521337305E+02  1.521337305E+02  0.000000000E+00  0.00000E+00  9.000E+00
      25     1     1     2     0     0 -1.631791425E+02  1.976025576E+02  1.501597104E+02  3.222532264E+02  1.250000000E+02  0.00000E+00  9.000E+00
      25     1     1     2     0     0  1.995328365E+02 -1.610462628E+02  2.566746208E+02  3.837396417E+02  1.250000000E+02  0.00000E+00  9.000E+00
      21     1     1     2   501   511 -3.635369406E+01 -3.655629480E+01  2.575740606E+02  2.626829847E+02  0.000000000E+00  0.00000E+00  9.000E+00
#rwgt            1           1   2.6855615617907953E-002           7      231602           0
</event>
<event>
      5   9999  3.19816E-02  1.62493E+02 -1.00000E+00  1.15033E-01
       2    -1     0     0   502     0  0.000000000E+00  0.000000000E+00  4.253729949E+02  4.253729949E+02  0.000000000E+00  0.00000E+00  9.000E+00
      21    -1     0     0   501   502  0.000000000E+00  0.000000000E+00 -7.684284371E+02  7.684284371E+02  0.000000000E+00  0.00000E+00  9.000E+00
      25     1     1     2     0     0  1.143385608E+02  1.113543304E+01  3.179022290E+02  3.603944111E+02  1.250000000E+02  0.00000E+00  9.000E+00
      25     1     1     2     0     0 -2.393434782E+02 -1.149515345E+02 -2.300832536E+02  3.729107928E+02  1.250000000E+02  0.00000E+00  9.000E+00
       2     1     1     2   501     0  1.250049174E+02  1.038161014E+02 -4.308744176E+02  4.604962280E+02  0.000000000E+00  0.00000E+00  9.000E+00
#rwgt            2          18   1.5143452838657057E-005           7      231698           0
</event>
<event>
      5   9999  3.19816E-02  5.35354E+02 -1.00000E+00  9.80163E-02
      21    -1     0     0   502   501  0.000000000E+00  0.000000000E+00  8.147895405E+02  8.147895405E+02  0.000000000E+00  0.00000E+00  9.000E+00
       2    -1     0     0   501     0  0.000000000E+00  0.000000000E+00 -1.159968403E+03  1.159968403E+03  0.000000000E+00  0.00000E+00  9.000E+00
      25     1     1     2     0     0  4.684097402E+02  1.856955234E+02 -1.475562181E+01  5.193584894E+02  1.250000000E+02  0.00000E+00  9.000E+00
      25     1     1     2     0     0 -4.893090120E+02 -7.206416648E+02 -1.673175053E+02  8.957498902E+02  1.250000000E+02  0.00000E+00  9.000E+00
       2     1     1     2   502     0  2.089927181E+01  5.349461414E+02 -1.631057357E+02  5.596495643E+02  6.031565972E-06  0.00000E+00  9.000E+00
#rwgt            2          13   5.5002728573762239E-004           7      231717           0
</event>
<event>
      5   9999  3.19816E-02  1.14042E+02 -1.00000E+00  1.21315E-01
      21    -1     0     0   502   501  0.000000000E+00  0.000000000E+00  1.695853941E+02  1.695853941E+02  0.000000000E+00  0.00000E+00  9.000E+00
      21    -1     0     0   501   511  0.000000000E+00  0.000000000E+00 -1.257680166E+03  1.257680166E+03  0.000000000E+00  0.00000E+00  9.000E+00
      25     1     1     2     0     0  2.640911482E+02  3.519129199E+01 -1.621840672E+01  2.947381860E+02  1.250000000E+02  0.00000E+00  9.000E+00
      25     1     1     2     0     0 -1.653546621E+02  2.187527027E+01 -4.000837294E+02  4.511237993E+02  1.250000000E+02  0.00000E+00  9.000E+00
      21     1     1     2   502   511 -9.873648609E+01 -5.706656225E+01 -6.717926353E+02  6.814035743E+02  0.000000000E+00  0.00000E+00  9.000E+00
#rwgt            1           1   2.5356628767236832E-002           7      231736           0
</event>
<event>
      5   9999  3.19816E-02  1.11411E+02 -1.00000E+00  1.21753E-01
      21    -1     0     0   502   501  0.000000000E+00  0.000000000E+00  3.997552926E+02  3.997552926E+02  0.000000000E+00  0.00000E+00  9.000E+00
      21    -1     0     0   512   502  0.000000000E+00  0.000000000E+00 -1.657275775E+03  1.657275775E+03  0.000000000E+00  0.00000E+00  9.000E+00
      25     1     1     2     0     0 -4.878874259E+02  1.994636976E+02 -2.685077169E+02  6.046001167E+02  1.250000000E+02  0.00000E+00  9.000E+00
      25     1     1     2     0     0  3.765265715E+02 -2.028118110E+02  1.151857397E+01  4.457157920E+02  1.250000000E+02  0.00000E+00  9.000E+00
      21     1     1     2   512   501  1.113608545E+02  3.348113333E+00 -1.000531339E+03  1.006715159E+03  1.078959322E-05  0.00000E+00  9.000E+00
#rwgt            2          11   1.7648667894291086E-003           7      231900           0
</event>
<event>
      5   9999  3.19816E-02  3.35916E+01 -1.00000E+00  1.49705E-01
      21    -1     0     0   502   501  0.000000000E+00  0.000000000E+00  1.632020638E+03  1.632020638E+03  0.000000000E+00  0.00000E+00  9.000E+00
       2    -1     0     0   501     0  0.000000000E+00  0.000000000E+00 -7.816769902E+01  7.816769902E+01  0.000000000E+00  0.00000E+00  9.000E+00
      25     1     1     2     0     0 -3.312843695E+01  2.266655353E+02  1.001057450E+03  1.034512338E+03  1.250000000E+02  0.00000E+00  9.000E+00
      25     1     1     2     0     0  5.426851969E+00 -2.456660292E+02  5.734242395E+02  6.362559289E+02  1.250000000E+02  0.00000E+00  9.000E+00
       2     1     1     2   502     0  2.770158499E+01  1.900049390E+01 -2.062875088E+01  3.942007029E+01  9.233911863E-07  0.00000E+00  9.000E+00
#rwgt            1           1   3.7876892158264973E-002           7      231920           0
</event>
<event>
      5   9999  3.19816E-02  2.29206E+02 -1.00000E+00  1.09535E-01
      21    -1     0     0   502   501  0.000000000E+00  0.000000000E+00  1.995184840E+02  1.995184840E+02  0.000000000E+00  0.00000E+00  9.000E+00
      21    -1     0     0   511   502  0.000000000E+00  0.000000000E+00 -1.472740706E+03  1.472740706E+03  0.000000000E+00  0.00000E+00  9.000E+00
      25     1     1     2     0     0  4.293346067E+02 -1.858588964E+02 -3.000172017E+02  5.696552073E+02  1.250000000E+02  0.00000E+00  9.000E+00
      25     1     1     2     0     0 -2.146727811E+02  1.055110736E+02 -3.752758803E+02  4.622488247E+02  1.250000000E+02  0.00000E+00  9.000E+00
      21     1     1     2   511   501 -2.146618256E+02  8.034782278E+01 -5.979291403E+02  6.403551583E+02  0.000000000E+00  0.00000E+00  9.000E+00
#rwgt            1           1   3.0070590285685237E-002           7      232008           0
</event>
<event>
      5   9999  3.19816E-02  1.56534E+02 -1.00000E+00  1.15664E-01
      21    -1     0     0   502   501  0.000000000E+00  0.000000000E+00  5.519017752E+02  5.519017752E+02  0.000000000E+00  0.00000E+00  9.000E+00
      21    -1     0     0   512   502  0.000000000E+00  0.000000000E+00 -5.132834679E+02  5.132834679E+02  0.000000000E+00  0.00000E+00  9.000E+00
      25     1     1     2     0     0 -8.247085387E+01 -3.002915111E+02  9.297556830E+01  3.482038048E+02  1.250000000E+02  0.00000E+00  9.000E+00
      25     1     1     2     0     0 -6.811507796E+01  3.430337204E+02  1.973459920E+02  4.205737007E+02  1.250000000E+02  0.00000E+00  9.000E+00
      21     1     1     2   512   501  1.505859318E+02 -4.274220935E+01 -2.517032530E+02  2.964077376E+02  5.394796609E-06  0.00000E+00  9.000E+00
#rwgt            1           1   2.5670022138490168E-002           7      232046           0
</event>
<event>
      5   9999  3.19816E-02  2.99391E+02 -1.00000E+00  1.05621E-01
      21    -1     0     0   511   501  0.000000000E+00  0.000000000E+00  4.986628918E+02  4.986628918E+02  0.000000000E+00  0.00000E+00  9.000E+00
      21    -1     0     0   501   502  0.000000000E+00  0.000000000E+00 -8.710221243E+02  8.710221243E+02  0.000000000E+00  0.00000E+00  9.000E+00
      25     1     1     2     0     0  3.565233965E+02 -7.022107223E+01 -4.353970138E+02  5.807198041E+02  1.250000000E+02  0.00000E+00  9.000E+00
      25     1     1     2     0     0 -2.127965008E+02 -1.924142226E+02 -2.155645600E+02  3.799982412E+02  1.250000000E+02  0.00000E+00  9.000E+00
      21     1     1     2   511   502 -1.437268957E+02  2.626352949E+02  2.786023413E+02  4.089669708E+02  3.814697266E-06  0.00000E+00  9.000E+00
#rwgt            1           1   2.7626994699231022E-002           7      232110           0
</event>
<event>
      5   9999  3.19816E-02  1.76485E+02 -1.00000E+00  1.13662E-01
      21    -1     0     0   502   512  0.000000000E+00  0.000000000E+00  5.814120759E+02  5.814120759E+02  0.000000000E+00  0.00000E+00  9.000E+00
      21    -1     0     0   501   502  0.000000000E+00  0.000000000E+00 -1.067087473E+03  1.067087473E+03  0.000000000E+00  0.00000E+00  9.000E+00
      25     1     1     2     0     0  3.565318024E+01 -2.584992335E+02 -8.702272938E+02  9.170679069E+02  1.250000000E+02  0.00000E+00  9.000E+00
      25     1     1     2     0     0  5.936906139E+01  4.072191314E+02  3.430172315E+02  5.501253744E+02  1.250000000E+02  0.00000E+00  9.000E+00
      21     1     1     2   501   512 -9.502224163E+01 -1.487198979E+02  4.153466472E+01  1.813062680E+02  4.422005890E-06  0.00000E+00  9.000E+00
#rwgt            1           1   1.6236500618055729E-002           7      232148           0
</event>
<event>
      5   9999  3.19816E-02  1.53875E+01 -1.00000E+00  1.76346E-01
      21    -1     0     0   502   501  0.000000000E+00  0.000000000E+00  3.745165559E+02  3.745165559E+02  0.000000000E+00  0.00000E+00  9.000E+00
      -1    -1     0     0     0   502  0.000000000E+00  0.000000000E+00 -7.256965792E+02  7.256965792E+02  0.000000000E+00  0.00000E+00  9.000E+00
      25     1     1     2     0     0  3.655028507E+02  1.733321409E+02 -3.788813842E+01  4.250845515E+02  1.250000000E+02  0.00000E+00  9.000E+00
      25     1     1     2     0     0 -3.586294300E+02 -1.870991755E+02 -6.734101996E+01  4.286968422E+02  1.250000000E+02  0.00000E+00  9.000E+00
      -1     1     1     2     0   501 -6.873420677E+00  1.376703460E+01 -2.459508649E+02  2.464317413E+02  2.697398305E-06  0.00000E+00  9.000E+00
#rwgt            1           1   3.0417778506602339E-002           7      232196           0
</event>
<event>
      5   9999  3.19816E-02  2.88168E+01 -1.00000E+00  1.54264E-01
       2    -1     0     0   502     0  0.000000000E+00  0.000000000E+00  2.545775802E+02  2.545775802E+02  0.000000000E+00  0.00000E+00  9.000E+00
      21    -1     0     0   501   502  0.000000000E+00  0.000000000E+00 -1.023568381E+03  1.023568381E+03  0.000000000E+00  0.00000E+00  9.000E+00
      25     1     1     2     0     0  1.993579451E+02  1.203663572E+02 -7.061733485E+02  7.540142229E+02  1.250000000E+02  0.00000E+00  9.000E+00
      25     1     1     2     0     0 -2.048594042E+02 -1.486531252E+02 -2.240149666E+02  3.603787346E+02  1.250000000E+02  0.00000E+00  9.000E+00
       2     1     1     2   501     0  5.501459068E+00  2.828676801E+01  1.611975148E+02  1.637530032E+02  5.046370146E-06  0.00000E+00  9.000E+00
#rwgt            1           1   2.7641717369836886E-002           7      232477           0
</event>
<event>
      5   9999  3.19816E-02  2.56322E+01 -1.00000E+00  1.57943E-01
      21    -1     0     0   502   501  0.000000000E+00  0.000000000E+00  1.644393253E+02  1.644393253E+02  0.000000000E+00  0.00000E+00  9.000E+00
      21    -1     0     0   501   511  0.000000000E+00  0.000000000E+00 -6.151560499E+02  6.151560499E+02  0.000000000E+00  0.00000E+00  9.000E+00
      25     1     1     2     0     0 -1.429582065E+02 -2.118232126E+02 -1.291555803E+02  3.124296499E+02  1.250000000E+02  0.00000E+00  9.000E+00
      25     1     1     2     0     0  1.679989544E+02  2.172978476E+02 -2.524141459E+02  3.934207726E+02  1.250000000E+02  0.00000E+00  9.000E+00
      21     1     1     2   502   511 -2.504074782E+01 -5.474635024E+00 -6.914699831E+01  7.374495274E+01  0.000000000E+00  0.00000E+00  9.000E+00
#rwgt            1           1   2.8377195499455825E-002           7      232602           0
</event>
<event>
      5   9999  3.19816E-02  3.26678E+02 -1.00000E+00  1.04404E-01
      21    -1     0     0   502   501  0.000000000E+00  0.000000000E+00  2.097691504E+02  2.097691504E+02  0.000000000E+00  0.00000E+00  9.000E+00
       1    -1     0     0   501     0  0.000000000E+00  0.000000000E+00 -1.815168831E+03  1.815168831E+03  0.000000000E+00  0.00000E+00  9.000E+00
      25     1     1     2     0     0  4.384318895E+01  2.330970194E+01  2.682975641E+01  1.371510235E+02  1.250000000E+02  0.00000E+00  9.000E+00
      25     1     1     2     0     0  2.905197410E+01 -3.417508623E+02 -1.949415871E+02  4.138416260E+02  1.250000000E+02  0.00000E+00  9.000E+00
       1     1     1     2   502     0 -7.289516305E+01  3.184411604E+02 -1.437287850E+03  1.473945332E+03  1.525878906E-05  0.00000E+00  9.000E+00
#rwgt            2          12   1.3628506420082589E-003           7      232778           0
</event>
<event>
      5   9999  3.19816E-02  2.41847E+01 -1.00000E+00  1.59837E-01
      21    -1     0     0   502   501  0.000000000E+00  0.000000000E+00  1.424686250E+02  1.424686250E+02  0.000000000E+00  0.00000E+00  9.000E+00
      21    -1     0     0   501   511  0.000000000E+00  0.000000000E+00 -1.860356906E+03  1.860356906E+03  0.000000000E+00  0.00000E+00  9.000E+00
      25     1     1     2     0     0 -1.693017083E+02 -2.621629329E+02 -1.461043577E+03  1.499221734E+03  1.250000000E+02  0.00000E+00  9.000E+00
      25     1     1     2     0     0  1.571863178E+02  2.830941297E+02 -1.240059696E+02  3.685814771E+02  1.250000000E+02  0.00000E+00  9.000E+00
      21     1     1     2   502   511  1.211539051E+01 -2.093119675E+01 -1.328387338E+02  1.350223199E+02  1.907348633E-06  0.00000E+00  9.000E+00
#rwgt            1           1   3.3094909474309750E-002           7      232797           0
</event>
<event>
      5   9999  3.19816E-02  2.00128E+02 -1.00000E+00  1.11638E-01
      21    -1     0     0   502   501  0.000000000E+00  0.000000000E+00  1.812889190E+03  1.812889190E+03  0.000000000E+00  0.00000E+00  9.000E+00
      21    -1     0     0   501   512  0.000000000E+00  0.000000000E+00 -1.723929954E+03  1.723929954E+03  0.000000000E+00  0.00000E+00  9.000E+00
      25     1     1     2     0     0  8.500011512E+01  1.228580253E+03  1.054539816E+03  1.626134583E+03  1.250000000E+02  0.00000E+00  9.000E+00
      25     1     1     2     0     0  4.953418187E+00 -1.407352938E+03 -6.962415807E+02  1.575133063E+03  1.250000000E+02  0.00000E+00  9.000E+00
      21     1     1     2   502   512 -8.995353331E+01  1.787726852E+02 -2.693390004E+02  3.355514987E+02  3.814697266E-06  0.00000E+00  9.000E+00
#rwgt            1           1   3.8006099842781770E-002           7      233019           0
</event>
<event>
      5   9999  3.19816E-02  2.25223E+01 -1.00000E+00  1.62223E-01
      21    -1     0     0   502   511  0.000000000E+00  0.000000000E+00  8.988942396E+02  8.988942396E+02  0.000000000E+00  0.00000E+00  9.000E+00
      21    -1     0     0   501   502  0.000000000E+00  0.000000000E+00 -1.688552555E+02  1.688552555E+02  0.000000000E+00  0.00000E+00  9.000E+00
      25     1     1     2     0     0 -2.650631369E+02  2.289131646E+02  3.513630345E+02  5.116059866E+02  1.250000000E+02  0.00000E+00  9.000E+00
      25     1     1     2     0     0  2.428483909E+02 -2.326224752E+02  2.804660275E+02  4.553841780E+02  1.250000000E+02  0.00000E+00  9.000E+00
      21     1     1     2   501   511  2.221474600E+01  3.709310628E+00  9.820992206E+01  1.007593307E+02  0.000000000E+00  0.00000E+00  9.000E+00
#rwgt            1           1   2.8373379673163088E-002           7      233135           0
</event>
<event>
      5   9999  3.19816E-02  4.90231E+01 -1.00000E+00  1.39566E-01
      21    -1     0     0   502   501  0.000000000E+00  0.000000000E+00  5.555106964E+02  5.555106964E+02  0.000000000E+00  0.00000E+00  9.000E+00
      21    -1     0     0   512   502  0.000000000E+00  0.000000000E+00 -2.772762191E+02  2.772762191E+02  0.000000000E+00  0.00000E+00  9.000E+00
      25     1     1     2     0     0 -1.641051826E+02  3.010729378E+02  2.622957953E+01  3.659076601E+02  1.250000000E+02  0.00000E+00  9.000E+00
      25     1     1     2     0     0  1.858514828E+02 -2.571370366E+02  2.381581545E+02  4.159381394E+02  1.250000000E+02  0.00000E+00  9.000E+00
      21     1     1     2   512   501 -2.174630024E+01 -4.393590125E+01  1.384674330E+01  5.094111593E+01  4.460403188E-07  0.00000E+00  9.000E+00
#rwgt            1           1   2.8271559547310129E-002           7      233270           0
</event>
<event>
      5   9999  3.19816E-02  9.78789E+01 -1.00000E+00  1.24248E-01
      21    -1     0     0   502   501  0.000000000E+00  0.000000000E+00  2.718359844E+02  2.718359844E+02  0.000000000E+00  0.00000E+00  9.000E+00
      21    -1     0     0   501   511  0.000000000E+00  0.000000000E+00 -1.132352528E+03  1.132352528E+03  0.000000000E+00  0.00000E+00  9.000E+00
      25     1     1     2     0     0 -2.923387912E+01  1.897822650E+01  2.375672709E+02  2.706990967E+02  1.250000000E+02  0.00000E+00  9.000E+00
      25     1     1     2     0     0 -6.459406669E+01 -4.684572987E+01 -9.044099424E+02  9.164874575E+02  1.250000000E+02  0.00000E+00  9.000E+00
      21     1     1     2   502   511  9.382794581E+01  2.786750337E+01 -1.936738718E+02  2.170019580E+02  3.814697266E-06  0.00000E+00  9.000E+00
#rwgt            1           1   2.9349890191361649E-002           7      233364           0
</event>
<event>
      5   9999  3.19816E-02  1.66641E+02 -1.00000E+00  1.14611E-01
      21    -1     0     0   502   501  0.000000000E+00  0.000000000E+00  1.102382348E+03  1.102382348E+03  0.000000000E+00  0.00000E+00  9.000E+00
      21    -1     0     0   501   512  0.000000000E+00  0.000000000E+00 -5.698407182E+02  5.698407182E+02  0.000000000E+00  0.00000E+00  9.000E+00
      25     1     1     2     0     0 -1.687124409E+02  5.256880583E+02  5.338887268E+02  7.781220952E+02  1.250000000E+02  0.00000E+00  9.000E+00
      25     1     1     2     0     0  1.609825601E+02 -6.921494748E+02  3.920035731E+01  7.225980543E+02  1.250000000E+02  0.00000E+00  9.000E+00
      21     1     1     2   502   512  7.729880831E+00  1.664614165E+02 -4.054745471E+01  1.715029164E+02  2.336015456E-06  0.00000E+00  9.000E+00
#rwgt            1           1   3.3663783078826288E-002           7      233459           0
</event>
<event>
      5   9999  3.19816E-02  3.16258E+01 -1.00000E+00  1.51465E-01
      21    -1     0     0   511   501  0.000000000E+00  0.000000000E+00  5.401951646E+02  5.401951646E+02  0.000000000E+00  0.00000E+00  9.000E+00
      21    -1     0     0   501   502  0.000000000E+00  0.000000000E+00 -1.403583668E+02  1.403583668E+02  0.000000000E+00  0.00000E+00  9.000E+00
      25     1     1     2     0     0  9.774970414E+01 -1.582642936E+02  3.953450530E+01  2.275754126E+02  1.250000000E+02  0.00000E+00  9.000E+00
      25     1     1     2     0     0 -8.839754422E+01  1.884756912E+02  3.149565027E+02  3.976931111E+02  1.250000000E+02  0.00000E+00  9.000E+00
      21     1     1     2   511   502 -9.352159925E+00 -3.021139757E+01  4.534578972E+01  5.528500776E+01  9.536743164E-07  0.00000E+00  9.000E+00
#rwgt            1           1   2.7641244321667917E-002           7      233583           0
</event>
<event>
      5   9999  3.19816E-02  7.23262E+01 -1.00000E+00  1.30506E-01
      21    -1     0     0   502   501  0.000000000E+00  0.000000000E+00  2.692890811E+02  2.692890811E+02  0.000000000E+00  0.00000E+00  9.000E+00
       1    -1     0     0   501     0  0.000000000E+00  0.000000000E+00 -2.066096905E+03  2.066096905E+03  0.000000000E+00  0.00000E+00  9.000E+00
      25     1     1     2     0     0 -6.446595749E+01  3.244161881E+02 -2.599753856E+02  4.388780285E+02  1.250000000E+02  0.00000E+00  9.000E+00
      25     1     1     2     0     0  1.991854956E+01 -3.813951562E+02 -4.662515828E+01  4.045465600E+02  1.250000000E+02  0.00000E+00  9.000E+00
       1     1     1     2   502     0  4.454740793E+01  5.697896816E+01 -1.490207280E+03  1.491961398E+03  0.000000000E+00  0.00000E+00  9.000E+00
#rwgt            1           1   2.8378820337019564E-002           7      233698           0
</event>
<event>
      5   9999  3.19816E-02  2.98912E+02 -1.00000E+00  1.05643E-01
      21    -1     0     0   511   501  0.000000000E+00  0.000000000E+00  1.837469638E+02  1.837469638E+02  0.000000000E+00  0.00000E+00  9.000E+00
      21    -1     0     0   501   502  0.000000000E+00  0.000000000E+00 -2.060087845E+03  2.060087845E+03  0.000000000E+00  0.00000E+00  9.000E+00
      25     1     1     2     0     0  1.037244344E+02 -8.962060910E+01 -1.399902281E+03  1.412140930E+03  1.250000000E+02  0.00000E+00  9.000E+00
      25     1     1     2     0     0  2.304691277E+01  3.603189382E+02 -2.860998877E+02  4.773248822E+02  1.250000000E+02  0.00000E+00  9.000E+00
      21     1     1     2   511   502 -1.267713471E+02 -2.706983291E+02 -1.903387127E+02  3.543689961E+02  4.672030912E-06  0.00000E+00  9.000E+00
#rwgt            2          11   4.6145894355752778E-003           7      233784           0
</event>
<event>
      5   9999  3.19816E-02  9.11577E+02 -1.00000E+00  9.19668E-02
      21    -1     0     0   502   501  0.000000000E+00  0.000000000E+00  9.958074542E+02  9.958074542E+02  0.000000000E+00  0.00000E+00  9.000E+00
      21    -1     0     0   512   502  0.000000000E+00  0.000000000E+00 -1.133082000E+03  1.133082000E+03  0.000000000E+00  0.00000E+00  9.000E+00
      25     1     1     2     0     0  5.749883402E+02 -4.257969250E+02  4.140163988E+02  8.360318124E+02  1.250000000E+02  0.00000E+00  9.000E+00
      25     1     1     2     0     0  2.127088186E+02 -3.301285875E+01 -5.493792665E+01  2.549079562E+02  1.250000000E+02  0.00000E+00  9.000E+00
      21     1     1     2   512   501 -7.876971588E+02  4.588097838E+02 -4.963530182E+02  1.037949686E+03  2.157918644E-05  0.00000E+00  9.000E+00
#rwgt            2          11   2.7417868101182936E-003           7      233864           0
</event>
<event>
      5   9999  3.19816E-02  1.22767E+01 -1.00000E+00  1.85993E-01
      21    -1     0     0   502   501  0.000000000E+00  0.000000000E+00  2.475014506E+02  2.475014506E+02  0.000000000E+00  0.00000E+00  9.000E+00
      21    -1     0     0   501   511  0.000000000E+00  0.000000000E+00 -3.438149472E+02  3.438149472E+02  0.000000000E+00  0.00000E+00  9.000E+00
      25     1     1     2     0     0 -9.036648388E+01  5.210264838E+01  1.347179397E+02  2.113166123E+02  1.250000000E+02  0.00000E+00  9.000E+00
      25     1     1     2     0     0  7.869115313E+01 -4.830735715E+01 -6.927589849E+00  1.555599236E+02  1.250000000E+02  0.00000E+00  9.000E+00
      21     1     1     2   502   511  1.167533075E+01 -3.795291234E+00 -2.241038465E+02  2.244398618E+02  2.697398305E-06  0.00000E+00  9.000E+00
#rwgt            1           1   2.6877851954651148E-002           7      233899           0
</event>
<event>
      5   9999  3.19816E-02  2.64028E+01 -1.00000E+00  1.56995E-01
      21    -1     0     0   502   512  0.000000000E+00  0.000000000E+00  1.565969929E+03  1.565969929E+03  0.000000000E+00  0.00000E+00  9.000E+00
      21    -1     0     0   501   502  0.000000000E+00  0.000000000E+00 -6.008933080E+01  6.008933080E+01  0.000000000E+00  0.00000E+00  9.000E+00
      25     1     1     2     0     0 -1.306326277E+02 -1.112508947E+02  1.159409605E+03  1.178684554E+03  1.250000000E+02  0.00000E+00  9.000E+00
      25     1     1     2     0     0  1.045374723E+02  1.152695347E+02  1.513965063E+02  2.505215577E+02  1.250000000E+02  0.00000E+00  9.000E+00
      21     1     1     2   501   512  2.609515542E+01 -4.018640017E+00  1.950744863E+02  1.968531478E+02  2.697398305E-06  0.00000E+00  9.000E+00
#rwgt            1           1   2.9128353762936120E-002           7      234084           0
</event>
<event>
      5   9999  3.19816E-02  5.08733E+01 -1.00000E+00  1.38648E-01
       2    -1     0     0   502     0  0.000000000E+00  0.000000000E+00  1.749544980E+03  1.749544980E+03  0.000000000E+00  0.00000E+00  9.000E+00
      21    -1     0     0   501   502  0.000000000E+00  0.000000000E+00 -4.814577300E+02  4.814577300E+02  0.000000000E+00  0.00000E+00  9.000E+00
      25     1     1     2     0     0 -3.321409694E+02 -1.519037209E+01 -2.811971632E+02  4.530399712E+02  1.250000000E+02  0.00000E+00  9.000E+00
      25     1     1     2     0     0  3.789768777E+02  3.505219701E+01  2.385547579E+02  4.662461826E+02  1.250000000E+02  0.00000E+00  9.000E+00
       2     1     1     2   501     0 -4.683590830E+01 -1.986182491E+01  1.310729655E+03  1.311716556E+03  0.000000000E+00  0.00000E+00  9.000E+00
#rwgt            1           1   2.5999597698812649E-002           7      234218           0
</event>
<event>
      5   9999  3.19816E-02  2.36431E+01 -1.00000E+00  1.60588E-01
      21    -1     0     0   502   501  0.000000000E+00  0.000000000E+00  1.163290738E+02  1.163290738E+02  0.000000000E+00  0.00000E+00  9.000E+00
      21    -1     0     0   511   502  0.000000000E+00  0.000000000E+00 -8.642200070E+02  8.642200070E+02  0.000000000E+00  0.00000E+00  9.000E+00
      25     1     1     2     0     0 -7.148854572E+01 -2.327706629E+02 -3.625094354E+02  4.542365952E+02  1.250000000E+02  0.00000E+00  9.000E+00
      25     1     1     2     0     0  9.459243520E+01  2.377914585E+02 -2.216864455E+02  3.609188089E+02  1.250000000E+02  0.00000E+00  9.000E+00
      21     1     1     2   511   501 -2.310388948E+01 -5.020795606E+00 -1.636950523E+02  1.653936766E+02  2.697398305E-06  0.00000E+00  9.000E+00
#rwgt            1           1   2.6051223962797576E-002           7      234331           0
</event>
<event>
      5   9999  3.19816E-02  2.21716E+01 -1.00000E+00  1.62758E-01
       2    -1     0     0   502     0  0.000000000E+00  0.000000000E+00  4.528002333E+03  4.528002333E+03  0.000000000E+00  0.00000E+00  9.000E+00
      21    -1     0     0   501   502  0.000000000E+00  0.000000000E+00 -5.944456096E+01  5.944456096E+01  0.000000000E+00  0.00000E+00  9.000E+00
      25     1     1     2     0     0  3.709173195E+01 -1.384815549E+02  1.870851689E+02  2.667935495E+02  1.250000000E+02  0.00000E+00  9.000E+00
      25     1     1     2     0     0 -2.385316864E+01  1.562668999E+02  4.995848850E+02  5.387006357E+02  1.250000000E+02  0.00000E+00  9.000E+00
       2     1     1     2   501     0 -1.323856331E+01 -1.778534497E+01  3.781887718E+03  3.781952708E+03  4.315837288E-05  0.00000E+00  9.000E+00
#rwgt            1           1   2.6422565530664244E-002           7      234528           0
</event>
<event>
      5   9999  3.19816E-02  7.36038E+01 -1.00000E+00  1.30126E-01
      21    -1     0     0   511   501  0.000000000E+00  0.000000000E+00  2.146800013E+03  2.146800013E+03  0.000000000E+00  0.00000E+00  9.000E+00
      21    -1     0     0   501   502  0.000000000E+00  0.000000000E+00 -1.473334754E+02  1.473334754E+02  0.000000000E+00  0.00000E+00  9.000E+00
      25     1     1     2     0     0  4.268121505E+02  1.896837339E+02  5.411483635E+02  7.256824939E+02  1.250000000E+02  0.00000E+00  9.000E+00
      25     1     1     2     0     0 -4.109119737E+02 -2.615495835E+02  1.241443289E+03  1.339426472E+03  1.250000000E+02  0.00000E+00  9.000E+00
      21     1     1     2   511   502 -1.590017677E+01  7.186584956E+01  2.168748860E+02  2.290245230E+02  2.697398305E-06  0.00000E+00  9.000E+00
#rwgt            1           1   2.8071047894443080E-002           7      234655           0
</event>
<event>
      5   9999  3.19816E-02  4.78561E+01 -1.00000E+00  1.40170E-01
      21    -1     0     0   502   501  0.000000000E+00  0.000000000E+00  8.006487581E+02  8.006487581E+02  0.000000000E+00  0.00000E+00  9.000E+00
       1    -1     0     0   501     0  0.000000000E+00  0.000000000E+00 -1.272009911E+03  1.272009911E+03  0.000000000E+00  0.00000E+00  9.000E+00
      25     1     1     2     0     0  2.179928521E+02 -2.437235084E+01  4.881804521E+02  5.495998989E+02  1.250000000E+02  0.00000E+00  9.000E+00
      25     1     1     2     0     0 -2.531431989E+02  5.684789517E+01  2.075501702E+02  3.549862469E+02  1.250000000E+02  0.00000E+00  9.000E+00
       1     1     1     2   502     0  3.515034680E+01 -3.247554432E+01 -1.167091776E+03  1.168072524E+03  3.051757812E-05  0.00000E+00  9.000E+00
#rwgt            1           1   3.3407600598509155E-002           7      234819           0
</event>
<event>
      5   9999  3.19816E-02  1.72576E+02 -1.00000E+00  1.14030E-01
      21    -1     0     0   502   501  0.000000000E+00  0.000000000E+00  6.029528236E+02  6.029528236E+02  0.000000000E+00  0.00000E+00  9.000E+00
       1    -1     0     0   501     0  0.000000000E+00  0.000000000E+00 -1.988401123E+03  1.988401123E+03  0.000000000E+00  0.00000E+00  9.000E+00
      25     1     1     2     0     0 -1.188208543E+02 -5.429211223E+02  3.280472254E+02  6.573596600E+02  1.250000000E+02  0.00000E+00  9.000E+00
      25     1     1     2     0     0  2.688167726E+02  6.282653693E+02 -1.539230789E+03  1.688738066E+03  1.250000000E+02  0.00000E+00  9.000E+00
       1     1     1     2   502     0 -1.499959182E+02 -8.534424699E+01 -1.742647356E+02  2.452562212E+02  3.814697266E-06  0.00000E+00  9.000E+00
#rwgt            1           1   2.9517561975105744E-002           7      234938           0
</event>
<event>
      5   9999  3.19816E-02  2.29205E+02 -1.00000E+00  1.09535E-01
      21    -1     0     0   502   501  0.000000000E+00  0.000000000E+00  7.284410324E+02  7.284410324E+02  0.000000000E+00  0.00000E+00  9.000E+00
      21    -1     0     0   511   502  0.000000000E+00  0.000000000E+00 -2.602549034E+02  2.602549034E+02  0.000000000E+00  0.00000E+00  9.000E+00
      25     1     1     2     0     0  1.159311525E+02 -6.755848032E+01  5.416014806E+01  1.912132371E+02  1.250000000E+02  0.00000E+00  9.000E+00
      25     1     1     2     0     0 -1.892537713E+02  2.847187051E+02  4.351239618E+02  5.673090807E+02  1.250000000E+02  0.00000E+00  9.000E+00
      21     1     1     2   511   501  7.332261878E+01 -2.171602248E+02 -2.109798082E+01  2.301736180E+02  3.396941864E-06  0.00000E+00  9.000E+00
#rwgt            2          11   3.4443906240292192E-003           7      235178           0
</event>
<event>
      5   9999  3.19816E-02  1.73850E+02 -1.00000E+00  1.13909E-01
      21    -1     0     0   502   501  0.000000000E+00  0.000000000E+00  1.893365961E+03  1.893365961E+03  0.000000000E+00  0.00000E+00  9.000E+00
      21    -1     0     0   501   512  0.000000000E+00  0.000000000E+00 -1.006874832E+03  1.006874832E+03  0.000000000E+00  0.00000E+00  9.000E+00
      25     1     1     2     0     0 -9.514774005E+02 -2.729710628E+02 -4.725390752E+02  1.103965861E+03  1.250000000E+02  0.00000E+00  9.000E+00
      25     1     1     2     0     0  8.631093442E+02  1.232551599E+02  1.362489256E+03  1.622390689E+03  1.250000000E+02  0.00000E+00  9.000E+00
      21     1     1     2   502   512  8.836805633E+01  1.497159030E+02 -3.459051382E+00  1.738842432E+02  3.335464418E-06  0.00000E+00  9.000E+00
#rwgt            1           1   4.8212167982562344E-002           7      235198           0
</event>
<event>
      5   9999  3.19816E-02  1.57364E+02 -1.00000E+00  1.15575E-01
      21    -1     0     0   511   501  0.000000000E+00  0.000000000E+00  4.144146003E+02  4.144146003E+02  0.000000000E+00  0.00000E+00  9.000E+00
      21    -1     0     0   501   502  0.000000000E+00  0.000000000E+00 -5.898628072E+02  5.898628072E+02  0.000000000E+00  0.00000E+00  9.000E+00
      25     1     1     2     0     0 -1.008729962E+02 -5.305573086E+01 -6.466824341E+01  1.811001205E+02  1.250000000E+02  0.00000E+00  9.000E+00
      25     1     1     2     0     0  1.546597829E+02 -9.483119433E+01 -4.210928281E+02  4.752439097E+02  1.250000000E+02  0.00000E+00  9.000E+00
      21     1     1     2   511   502 -5.378678670E+01  1.478869252E+02  3.103128646E+02  3.479333773E+02  3.814697266E-06  0.00000E+00  9.000E+00
#rwgt            2          11   6.8117937208806581E-003           7      235441           0
</event>
<event>
      5   9999  3.19816E-02  2.94209E+01 -1.00000E+00  1.53630E-01
      21    -1     0     0   502   512  0.000000000E+00  0.000000000E+00  3.443996345E+02  3.443996345E+02  0.000000000E+00  0.00000E+00  9.000E+00
      21    -1     0     0   501   502  0.000000000E+00  0.000000000E+00 -1.787268307E+02  1.787268307E+02  0.000000000E+00  0.00000E+00  9.000E+00
      25     1     1     2     0     0 -3.449362304E+01 -2.324447358E+01 -1.265433678E+02  1.826700290E+02  1.250000000E+02  0.00000E+00  9.000E+00
      25     1     1     2     0     0  5.081188422E+01  4.772515023E+01  2.197897551E+02  2.622824317E+02  1.250000000E+02  0.00000E+00  9.000E+00
      21     1     1     2   501   512 -1.631826118E+01 -2.448067666E+01  7.242641638E+01  7.817400442E+01  9.536743164E-07  0.00000E+00  9.000E+00
#rwgt            1           1   2.4423989108432739E-002           7      235461           0
</event>
<event>
      5   9999  3.19816E-02  2.93531E+02 -1.00000E+00  1.05901E-01
      21    -1     0     0   502   501  0.000000000E+00  0.000000000E+00  2.401515594E+03  2.401515594E+03  0.000000000E+00  0.00000E+00  9.000E+00
       2    -1     0     0   501     0  0.000000000E+00  0.000000000E+00 -6.435888019E+02  6.435888019E+02  0.000000000E+00  0.00000E+00  9.000E+00
      25     1     1     2     0     0 -3.476476534E+02  1.469462414E+02  2.021271530E+03  2.060003807E+03  1.250000000E+02  0.00000E+00  9.000E+00
      25     1     1     2     0     0  5.752978252E+01 -1.023113173E+02 -5.492184688E+02  5.753635442E+02  1.250000000E+02  0.00000E+00  9.000E+00
       2     1     1     2   502     0  2.901178709E+02 -4.463492407E+01  2.858737316E+02  4.097370448E+02  0.000000000E+00  0.00000E+00  9.000E+00
#rwgt            1           1   2.8550449657873126E-002           7      235591           0
</event>
<event>
      5   9999  3.19816E-02  1.64295E+02 -1.00000E+00  1.14848E-01
       1    -1     0     0   502     0  0.000000000E+00  0.000000000E+00  7.420009907E+02  7.420009907E+02  0.000000000E+00  0.00000E+00  9.000E+00
      21    -1     0     0   501   502  0.000000000E+00  0.000000000E+00 -2.784917179E+02  2.784917179E+02  0.000000000E+00  0.00000E+00  9.000E+00
      25     1     1     2     0     0 -2.102091884E+00  2.588095370E+02 -1.485917147E+02  3.235603389E+02  1.250000000E+02  0.00000E+00  9.000E+00
      25     1     1     2     0     0 -2.766567314E+01 -9.723332879E+01  3.796118017E+02  4.122497176E+02  1.250000000E+02  0.00000E+00  9.000E+00
       1     1     1     2   501     0  2.976776502E+01 -1.615762082E+02  2.324891858E+02  2.846826521E+02  3.814697266E-06  0.00000E+00  9.000E+00
#rwgt            1           1   3.0253177554577900E-002           7      235698           0
</event>
<event>
      5   9999  3.19816E-02  1.20623E+01 -1.00000E+00  1.86792E-01
      21    -1     0     0   502   511  0.000000000E+00  0.000000000E+00  1.934731622E+03  1.934731622E+03  0.000000000E+00  0.00000E+00  9.000E+00
      21    -1     0     0   501   502  0.000000000E+00  0.000000000E+00 -1.836448965E+03  1.836448965E+03  0.000000000E+00  0.00000E+00  9.000E+00
      25     1     1     2     0     0  4.106136933E+02 -3.379057147E+01 -1.228109776E+03  1.301393111E+03  1.250000000E+02  0.00000E+00  9.000E+00
      25     1     1     2     0     0 -3.989945764E+02  3.055107660E+01 -4.948182075E+02  6.485368908E+02  1.250000000E+02  0.00000E+00  9.000E+00
      21     1     1     2   501   511 -1.161911690E+01  3.239494866E+00  1.821210640E+03  1.821250585E+03  2.157918644E-05  0.00000E+00  9.000E+00
#rwgt            1           1   2.8376176921809465E-002           7      235735           0
</event>
<event>
      5   9999  3.19816E-02  8.14178E+01 -1.00000E+00  1.27981E-01
      21    -1     0     0   512   501  0.000000000E+00  0.000000000E+00  6.898170291E+01  6.898170291E+01  0.000000000E+00  0.00000E+00  9.000E+00
      21    -1     0     0   501   502  0.000000000E+00  0.000000000E+00 -1.808553866E+03  1.808553866E+03  0.000000000E+00  0.00000E+00  9.000E+00
      25     1     1     2     0     0  1.298094170E+02 -1.677597797E+02 -1.501232085E+03  1.521287810E+03  1.250000000E+02  0.00000E+00  9.000E+00
      25     1     1     2     0     0 -6.971016308E+01  1.128331112E+02 -1.794045875E+02  2.557378029E+02  1.250000000E+02  0.00000E+00  9.000E+00
      21     1     1     2   512   502 -6.009925392E+01  5.492666852E+01 -5.893549140E+01  1.005099566E+02  1.348699152E-06  0.00000E+00  9.000E+00
#rwgt            1           1   2.4359361303655798E-002           7      236026           0
</event>
<event>
      5   9999  3.19816E-02  7.36316E+01 -1.00000E+00  1.30118E-01
      21    -1     0     0   502   501  0.000000000E+00  0.000000000E+00  1.215839409E+02  1.215839409E+02  0.000000000E+00  0.00000E+00  9.000E+00
      21    -1     0     0   511   502  0.000000000E+00  0.000000000E+00 -1.343251731E+03  1.343251731E+03  0.000000000E+00  0.00000E+00  9.000E+00
      25     1     1     2     0     0  2.949683509E+02 -1.425093374E+02 -3.916445213E+02  5.256668815E+02  1.250000000E+02  0.00000E+00  9.000E+00
      25     1     1     2     0     0 -2.652575808E+02  2.098805218E+02 -6.283221555E+02  7.244481684E+02  1.250000000E+02  0.00000E+00  9.000E+00
      21     1     1     2   511   501 -2.971077007E+01 -6.737118443E+01 -2.017011130E+02  2.147206216E+02  0.000000000E+00  0.00000E+00  9.000E+00
#rwgt            1           1   1.9625760369512826E-002           7      236115           0
</event>
<event>
      5   9999  3.19816E-02  4.67791E+01 -1.00000E+00  1.40746E-01
      21    -1     0     0   502   512  0.000000000E+00  0.000000000E+00  6.839283301E+02  6.839283301E+02  0.000000000E+00  0.00000E+00  9.000E+00
      21    -1     0     0   501   502  0.000000000E+00  0.000000000E+00 -1.134501985E+03  1.134501985E+03  0.000000000E+00  0.00000E+00  9.000E+00
      25     1     1     2     0     0 -3.975771324E+02 -6.294729605E+02  8.872164020E+01  7.601317738E+02  1.250000000E+02  0.00000E+00  9.000E+00
      25     1     1     2     0     0  3.524912863E+02  6.419449949E+02 -6.182402352E+02  9.665347753E+02  1.250000000E+02  0.00000E+00  9.000E+00
      21     1     1     2   501   512  4.508584611E+01 -1.247203438E+01  7.894494022E+01  9.176376599E+01  1.651812370E-06  0.00000E+00  9.000E+00
#rwgt            1           1   3.5207337009407418E-002           7      236201           0
</event>
<event>
      5   9999  3.19816E-02  2.22665E+01 -1.00000E+00  1.62612E-01
      21    -1     0     0   502   511  0.000000000E+00  0.000000000E+00  1.220042979E+03  1.220042979E+03  0.000000000E+00  0.00000E+00  9.000E+00
      21    -1     0     0   501   502  0.000000000E+00  0.000000000E+00 -1.203053791E+03  1.203053791E+03  0.000000000E+00  0.00000E+00  9.000E+00
      25     1     1     2     0     0  2.110128725E+02 -3.290274717E+02  5.885265704E+02  7.174775491E+02  1.250000000E+02  0.00000E+00  9.000E+00
      25     1     1     2     0     0 -2.327816676E+02  3.243461726E+02 -1.099907992E+03  1.176779646E+03  1.250000000E+02  0.00000E+00  9.000E+00
      21     1     1     2   501   511  2.176879509E+01  4.681299063E+00  5.283706099E+02  5.288395753E+02  7.629394531E-06  0.00000E+00  9.000E+00
#rwgt            1           1   2.7180901882524481E-002           7      236396           0
</event>
<event>
      5   9999  3.19816E-02  1.15862E+02 -1.00000E+00  1.21019E-01
      21    -1     0     0   512   501  0.000000000E+00  0.000000000E+00  8.238326750E+02  8.238326750E+02  0.000000000E+00  0.00000E+00  9.000E+00
      21    -1     0     0   501   502  0.000000000E+00  0.000000000E+00 -3.188442680E+02  3.188442680E+02  0.000000000E+00  0.00000E+00  9.000E+00
      25     1     1     2     0     0  4.006890949E+02 -2.073687595E+02  3.243403525E+02  5.695394784E+02  1.250000000E+02  0.00000E+00  9.000E+00
      25     1     1     2     0     0 -2.899995812E+02  2.416013295E+02  5.362863292E+01  4.012131476E+02  1.250000000E+02  0.00000E+00  9.000E+00
      21     1     1     2   512   502 -1.106895137E+02 -3.423257007E+01  1.270194216E+02  1.719243170E+02  2.336015456E-06  0.00000E+00  9.000E+00
#rwgt            1           1   3.1574161317869762E-002           7      236661           0
</event>
<event>
      5   9999  3.19816E-02  2.71616E+02 -1.00000E+00  1.07014E-01
      21    -1     0     0   502   501  0.000000000E+00  0.000000000E+00  9.114561928E+02  9.114561928E+02  0.000000000E+00  0.00000E+00  9.000E+00
       5    -1     0     0   501     0  0.000000000E+00  0.000000000E+00 -6.186510971E+02  6.186510971E+02  0.000000000E+00  0.00000E+00  9.000E+00
      25     1     1     2     0     0 -1.440816642E+02 -4.870422873E+02 -6.467132731E+01  5.270456300E+02  1.250000000E+02  0.00000E+00  9.000E+00
      25     1     1     2     0     0  1.206198808E+02  2.164418287E+02  5.858085037E+02  6.482228196E+02  1.250000000E+02  0.00000E+00  9.000E+00
       5     1     1     2   502     0  2.346178335E+01  2.706004586E+02 -2.283320807E+02  3.548388402E+02  7.136645101E-06  0.00000E+00  9.000E+00
#rwgt            2          16   2.2321091382821251E-005           7      236913           0
</event>
<event>
      5   9999  3.19816E-02  2.15990E+02 -1.00000E+00  1.10445E-01
      21    -1     0     0   502   501  0.000000000E+00  0.000000000E+00  4.288027984E+02  4.288027984E+02  0.000000000E+00  0.00000E+00  9.000E+00
       2    -1     0     0   501     0  0.000000000E+00  0.000000000E+00 -7.427937108E+02  7.427937108E+02  0.000000000E+00  0.00000E+00  9.000E+00
      25     1     1     2     0     0 -2.234782914E+02 -1.403706445E+02  1.467232814E+02  3.268014472E+02  1.250000000E+02  0.00000E+00  9.000E+00
      25     1     1     2     0     0  4.390707941E+02  1.534613395E+02 -2.483079515E+02  5.418628828E+02  1.250000000E+02  0.00000E+00  9.000E+00
       2     1     1     2   502     0 -2.155925027E+02 -1.309069498E+01 -2.124062422E+02  3.029321793E+02  3.814697266E-06  0.00000E+00  9.000E+00
#rwgt            1           1   2.9840614710852947E-002           7      236947           0
</event>
<event>
      5   9999  3.19816E-02  2.48664E+02 -1.00000E+00  1.08310E-01
      21    -1     0     0   502   501  0.000000000E+00  0.000000000E+00  4.929571189E+02  4.929571189E+02  0.000000000E+00  0.00000E+00  9.000E+00
      21    -1     0     0   511   502  0.000000000E+00  0.000000000E+00 -1.454807204E+03  1.454807204E+03  0.000000000E+00  0.00000E+00  9.000E+00
      25     1     1     2     0     0  1.788091269E+02  1.990981471E+02 -1.269570883E+02  3.214900905E+02  1.250000000E+02  0.00000E+00  9.000E+00
      25     1     1     2     0     0  6.611686073E+01 -2.420532728E+02  3.312290953E+02  4.339342574E+02  1.250000000E+02  0.00000E+00  9.000E+00
      21     1     1     2   511   501 -2.449259876E+02  4.295512576E+01 -1.166122092E+03  1.192339975E+03  2.642899792E-05  0.00000E+00  9.000E+00
#rwgt            1           1   2.7715377204776875E-002           7      237015           0
</event>
<event>
      5   9999  3.19816E-02  6.87641E+01 -1.00000E+00  1.31614E-01
      21    -1     0     0   502   501  0.000000000E+00  0.000000000E+00  7.737826683E+02  7.737826683E+02  0.000000000E+00  0.00000E+00  9.000E+00
      21    -1     0     0   512   502  0.000000000E+00  0.000000000E+00 -1.084602987E+03  1.084602987E+03  0.000000000E+00  0.00000E+00  9.000E+00
      25     1     1     2     0     0  2.341679357E+02 -6.140951054E+02 -1.757301461E+02  6.917033358E+02  1.250000000E+02  0.00000E+00  9.000E+00
      25     1     1     2     0     0 -2.089199030E+02  6.780563390E+02  2.597984573E+02  7.658512670E+02  1.250000000E+02  0.00000E+00  9.000E+00
      21     1     1     2   512   501 -2.524803276E+01 -6.396123366E+01 -3.948886302E+02  4.008310528E+02  5.394796609E-06  0.00000E+00  9.000E+00
#rwgt            1           1   3.1225483848012981E-002           7      237098           0
</event>
<event>
      5   9999  3.19816E-02  8.51247E+01 -1.00000E+00  1.27058E-01
      21    -1     0     0   511   501  0.000000000E+00  0.000000000E+00  6.145212316E+01  6.145212316E+01  0.000000000E+00  0.00000E+00  9.000E+00
      21    -1     0     0   501   502  0.000000000E+00  0.000000000E+00 -1.380834036E+03  1.380834036E+03  0.000000000E+00  0.00000E+00  9.000E+00
      25     1     1     2     0     0 -3.559543001E+01  9.297277190E+01 -1.146842298E+03  1.157921944E+03  1.250000000E+02  0.00000E+00  9.000E+00
      25     1     1     2     0     0 -1.411072661E+01 -2.386774634E+01 -5.527484407E+01  1.394599954E+02  1.250000000E+02  0.00000E+00  9.000E+00
      21     1     1     2   511   502  4.970615662E+01 -6.910502556E+01 -1.172647707E+02  1.449042201E+02  1.348699152E-06  0.00000E+00  9.000E+00
#rwgt            1           1   3.8343646769080579E-002           7      237219           0
</event>
<event>
      5   9999  3.19816E-02  6.93105E+01 -1.00000E+00  1.31439E-01
      21    -1     0     0   502   501  0.000000000E+00  0.000000000E+00  1.779712313E+02  1.779712313E+02  0.000000000E+00  0.00000E+00  9.000E+00
      21    -1     0     0   512   502  0.000000000E+00  0.000000000E+00 -9.709646115E+02  9.709646115E+02  0.000000000E+00  0.00000E+00  9.000E+00
      25     1     1     2     0     0 -3.524330912E+01  2.041746122E+02 -5.741445975E+01  2.486981771E+02  1.250000000E+02  0.00000E+00  9.000E+00
      25     1     1     2     0     0  1.313649930E+01 -1.384841636E+02 -2.779878180E+01  1.890719531E+02  1.250000000E+02  0.00000E+00  9.000E+00
      21     1     1     2   512   501  2.210680982E+01 -6.569044856E+01 -7.077801387E+02  7.111657126E+02  7.629394531E-06  0.00000E+00  9.000E+00
#rwgt            1           1   2.6007108298597637E-002           7      237333           0
</event>
<event>
      5   9999  3.19816E-02  1.61825E+02 -1.00000E+00  1.15102E-01
      21    -1     0     0   502   511  0.000000000E+00  0.000000000E+00  6.359926743E+02  6.359926743E+02  0.000000000E+00  0.00000E+00  9.000E+00
      21    -1     0     0   501   502  0.000000000E+00  0.000000000E+00 -5.851848336E+02  5.851848336E+02  0.000000000E+00  0.00000E+00  9.000E+00
      25     1     1     2     0     0  3.491026692E+02 -1.707740357E+02 -4.083030317E+02  5.773844565E+02  1.250000000E+02  0.00000E+00  9.000E+00
      25     1     1     2     0     0 -2.380879487E+02  5.303318328E+01  3.654716656E+02  4.568292112E+02  1.250000000E+02  0.00000E+00  9.000E+00
      21     1     1     2   501   511 -1.110147205E+02  1.177408524E+02  9.363920675E+01  1.869638402E+02  1.348699152E-06  0.00000E+00  9.000E+00
#rwgt            1           1   2.6553956228621792E-002           7      237444           0
</event>
<event>
      5   9999  3.19816E-02  3.67053E+01 -1.00000E+00  1.47194E-01
      21    -1     0     0   512   501  0.000000000E+00  0.000000000E+00  1.369317069E+03  1.369317069E+03  0.000000000E+00  0.00000E+00  9.000E+00
      21    -1     0     0   501   502  0.000000000E+00  0.000000000E+00 -3.342260754E+02  3.342260754E+02  0.000000000E+00  0.00000E+00  9.000E+00
      25     1     1     2     0     0  4.870064922E+02 -3.982172487E+02  5.564854030E+02  8.491485761E+02  1.250000000E+02  0.00000E+00  9.000E+00
      25     1     1     2     0     0 -4.947608065E+02  4.340941201E+02  4.424849263E+02  8.028971732E+02  1.250000000E+02  0.00000E+00  9.000E+00
      21     1     1     2   512   502  7.754314300E+00 -3.587687146E+01  3.612066425E+01  5.149739490E+01  6.743495762E-07  0.00000E+00  9.000E+00
#rwgt            1           1   3.2072515430368452E-002           7      237519           0
</event>
<event>
      5   9999  3.19816E-02  9.74829E+01 -1.00000E+00  1.24328E-01
      21    -1     0     0   511   501  0.000000000E+00  0.000000000E+00  2.529304650E+02  2.529304650E+02  0.000000000E+00  0.00000E+00  9.000E+00
      21    -1     0     0   501   502  0.000000000E+00  0.000000000E+00 -2.097406039E+03  2.097406039E+03  0.000000000E+00  0.00000E+00  9.000E+00
      25     1     1     2     0     0 -3.956119034E+02  4.489046901E+02 -4.803818572E+02  7.774419127E+02  1.250000000E+02  0.00000E+00  9.000E+00
      25     1     1     2     0     0  3.673578074E+02 -3.556061385E+02 -1.377371412E+03  1.474511611E+03  1.250000000E+02  0.00000E+00  9.000E+00
      21     1     1     2   511   502  2.825409600E+01 -9.329855160E+01  1.327769506E+01  9.838298053E+01  1.168007728E-06  0.00000E+00  9.000E+00
#rwgt            1           1   3.7847010808002325E-002           7      237718           0
</event>
<event>
      5   9999  3.19816E-02  6.41416E+01 -1.00000E+00  1.33172E-01
      21    -1     0     0   502   501  0.000000000E+00  0.000000000E+00  2.280358052E+02  2.280358052E+02  0.000000000E+00  0.00000E+00  9.000E+00
      21    -1     0     0   501   512  0.000000000E+00  0.000000000E+00 -3.510376942E+02  3.510376942E+02  0.000000000E+00  0.00000E+00  9.000E+00
      25     1     1     2     0     0 -7.587168706E+01 -1.450555892E+02 -1.662226920E+02  2.646745552E+02  1.250000000E+02  0.00000E+00  9.000E+00
      25     1     1     2     0     0  1.367981431E+02  1.250028877E+02  8.355072831E+01  2.386318882E+02  1.250000000E+02  0.00000E+00  9.000E+00
      21     1     1     2   502   512 -6.092645600E+01  2.005270144E+01 -4.032992532E+01  7.576705585E+01  0.000000000E+00  0.00000E+00  9.000E+00
#rwgt            1           1   2.7482105620385715E-002           7      237795           0
</event>
<event>
      5   9999  3.19816E-02  5.28062E+01 -1.00000E+00  1.37736E-01
      21    -1     0     0   502   501  0.000000000E+00  0.000000000E+00  4.547013449E+02  4.547013449E+02  0.000000000E+00  0.00000E+00  9.000E+00
      21    -1     0     0   501   511  0.000000000E+00  0.000000000E+00 -2.701923701E+02  2.701923701E+02  0.000000000E+00  0.00000E+00  9.000E+00
      25     1     1     2     0     0 -4.550757440E+01  6.985505051E+01  3.812345860E+02  4.097749101E+02  1.250000000E+02  0.00000E+00  9.000E+00
      25     1     1     2     0     0  8.290333254E+01 -3.257161542E+01 -2.105269680E+02  2.605388204E+02  1.250000000E+02  0.00000E+00  9.000E+00
      21     1     1     2   502   511 -3.739575814E+01 -3.728343509E+01  1.380135674E+01  5.457998449E+01  1.469710828E-06  0.00000E+00  9.000E+00
#rwgt            1           1   2.8709226139717641E-002           7      237857           0
</event>
<event>
      5   9999  3.19816E-02  1.08051E+01 -1.00000E+00  1.91949E-01
      21    -1     0     0   502   501  0.000000000E+00  0.000000000E+00  1.637860665E+02  1.637860665E+02  0.000000000E+00  0.00000E+00  9.000E+00
      21    -1     0     0   501   512  0.000000000E+00  0.000000000E+00 -1.915036176E+02  1.915036176E+02  0.000000000E+00  0.00000E+00  9.000E+00
      25     1     1     2     0     0 -1.098500245E+02  2.965308965E+00  3.882843545E+01  1.709048517E+02  1.250000000E+02  0.00000E+00  9.000E+00
      25     1     1     2     0     0  9.915764657E+01 -1.408885323E+00 -5.550889147E+01  1.689392224E+02  1.250000000E+02  0.00000E+00  9.000E+00
      21     1     1     2   502   512  1.069237793E+01 -1.556423642E+00 -1.103709504E+01  1.544560997E+01  2.064765462E-07  0.00000E+00  9.000E+00
#rwgt            1           1   3.3240870992207919E-002           7      237948           0
</event>
<event>
      5   9999  3.19816E-02  3.90332E+01 -1.00000E+00  1.45502E-01
      21    -1     0     0   511   501  0.000000000E+00  0.000000000E+00  3.751226694E+02  3.751226694E+02  0.000000000E+00  0.00000E+00  9.000E+00
      21    -1     0     0   501   502  0.000000000E+00  0.000000000E+00 -1.072712464E+02  1.072712464E+02  0.000000000E+00  0.00000E+00  9.000E+00
      25     1     1     2     0     0 -2.613768116E+01 -6.188113269E+01 -7.160622148E+00  1.420870419E+02  1.250000000E+02  0.00000E+00  9.000E+00
      25     1     1     2     0     0  6.241126294E+01  7.629712880E+01  2.392325289E+02  2.873562606E+02  1.250000000E+02  0.00000E+00  9.000E+00
      21     1     1     2   511   502 -3.627358178E+01 -1.441599611E+01  3.577951621E+01  5.295061340E+01  8.259061849E-07  0.00000E+00  9.000E+00
#rwgt            1           1   2.5447818161977682E-002           7      238098           0
</event>
<event>
      5   9999  3.19816E-02  5.20913E+01 -1.00000E+00  1.38068E-01
       2    -1     0     0   502     0  0.000000000E+00  0.000000000E+00  2.291919998E+03  2.291919998E+03  0.000000000E+00  0.00000E+00  9.000E+00
      21    -1     0     0   501   502  0.000000000E+00  0.000000000E+00 -4.764231582E+02  4.764231582E+02  0.000000000E+00  0.00000E+00  9.000E+00
      25     1     1     2     0     0 -2.964145024E+02  2.615052467E+02  5.545235017E+02  6.923639687E+02  1.250000000E+02  0.00000E+00  9.000E+00
      25     1     1     2     0     0  3.412839893E+02 -2.350433327E+02 -2.920080868E+02  5.221243648E+02  1.250000000E+02  0.00000E+00  9.000E+00
       2     1     1     2   501     0 -4.486948690E+01 -2.646191397E+01  1.552981425E+03  1.553854823E+03  2.157918644E-05  0.00000E+00  9.000E+00
#rwgt            1           1   2.5963097525636612E-002           7      238184           0
</event>
<event>
      5   9999  3.19816E-02  3.81845E+01 -1.00000E+00  1.46102E-01
      21    -1     0     0   502   511  0.000000000E+00  0.000000000E+00  6.989837331E+01  6.989837331E+01  0.000000000E+00  0.00000E+00  9.000E+00
      21    -1     0     0   501   502  0.000000000E+00  0.000000000E+00 -6.913276159E+02  6.913276159E+02  0.000000000E+00  0.00000E+00  9.000E+00
      25     1     1     2     0     0 -1.622071230E+02 -2.373200396E+01 -3.529086849E+02  4.087100423E+02  1.250000000E+02  0.00000E+00  9.000E+00
      25     1     1     2     0     0  1.245053772E+02  2.978458719E+01 -2.560032206E+02  3.123321302E+02  1.250000000E+02  0.00000E+00  9.000E+00
      21     1     1     2   501   511  3.770174581E+01 -6.052583226E+00 -1.251733703E+01  4.018381673E+01  6.307962682E-07  0.00000E+00  9.000E+00
#rwgt            1           1   2.8484599616699122E-002           7      238294           0
</event>
<event>
      5   9999  3.19816E-02  5.03220E+01 -1.00000E+00  1.38917E-01
      21    -1     0     0   502   512  0.000000000E+00  0.000000000E+00  2.323277714E+02  2.323277714E+02  0.000000000E+00  0.00000E+00  9.000E+00
      21    -1     0     0   501   502  0.000000000E+00  0.000000000E+00 -6.118549643E+02  6.118549643E+02  0.000000000E+00  0.00000E+00  9.000E+00
      25     1     1     2     0     0 -5.008816106E+01 -1.846787157E+02  1.235615659E+02  2.598220785E+02  1.250000000E+02  0.00000E+00  9.000E+00
      25     1     1     2     0     0  6.223840648E+00  1.600164200E+02 -4.927553985E+02  5.329886242E+02  1.250000000E+02  0.00000E+00  9.000E+00
      21     1     1     2   501   512  4.386432041E+01  2.466229571E+01 -1.033336031E+01  5.137203296E+01  5.960464478E-07  0.00000E+00  9.000E+00
#rwgt            1           1   2.7362446389394609E-002           7      238379           0
</event>
<event>
      5   9999  3.19816E-02  4.64022E+01 -1.00000E+00  1.40952E-01
      21    -1     0     0   511   501  0.000000000E+00  0.000000000E+00  4.028860666E+01  4.028860666E+01  0.000000000E+00  0.00000E+00  9.000E+00
      21    -1     0     0   501   502  0.000000000E+00  0.000000000E+00 -1.339425658E+03  1.339425658E+03  0.000000000E+00  0.00000E+00  9.000E+00
      25     1     1     2     0     0 -1.218813210E+02 -1.282949845E+02 -7.165720804E+02  7.486088471E+02  1.250000000E+02  0.00000E+00  9.000E+00
      25     1     1     2     0     0  8.106131609E+01  1.062292874E+02 -5.314622629E+02  5.620789405E+02  1.250000000E+02  0.00000E+00  9.000E+00
      21     1     1     2   511   502  4.082000488E+01  2.206569709E+01 -5.110270832E+01  6.902647742E+01  1.907348633E-06  0.00000E+00  9.000E+00
#rwgt            2          11   2.0526670989515902E-003           7      238491           0
</event>
<event>
      5   9999  3.19816E-02  1.21886E+02 -1.00000E+00  1.20081E-01
      21    -1     0     0   502   501  0.000000000E+00  0.000000000E+00  1.672524909E+02  1.672524909E+02  0.000000000E+00  0.00000E+00  9.000E+00
      21    -1     0     0   512   502  0.000000000E+00  0.000000000E+00 -1.813833482E+03  1.813833482E+03  0.000000000E+00  0.00000E+00  9.000E+00
      25     1     1     2     0     0 -3.193203484E+02 -1.711990345E+02 -2.882779941E+02  4.795871101E+02  1.250000000E+02  0.00000E+00  9.000E+00
      25     1     1     2     0     0  4.366270705E+02  1.381021130E+02 -8.016354814E+02  9.316436215E+02  1.250000000E+02  0.00000E+00  9.000E+00
      21     1     1     2   512   501 -1.173067221E+02  3.309692148E+01 -5.566675150E+02  5.698552408E+02  1.078959322E-05  0.00000E+00  9.000E+00
#rwgt            2          11   1.9939545129321378E-003           7      238871           0
</event>
<event>
      5   9999  3.19816E-02  2.82057E+01 -1.00000E+00  1.54924E-01
      21    -1     0     0   502   501  0.000000000E+00  0.000000000E+00  6.803160742E+02  6.803160742E+02  0.000000000E+00  0.00000E+00  9.000E+00
      -1    -1     0     0     0   502  0.000000000E+00  0.000000000E+00 -8.427476245E+01  8.427476245E+01  0.000000000E+00  0.00000E+00  9.000E+00
      25     1     1     2     0     0 -9.587546112E+01 -1.530153636E+02  2.469979092E+02  3.305128934E+02  1.250000000E+02  0.00000E+00  9.000E+00
      25     1     1     2     0     0  6.919464575E+01  1.621637860E+02  3.427150386E+02  4.051710629E+02  1.250000000E+02  0.00000E+00  9.000E+00
      -1     1     1     2     0   501  2.668081537E+01 -9.148422374E+00  6.328363877E+00  2.890688032E+01  6.251387883E-07  0.00000E+00  9.000E+00
#rwgt            1           1   2.8181499552851583E-002           7      238891           0
</event>
<event>
      5   9999  3.19816E-02  5.70737E+01 -1.00000E+00  1.35874E-01
      21    -1     0     0   502   501  0.000000000E+00  0.000000000E+00  2.194121224E+02  2.194121224E+02  0.000000000E+00  0.00000E+00  9.000E+00
      21    -1     0     0   501   511  0.000000000E+00  0.000000000E+00 -2.686201032E+03  2.686201032E+03  0.000000000E+00  0.00000E+00  9.000E+00
      25     1     1     2     0     0  1.278094985E+02 -6.933773649E+02 -1.049041350E+03  1.270126054E+03  1.250000000E+02  0.00000E+00  9.000E+00
      25     1     1     2     0     0 -9.735710476E+01  6.451067093E+02 -9.215105596E+02  1.135978778E+03  1.250000000E+02  0.00000E+00  9.000E+00
      21     1     1     2   502   511 -3.045239376E+01  4.827065567E+01 -4.962369995E+02  4.995083224E+02  5.394796609E-06  0.00000E+00  9.000E+00
#rwgt            2          11   1.6217698407916196E-003           7      239076           0
</event>
<event>
      5   9999  3.19816E-02  2.35854E+01 -1.00000E+00  1.60669E-01
      21    -1     0     0   502   512  0.000000000E+00  0.000000000E+00  1.151304560E+03  1.151304560E+03  0.000000000E+00  0.00000E+00  9.000E+00
      21    -1     0     0   501   502  0.000000000E+00  0.000000000E+00 -1.358557719E+02  1.358557719E+02  0.000000000E+00  0.00000E+00  9.000E+00
      25     1     1     2     0     0 -1.790956946E+02  3.990952908E+01  7.002561618E+02  7.346099172E+02  1.250000000E+02  0.00000E+00  9.000E+00
      25     1     1     2     0     0  1.612469486E+02 -2.449228782E+01 -2.902292678E+01  2.075277834E+02  1.250000000E+02  0.00000E+00  9.000E+00
      21     1     1     2   501   512  1.784874600E+01 -1.541724126E+01  3.442155536E+02  3.450226317E+02  6.607249480E-06  0.00000E+00  9.000E+00
#rwgt            1           1   3.0443430125797932E-002           7      239111           0
</event>
<event>
      5   9999  3.19816E-02  9.52645E+01 -1.00000E+00  1.24783E-01
      21    -1     0     0   511   501  0.000000000E+00  0.000000000E+00  9.331794577E+02  9.331794577E+02  0.000000000E+00  0.00000E+00  9.000E+00
      21    -1     0     0   501   502  0.000000000E+00  0.000000000E+00 -1.823373762E+02  1.823373762E+02  0.000000000E+00  0.00000E+00  9.000E+00
      25     1     1     2     0     0 -1.172511413E+02  3.287743056E+02  4.730982947E+02  6.010718515E+02  1.250000000E+02  0.00000E+00  9.000E+00
      25     1     1     2     0     0  1.361601358E+02 -2.354053129E+02  1.050165793E+02  3.171887858E+02  1.250000000E+02  0.00000E+00  9.000E+00
      21     1     1     2   511   502 -1.890899445E+01 -9.336899274E+01  1.727272075E+02  1.972561966E+02  1.907348633E-06  0.00000E+00  9.000E+00
#rwgt            1           1   2.4935374518129529E-002           7      239248           0
</event>
<event>
      5   9999  3.19816E-02  2.74169E+01 -1.00000E+00  1.55806E-01
      21    -1     0     0   502   512  0.000000000E+00  0.000000000E+00  3.233015419E+02  3.233015419E+02  0.000000000E+00  0.00000E+00  9.000E+00
      21    -1     0     0   501   502  0.000000000E+00  0.000000000E+00 -8.758204023E+02  8.758204023E+02  0.000000000E+00  0.00000E+00  9.000E+00
      25     1     1     2     0     0  8.156427583E+01  2.188737531E+02 -7.067027616E+02  7.547266022E+02  1.250000000E+02  0.00000E+00  9.000E+00
      25     1     1     2     0     0 -8.661494473E+01 -2.458214101E+02  1.289532988E+00  2.890622376E+02  1.250000000E+02  0.00000E+00  9.000E+00
      21     1     1     2   501   512  5.050668902E+00  2.694765702E+01  1.528943682E+02  1.553331043E+02  3.303624740E-06  0.00000E+00  9.000E+00
#rwgt            1           1   3.1238707448069277E-002           7      239326           0
</event>
<event>
      5   9999  3.19816E-02  1.22454E+01 -1.00000E+00  1.86108E-01
      21    -1     0     0   511   501  0.000000000E+00  0.000000000E+00  1.620510088E+02  1.620510088E+02  0.000000000E+00  0.00000E+00  9.000E+00
      21    -1     0     0   501   502  0.000000000E+00  0.000000000E+00 -7.047479871E+02  7.047479871E+02  0.000000000E+00  0.00000E+00  9.000E+00
      25     1     1     2     0     0 -1.742681877E+02  3.938380512E+01 -5.300813605E+02  5.731768785E+02  1.250000000E+02  0.00000E+00  9.000E+00
      25     1     1     2     0     0  1.668028772E+02 -2.967713331E+01 -7.992776401E+01  2.252051943E+02  1.250000000E+02  0.00000E+00  9.000E+00
      21     1     1     2   511   502  7.465310518E+00 -9.706671806E+00  6.731214618E+01  6.841692306E+01  0.000000000E+00  0.00000E+00  9.000E+00
#rwgt            1           1   2.7377615852030086E-002           7      239458           0
</event>
<event>
      5   9999  3.19816E-02  1.41555E+02 -1.00000E+00  1.17400E-01
      21    -1     0     0   502   501  0.000000000E+00  0.000000000E+00  1.210052212E+02  1.210052212E+02  0.000000000E+00  0.00000E+00  9.000E+00
      -3    -1     0     0     0   502  0.000000000E+00  0.000000000E+00 -1.162126827E+03  1.162126827E+03  0.000000000E+00  0.00000E+00  9.000E+00
      25     1     1     2     0     0  1.125258419E+02  1.255010718E+02 -3.825365934E+02  4.363162034E+02  1.250000000E+02  0.00000E+00  9.000E+00
      25     1     1     2     0     0 -4.443879150E+01 -1.396487878E+00  3.638949764E+01  1.375716246E+02  1.250000000E+02  0.00000E+00  9.000E+00
      -3     1     1     2     0   501 -6.808705040E+01 -1.241045840E+02 -6.949745097E+02  7.092442198E+02  0.000000000E+00  0.00000E+00  9.000E+00
#rwgt            1           1   2.4374658587127070E-002           7      239658           0
</event>
<event>
      5   9999  3.19816E-02  3.65914E+01 -1.00000E+00  1.47281E-01
      21    -1     0     0   502   501  0.000000000E+00  0.000000000E+00  4.285595940E+01  4.285595940E+01  0.000000000E+00  0.00000E+00  9.000E+00
      21    -1     0     0   511   502  0.000000000E+00  0.000000000E+00 -1.189525891E+03  1.189525891E+03  0.000000000E+00  0.00000E+00  9.000E+00
      25     1     1     2     0     0 -5.485911667E+01  7.550537777E+01 -1.448293438E+02  2.128640965E+02  1.250000000E+02  0.00000E+00  9.000E+00
      25     1     1     2     0     0  7.150854232E+01 -4.292121489E+01 -8.602215952E+02  8.732479001E+02  1.250000000E+02  0.00000E+00  9.000E+00
      21     1     1     2   511   501 -1.664942565E+01 -3.258416288E+01 -1.416189926E+02  1.462698537E+02  1.907348633E-06  0.00000E+00  9.000E+00
#rwgt            2          11   2.1224632495297734E-003           7      239711           0
</event>
<event>
      5   9999  3.19816E-02  1.96191E+02 -1.00000E+00  1.11953E-01
      21    -1     0     0   512   501  0.000000000E+00  0.000000000E+00  4.583403254E+02  4.583403254E+02  0.000000000E+00  0.00000E+00  9.000E+00
      21    -1     0     0   501   502  0.000000000E+00  0.000000000E+00 -1.244559819E+03  1.244559819E+03  0.000000000E+00  0.00000E+00  9.000E+00
      25     1     1     2     0     0  5.405156594E+02 -3.162279072E+02 -4.428783481E+02  7.771251499E+02  1.250000000E+02  0.00000E+00  9.000E+00
      25     1     1     2     0     0 -4.000055975E+02  4.531505274E+02 -3.819075814E+02  7.258293733E+02  1.250000000E+02  0.00000E+00  9.000E+00
      21     1     1     2   512   502 -1.405100620E+02 -1.369226202E+02  3.856643590E+01  1.999456211E+02  2.821006671E-06  0.00000E+00  9.000E+00
#rwgt            1           1   1.4283673127826706E-002           7      239731           0
</event>
<event>
      5   9999  3.19816E-02  9.86825E+01 -1.00000E+00  1.24088E-01
       1    -1     0     0   502     0  0.000000000E+00  0.000000000E+00  1.171777021E+03  1.171777021E+03  0.000000000E+00  0.00000E+00  9.000E+00
      21    -1     0     0   501   502  0.000000000E+00  0.000000000E+00 -3.979933864E+02  3.979933864E+02  0.000000000E+00  0.00000E+00  9.000E+00
      25     1     1     2     0     0 -1.480417448E+01  5.314336220E+01 -3.082699770E+02  3.371924662E+02  1.250000000E+02  0.00000E+00  9.000E+00
      25     1     1     2     0     0  1.126664900E+02 -4.044713091E+01  2.969578782E+01  1.756033832E+02  1.250000000E+02  0.00000E+00  9.000E+00
       1     1     1     2   501     0 -9.786231556E+01 -1.269623130E+01  1.052357824E+03  1.056974558E+03  0.000000000E+00  0.00000E+00  9.000E+00
#rwgt            1           1   2.7165397666816325E-002           7      239787           0
</event>
<event>
      5   9999  3.19816E-02  6.49108E+01 -1.00000E+00  1.32903E-01
      21    -1     0     0   502   501  0.000000000E+00  0.000000000E+00  9.154603314E+01  9.154603314E+01  0.000000000E+00  0.00000E+00  9.000E+00
      21    -1     0     0   511   502  0.000000000E+00  0.000000000E+00 -1.532554424E+03  1.532554424E+03  0.000000000E+00  0.00000E+00  9.000E+00
      25     1     1     2     0     0  5.923349615E+01  2.241186108E+02 -2.139630587E+02  3.393272009E+02  1.250000000E+02  0.00000E+00  9.000E+00
      25     1     1     2     0     0 -4.225429516E+01 -2.867693356E+02 -1.001209699E+03  1.049794236E+03  1.250000000E+02  0.00000E+00  9.000E+00
      21     1     1     2   511   501 -1.697920100E+01  6.265072483E+01 -2.258356331E+02  2.349790198E+02  0.000000000E+00  0.00000E+00  9.000E+00
#rwgt            1           1   2.6831926670076625E-002           7      239826           0
</event>
<event>
      5   9999  3.19816E-02  9.95976E+01 -1.00000E+00  1.23907E-01
      21    -1     0     0   502   501  0.000000000E+00  0.000000000E+00  3.122669330E+02  3.122669330E+02  0.000000000E+00  0.00000E+00  9.000E+00
       2    -1     0     0   501     0  0.000000000E+00  0.000000000E+00 -6.615979712E+02  6.615979712E+02  0.000000000E+00  0.00000E+00  9.000E+00
      25     1     1     2     0     0 -1.376550041E+02 -1.927249520E+02  9.761593565E+01  2.850362752E+02  1.250000000E+02  0.00000E+00  9.000E+00
      25     1     1     2     0     0  2.121803049E+02  1.266518340E+02 -5.032561890E+02  5.744153207E+02  1.250000000E+02  0.00000E+00  9.000E+00
       2     1     1     2   502     0 -7.452530082E+01  6.607311807E+01  5.630921512E+01  1.144133082E+02  1.168007728E-06  0.00000E+00  9.000E+00
#rwgt            1           1   3.0659946763688509E-002           7      239944           0
</event>
<event>
      5   9999  3.19816E-02  1.51015E+01 -1.00000E+00  1.77108E-01
      21    -1     0     0   502   501  0.000000000E+00  0.000000000E+00  2.836951617E+02  2.836951617E+02  0.000000000E+00  0.00000E+00  9.000E+00
       2    -1     0     0   501     0  0.000000000E+00  0.000000000E+00 -2.293942123E+03  2.293942123E+03  0.000000000E+00  0.00000E+00  9.000E+00
      25     1     1     2     0     0  6.015046714E+02  2.309422641E+02 -6.034734114E+02  8.915982040E+02  1.250000000E+02  0.00000E+00  9.000E+00
      25     1     1     2     0     0 -6.154671992E+02 -2.251887871E+02 -6.578522879E+02  9.369655787E+02  1.250000000E+02  0.00000E+00  9.000E+00
       2     1     1     2   502     0  1.396252779E+01 -5.753477028E+00 -7.489212621E+02  7.490735021E+02  0.000000000E+00  0.00000E+00  9.000E+00
#rwgt            1           1   3.0467117424805196E-002           7      240043           0
</event>
<event>
      5   9999  3.19816E-02  1.92154E+02 -1.00000E+00  1.12284E-01
      21    -1     0     0   502   511  0.000000000E+00  0.000000000E+00  5.143763228E+02  5.143763228E+02  0.000000000E+00  0.00000E+00  9.000E+00
      21    -1     0     0   501   502  0.000000000E+00  0.000000000E+00 -1.166794103E+03  1.166794103E+03  0.000000000E+00  0.00000E+00  9.000E+00
      25     1     1     2     0     0  5.628580375E+02  9.744881700E+01 -8.075471975E+02  9.970270401E+02  1.250000000E+02  0.00000E+00  9.000E+00
      25     1     1     2     0     0 -4.111123448E+02  2.043339779E+01 -1.071989628E+01  4.303147684E+02  1.250000000E+02  0.00000E+00  9.000E+00
      21     1     1     2   501   511 -1.517456928E+02 -1.178822148E+02  1.658493140E+02  2.538286170E+02  1.907348633E-06  0.00000E+00  9.000E+00
#rwgt            1           1   3.2274089706505325E-002           7      240287           0
</event>
<event>
      5   9999  3.19816E-02  1.70923E+02 -1.00000E+00  1.14190E-01
      21    -1     0     0   502   512  0.000000000E+00  0.000000000E+00  2.420501508E+03  2.420501508E+03  0.000000000E+00  0.00000E+00  9.000E+00
      21    -1     0     0   501   502  0.000000000E+00  0.000000000E+00 -2.753147276E+02  2.753147276E+02  0.000000000E+00  0.00000E+00  9.000E+00
      25     1     1     2     0     0  4.549227966E+02 -2.262414603E+02  7.998349288E+01  5.293036070E+02  1.250000000E+02  0.00000E+00  9.000E+00
      25     1     1     2     0     0 -3.236380805E+02  3.356901918E+02  1.468860908E+03  1.546158750E+03  1.250000000E+02  0.00000E+00  9.000E+00
      21     1     1     2   501   512 -1.312847161E+02 -1.094487316E+02  5.963423800E+02  6.203538794E+02  1.321449896E-05  0.00000E+00  9.000E+00
#rwgt            2          11   2.2673762242776938E-003           7      240604           0
</event>
<event>
      5   9999  3.19816E-02  5.66195E+02 -1.00000E+00  9.73419E-02
      21    -1     0     0   502   501  0.000000000E+00  0.000000000E+00  5.072811881E+02  5.072811881E+02  0.000000000E+00  0.00000E+00  9.000E+00
       2    -1     0     0   501     0  0.000000000E+00  0.000000000E+00 -2.938976350E+03  2.938976350E+03  0.000000000E+00  0.00000E+00  9.000E+00
      25     1     1     2     0     0  6.857126854E+02 -5.283337656E+02 -1.632638969E+02  8.897294841E+02  1.250000000E+02  0.00000E+00  9.000E+00
      25     1     1     2     0     0 -1.206299102E+02  5.637985855E+02 -9.061965157E+02  1.081312880E+03  1.250000000E+02  0.00000E+00  9.000E+00
       2     1     1     2   502     0 -5.650827752E+02 -3.546481985E+01 -1.362234750E+03  1.475215174E+03  1.525878906E-05  0.00000E+00  9.000E+00
#rwgt            1           1   2.8832231781749328E-002           7      240624           0
</event>
<event>
      5   9999  3.19816E-02  1.14632E+02 -1.00000E+00  1.21218E-01
      21    -1     0     0   502   511  0.000000000E+00  0.000000000E+00  1.378163691E+03  1.378163691E+03  0.000000000E+00  0.00000E+00  9.000E+00
      21    -1     0     0   501   502  0.000000000E+00  0.000000000E+00 -7.892901422E+01  7.892901422E+01  0.000000000E+00  0.00000E+00  9.000E+00
      25     1     1     2     0     0 -8.379436986E+01 -9.311592776E+01  2.227018823E+02  2.844524579E+02  1.250000000E+02  0.00000E+00  9.000E+00
      25     1     1     2     0     0  1.951398940E+02  6.586383033E+01  2.864920967E+02  3.743265203E+02  1.250000000E+02  0.00000E+00  9.000E+00
      21     1     1     2   501   511 -1.113455241E+02  2.725209743E+01  7.900406978E+02  7.983137270E+02  1.078959322E-05  0.00000E+00  9.000E+00
#rwgt            1           1   2.7016767231954987E-002           7      240683           0
</event>
<event>
      5   9999  3.19816E-02  8.96094E+00 -1.00000E+00  2.01431E-01
      21    -1     0     0   512   501  0.000000000E+00  0.000000000E+00  5.156324268E+02  5.156324268E+02  0.000000000E+00  0.00000E+00  9.000E+00
      21    -1     0     0   501   502  0.000000000E+00  0.000000000E+00 -2.254608931E+02  2.254608931E+02  0.000000000E+00  0.00000E+00  9.000E+00
      25     1     1     2     0     0 -2.115229901E+02  1.067054129E+02  9.710893547E+00  2.680435076E+02  1.250000000E+02  0.00000E+00  9.000E+00
      25     1     1     2     0     0  2.026045307E+02 -1.075769107E+02  8.117280885E+01  2.735606194E+02  1.250000000E+02  0.00000E+00  9.000E+00
      21     1     1     2   512   502  8.918459404E+00  8.714977421E-01  1.992878313E+02  1.994891930E+02  0.000000000E+00  0.00000E+00  9.000E+00
#rwgt            1           1   2.5631636597153049E-002           7      240756           0
</event>
<event>
      5   9999  3.19816E-02  3.33175E+01 -1.00000E+00  1.49942E-01
       1    -1     0     0   502     0  0.000000000E+00  0.000000000E+00  2.436820643E+03  2.436820643E+03  0.000000000E+00  0.00000E+00  9.000E+00
      21    -1     0     0   501   502  0.000000000E+00  0.000000000E+00 -5.848035507E+02  5.848035507E+02  0.000000000E+00  0.00000E+00  9.000E+00
      25     1     1     2     0     0 -3.581845537E+02  1.561361362E+02 -2.106132535E+02  4.611481433E+02  1.250000000E+02  0.00000E+00  9.000E+00
      25     1     1     2     0     0  3.836633035E+02 -1.346677648E+02 -6.695637435E+01  4.306287187E+02  1.250000000E+02  0.00000E+00  9.000E+00
       1     1     1     2   501     0 -2.547874978E+01 -2.146837141E+01  2.129586720E+03  2.129847331E+03  0.000000000E+00  0.00000E+00  9.000E+00
#rwgt            1           1   2.9166104014893782E-002           7      241038           0
</event>
<event>
      5   9999  3.19816E-02  3.25551E+02 -1.00000E+00  1.04451E-01
      21    -1     0     0   502   501  0.000000000E+00  0.000000000E+00  1.106476868E+03  1.106476868E+03  0.000000000E+00  0.00000E+00  9.000E+00
       2    -1     0     0   501     0  0.000000000E+00  0.000000000E+00 -1.636411923E+03  1.636411923E+03  0.000000000E+00  0.00000E+00  9.000E+00
      25     1     1     2     0     0  4.667910921E+02 -1.274187773E+02 -2.376167287E+02  5.533680315E+02  1.250000000E+02  0.00000E+00  9.000E+00
      25     1     1     2     0     0 -7.647366057E+02 -3.775018603E+00  7.615764026E+02  1.086489735E+03  1.250000000E+02  0.00000E+00  9.000E+00
       2     1     1     2   502     0  2.979455136E+02  1.311937959E+02 -1.053894729E+03  1.103031024E+03  1.525878906E-05  0.00000E+00  9.000E+00
#rwgt            2          13   2.2035106070883519E-003           7      241294           0
</event>
<event>
      5   9999  3.19816E-02  3.55506E+01 -1.00000E+00  1.48090E-01
      21    -1     0     0   511   501  0.000000000E+00  0.000000000E+00  8.570494930E+02  8.570494930E+02  0.000000000E+00  0.00000E+00  9.000E+00
      21    -1     0     0   501   502  0.000000000E+00  0.000000000E+00 -4.583910114E+02  4.583910114E+02  0.000000000E+00  0.00000E+00  9.000E+00
      25     1     1     2     0     0  8.054084157E+01  2.535614564E+02 -2.675568242E+02  3.974819411E+02  1.250000000E+02  0.00000E+00  9.000E+00
      25     1     1     2     0     0 -6.933166994E+01 -2.198242009E+02  1.169300060E+01  2.624714956E+02  1.250000000E+02  0.00000E+00  9.000E+00
      21     1     1     2   511   502 -1.120917163E+01 -3.373725556E+01  6.545223052E+02  6.554870677E+02  1.321449896E-05  0.00000E+00  9.000E+00
#rwgt            1           1   2.7841767990207062E-002           7      241328           0
</event>
<event>
      5   9999  3.19816E-02  7.29605E+01 -1.00000E+00  1.30316E-01
      21    -1     0     0   512   501  0.000000000E+00  0.000000000E+00  7.420551702E+02  7.420551702E+02  0.000000000E+00  0.00000E+00  9.000E+00
      21    -1     0     0   501   502  0.000000000E+00  0.000000000E+00 -4.040488864E+02  4.040488864E+02  0.000000000E+00  0.00000E+00  9.000E+00
      25     1     1     2     0     0  1.250977321E+02  9.352384790E+01  5.137415782E+01  2.065440795E+02  1.250000000E+02  0.00000E+00  9.000E+00
      25     1     1     2     0     0 -1.563771683E+02 -2.760849572E+01 -2.926796686E+02  3.556718097E+02  1.250000000E+02  0.00000E+00  9.000E+00
      21     1     1     2   512   502  3.127943625E+01 -6.591535217E+01  5.793117945E+02  5.838881674E+02  7.629394531E-06  0.00000E+00  9.000E+00
#rwgt            1           1   2.5236191690181622E-002           7      241444           0
</event>
<event>
      5   9999  3.19816E-02  3.73705E+01 -1.00000E+00  1.46696E-01
      21    -1     0     0   511   501  0.000000000E+00  0.000000000E+00  1.133763798E+03  1.133763798E+03  0.000000000E+00  0.00000E+00  9.000E+00
      21    -1     0     0   501   502  0.000000000E+00  0.000000000E+00 -8.483718311E+02  8.483718311E+02  0.000000000E+00  0.00000E+00  9.000E+00
      25     1     1     2     0     0  5.973836169E+02  2.896751071E+02 -5.358560395E+02  8.622908723E+02  1.250000000E+02  0.00000E+00  9.000E+00
      25     1     1     2     0     0 -5.748393949E+02 -3.194796658E+02  6.111269309E+02  9.064263415E+02  1.250000000E+02  0.00000E+00  9.000E+00
      21     1     1     2   511   502 -2.254422200E+01  2.980455870E+01  2.101210757E+02  2.134184156E+02  3.814697266E-06  0.00000E+00  9.000E+00
#rwgt            1           1   3.1976638811977230E-002           7      241534           0
</event>
<event>
      5   9999  3.19816E-02  1.57025E+02 -1.00000E+00  1.15611E-01
      21    -1     0     0   502   501  0.000000000E+00  0.000000000E+00  3.277138143E+02  3.277138143E+02  0.000000000E+00  0.00000E+00  9.000E+00
      21    -1     0     0   512   502  0.000000000E+00  0.000000000E+00 -6.341678919E+02  6.341678919E+02  0.000000000E+00  0.00000E+00  9.000E+00
      25     1     1     2     0     0 -2.063298596E+02  2.260420822E+02 -2.409833138E+02  4.091026661E+02  1.250000000E+02  0.00000E+00  9.000E+00
      25     1     1     2     0     0  3.333134219E+02 -1.336731300E+02  5.895026479E+00  3.802973761E+02  1.250000000E+02  0.00000E+00  9.000E+00
      21     1     1     2   512   501 -1.269835623E+02 -9.236895217E+01 -7.136579022E+01  1.724816640E+02  4.955437110E-06  0.00000E+00  9.000E+00
#rwgt            2          11   4.2565895555062103E-003           7      241778           0
</event>
<event>
      5   9999  3.19816E-02  9.53215E+01 -1.00000E+00  1.24771E-01
      21    -1     0     0   502   501  0.000000000E+00  0.000000000E+00  1.894062612E+02  1.894062612E+02  0.000000000E+00  0.00000E+00  9.000E+00
      21    -1     0     0   501   511  0.000000000E+00  0.000000000E+00 -7.448779122E+02  7.448779122E+02  0.000000000E+00  0.00000E+00  9.000E+00
      25     1     1     2     0     0  1.421696760E+02 -6.583839134E+01 -1.856430966E+02  2.731945641E+02  1.250000000E+02  0.00000E+00  9.000E+00
      25     1     1     2     0     0 -6.691187262E+01  7.336602405E+00  1.051308893E+02  1.766593567E+02  1.250000000E+02  0.00000E+00  9.000E+00
      21     1     1     2   502   511 -7.525780342E+01  5.850178893E+01 -4.749594438E+02  4.844302525E+02  5.394796609E-06  0.00000E+00  9.000E+00
#rwgt            1           1   3.2991188475748917E-002           7      241798           0
</event>
<event>
      5   9999  3.19816E-02  1.16957E+02 -1.00000E+00  1.20844E-01
      21    -1     0     0   502   512  0.000000000E+00  0.000000000E+00  1.107345146E+03  1.107345146E+03  0.000000000E+00  0.00000E+00  9.000E+00
      21    -1     0     0   501   502  0.000000000E+00  0.000000000E+00 -1.045848579E+02  1.045848579E+02  0.000000000E+00  0.00000E+00  9.000E+00
      25     1     1     2     0     0 -1.941599223E+02  1.045424710E+02  6.467181621E+02  6.946197412E+02  1.250000000E+02  0.00000E+00  9.000E+00
      25     1     1     2     0     0  7.746062724E+01 -9.677745615E+01  4.029166399E+01  1.805946926E+02  1.250000000E+02  0.00000E+00  9.000E+00
      21     1     1     2   501   512  1.166992951E+02 -7.765014891E+00  3.157504625E+02  3.367155706E+02  3.814697266E-06  0.00000E+00  9.000E+00
#rwgt            1           1   2.9510469381041994E-002           7      241872           0
</event>
<event>
      5   9999  3.19816E-02  1.08331E+01 -1.00000E+00  1.91824E-01
      21    -1     0     0   502   501  0.000000000E+00  0.000000000E+00  8.960039316E+02  8.960039316E+02  0.000000000E+00  0.00000E+00  9.000E+00
      21    -1     0     0   511   502  0.000000000E+00  0.000000000E+00 -1.351992243E+02  1.351992243E+02  0.000000000E+00  0.00000E+00  9.000E+00
      25     1     1     2     0     0 -8.604783240E+01 -1.168782945E+02  7.984041675E+02  8.210596689E+02  1.250000000E+02  0.00000E+00  9.000E+00
      25     1     1     2     0     0  9.160307765E+01  1.075780242E+02 -4.848943928E+01  1.947829070E+02  1.250000000E+02  0.00000E+00  9.000E+00
      21     1     1     2   511   501 -5.555245243E+00  9.300270237E+00  1.088997905E+01  1.536058006E+01  1.192092896E-07  0.00000E+00  9.000E+00
#rwgt            1           1   2.7979010843936516E-002           7      241941           0
</event>
<event>
      5   9999  3.19816E-02  5.25616E+01 -1.00000E+00  1.37849E-01
      -5    -1     0     0     0   501  0.000000000E+00  0.000000000E+00  1.096377170E+02  1.096377170E+02  0.000000000E+00  0.00000E+00  9.000E+00
      21    -1     0     0   501   502  0.000000000E+00  0.000000000E+00 -1.668295238E+03  1.668295238E+03  0.000000000E+00  0.00000E+00  9.000E+00
      25     1     1     2     0     0  1.792132324E+02 -3.284059475E+02 -8.891163401E+02  9.726873677E+02  1.250000000E+02  0.00000E+00  9.000E+00
      25     1     1     2     0     0 -1.685231911E+02  2.769429368E+02 -6.676523851E+02  7.526500937E+02  1.250000000E+02  0.00000E+00  9.000E+00
      -5     1     1     2     0   502 -1.069004128E+01  5.146301066E+01 -1.888796342E+00  5.259549411E+01  8.958064535E-07  0.00000E+00  9.000E+00
#rwgt            1           1   2.3855521110219796E-002           7      242167           0
</event>
<event>
      5   9999  3.19816E-02  2.62186E+01 -1.00000E+00  1.57218E-01
      21    -1     0     0   502   501  0.000000000E+00  0.000000000E+00  4.560863578E+02  4.560863578E+02  0.000000000E+00  0.00000E+00  9.000E+00
      21    -1     0     0   501   511  0.000000000E+00  0.000000000E+00 -4.726038482E+02  4.726038482E+02  0.000000000E+00  0.00000E+00  9.000E+00
      25     1     1     2     0     0  5.978225276E+01  9.306942117E+00  4.014973683E+02  4.248360550E+02  1.250000000E+02  0.00000E+00  9.000E+00
      25     1     1     2     0     0 -3.895295837E+01 -2.523037618E+01 -6.229943004E+01  1.471737879E+02  1.250000000E+02  0.00000E+00  9.000E+00
      21     1     1     2   502   511 -2.082929439E+01  1.592343406E+01 -3.557154286E+02  3.566803631E+02  5.394796609E-06  0.00000E+00  9.000E+00
#rwgt            1           1   2.6408493222450875E-002           7      242240           0
</event>
<event>
      5   9999  3.19816E-02  1.50902E+02 -1.00000E+00  1.16291E-01
       3    -1     0     0   502     0  0.000000000E+00  0.000000000E+00  6.381832282E+02  6.381832282E+02  0.000000000E+00  0.00000E+00  9.000E+00
      21    -1     0     0   501   502  0.000000000E+00  0.000000000E+00 -8.968526477E+02  8.968526477E+02  0.000000000E+00  0.00000E+00  9.000E+00
      25     1     1     2     0     0  3.457740880E+02  1.339946998E+02 -2.820480468E+02  4.823799335E+02  1.250000000E+02  0.00000E+00  9.000E+00
      25     1     1     2     0     0 -4.683255322E+02 -4.594624066E+01 -3.827979096E+02  6.193537767E+02  1.250000000E+02  0.00000E+00  9.000E+00
       3     1     1     2   501     0  1.225514442E+02 -8.804845910E+01  4.061765370E+02  4.333021657E+02  5.394796609E-06  0.00000E+00  9.000E+00
#rwgt            2          19   1.0476660124529901E-004           7      242413           0
</event>
<event>
      5   9999  3.19816E-02  3.08394E+01 -1.00000E+00  1.52212E-01
      21    -1     0     0   502   501  0.000000000E+00  0.000000000E+00  7.764900389E+01  7.764900389E+01  0.000000000E+00  0.00000E+00  9.000E+00
      21    -1     0     0   501   511  0.000000000E+00  0.000000000E+00 -2.098245725E+03  2.098245725E+03  0.000000000E+00  0.00000E+00  9.000E+00
      25     1     1     2     0     0 -5.236111499E+01  1.692713178E+02 -6.900024788E+02  7.232723457E+02  1.250000000E+02  0.00000E+00  9.000E+00
      25     1     1     2     0     0  8.171286943E+01 -1.598086051E+02 -1.358498353E+02  2.574800206E+02  1.250000000E+02  0.00000E+00  9.000E+00
      21     1     1     2   502   511 -2.935175444E+01 -9.462712770E+00 -1.194744407E+03  1.195142362E+03  1.525878906E-05  0.00000E+00  9.000E+00
#rwgt            1           1   2.9267335652276086E-002           7      242432           0
</event>
<event>
      5   9999  3.19816E-02  7.70107E+01 -1.00000E+00  1.29155E-01
      21    -1     0     0   502   501  0.000000000E+00  0.000000000E+00  4.909509327E+02  4.909509327E+02  0.000000000E+00  0.00000E+00  9.000E+00
      21    -1     0     0   512   502  0.000000000E+00  0.000000000E+00 -1.368332125E+03  1.368332125E+03  0.000000000E+00  0.00000E+00  9.000E+00
      25     1     1     2     0     0 -5.109573737E+02 -1.468253679E+02  2.016416368E+02  5.821679105E+02  1.250000000E+02  0.00000E+00  9.000E+00
      25     1     1     2     0     0  5.413891235E+02  7.608247618E+01 -7.346892102E+02  9.242748302E+02  1.250000000E+02  0.00000E+00  9.000E+00
      21     1     1     2   512   501 -3.043174982E+01  7.074289174E+01 -3.443336185E+02  3.528403165E+02  6.607249480E-06  0.00000E+00  9.000E+00
#rwgt            1           1   3.1003262445325738E-002           7      242585           0
</event>
<event>
      5   9999  3.19816E-02  2.65533E+01 -1.00000E+00  1.56815E-01
      21    -1     0     0   502   501  0.000000000E+00  0.000000000E+00  3.885616860E+03  3.885616860E+03  0.000000000E+00  0.00000E+00  9.000E+00
      21    -1     0     0   501   511  0.000000000E+00  0.000000000E+00 -4.036351651E+01  4.036351651E+01  0.000000000E+00  0.00000E+00  9.000E+00
      25     1     1     2     0     0  3.258882424E+02  1.212835851E+02  2.134742526E+03  2.166486443E+03  1.250000000E+02  0.00000E+00  9.000E+00
      25     1     1     2     0     0 -3.038018102E+02 -1.360235257E+02  1.686889869E+03  1.723954863E+03  1.250000000E+02  0.00000E+00  9.000E+00
      21     1     1     2   502   511 -2.208643217E+01  1.473994057E+01  2.362094817E+01  3.553907042E+01  0.000000000E+00  0.00000E+00  9.000E+00
#rwgt            1           1   8.7560938579935785E-003           7      242696           0
</event>
<event>
      5   9999  3.19816E-02  8.79112E+01 -1.00000E+00  1.26398E-01
      21    -1     0     0   502   501  0.000000000E+00  0.000000000E+00  1.403725926E+02  1.403725926E+02  0.000000000E+00  0.00000E+00  9.000E+00
       2    -1     0     0   501     0  0.000000000E+00  0.000000000E+00 -8.939573422E+02  8.939573422E+02  0.000000000E+00  0.00000E+00  9.000E+00
      25     1     1     2     0     0  4.532681399E+01 -2.894572115E+02 -5.100020765E+02  6.013045114E+02  1.250000000E+02  0.00000E+00  9.000E+00
      25     1     1     2     0     0  2.655529608E+00  2.157953241E+02 -1.087786326E+02  2.720890749E+02  1.250000000E+02  0.00000E+00  9.000E+00
       2     1     1     2   502     0 -4.798234359E+01  7.366188744E+01 -1.348040405E+02  1.609363486E+02  2.697398305E-06  0.00000E+00  9.000E+00
#rwgt            1           1   2.7315364411222863E-002           7      242799           0
</event>
<event>
      5   9999  3.19816E-02  1.90688E+02 -1.00000E+00  1.12407E-01
      21    -1     0     0   502   501  0.000000000E+00  0.000000000E+00  8.396102231E+02  8.396102231E+02  0.000000000E+00  0.00000E+00  9.000E+00
      -4    -1     0     0     0   502  0.000000000E+00  0.000000000E+00 -1.091935925E+02  1.091935925E+02  0.000000000E+00  0.00000E+00  9.000E+00
      25     1     1     2     0     0  2.300740322E+01  8.221764334E+01  2.800367911E+02  3.183310947E+02  1.250000000E+02  0.00000E+00  9.000E+00
      25     1     1     2     0     0 -2.109502698E+02 -4.997723665E+01  2.447984583E+02  3.500700297E+02  1.250000000E+02  0.00000E+00  9.000E+00
      -4     1     1     2     0   501  1.879428666E+02 -3.224040670E+01  2.055813813E+02  2.804026912E+02  4.672030912E-06  0.00000E+00  9.000E+00
#rwgt            1           1   2.9856457153765021E-002           7      242871           0
</event>
<event>
      5   9999  3.19816E-02  2.67529E+01 -1.00000E+00  1.56578E-01
      21    -1     0     0   502   501  0.000000000E+00  0.000000000E+00  1.264484619E+02  1.264484619E+02  0.000000000E+00  0.00000E+00  9.000E+00
      21    -1     0     0   501   511  0.000000000E+00  0.000000000E+00 -1.151425019E+03  1.151425019E+03  0.000000000E+00  0.00000E+00  9.000E+00
      25     1     1     2     0     0 -3.267837342E+02  3.927599678E+01 -6.856160535E+02  7.707299045E+02  1.250000000E+02  0.00000E+00  9.000E+00
      25     1     1     2     0     0  3.010804968E+02 -3.185581594E+01 -2.449359629E+02  4.090023038E+02  1.250000000E+02  0.00000E+00  9.000E+00
      21     1     1     2   502   511  2.570323742E+01 -7.420180849E+00 -9.442454047E+01  9.814127236E+01  0.000000000E+00  0.00000E+00  9.000E+00
#rwgt            1           1   3.0477911754830018E-002           7      242916           0
</event>
<event>
      5   9999  3.19816E-02  4.22020E+01 -1.00000E+00  1.43411E-01
      21    -1     0     0   502   501  0.000000000E+00  0.000000000E+00  3.619025333E+02  3.619025333E+02  0.000000000E+00  0.00000E+00  9.000E+00
      21    -1     0     0   512   502  0.000000000E+00  0.000000000E+00 -7.521397933E+02  7.521397933E+02  0.000000000E+00  0.00000E+00  9.000E+00
      25     1     1     2     0     0  3.599460870E+00  7.887624184E+01  3.276253203E+02  3.594409105E+02  1.250000000E+02  0.00000E+00  9.000E+00
      25     1     1     2     0     0 -2.096691236E+01 -4.041352835E+01 -6.929297973E+02  7.055845581E+02  1.250000000E+02  0.00000E+00  9.000E+00
      21     1     1     2   512   501  1.736745149E+01 -3.846271349E+01 -2.493278299E+01  4.901685800E+01  7.539457465E-07  0.00000E+00  9.000E+00
#rwgt            1           1   3.1969624777041031E-002           7      243105           0
</event>
<event>
      5   9999  3.19816E-02  1.77655E+02 -1.00000E+00  1.13554E-01
      21    -1     0     0   502   511  0.000000000E+00  0.000000000E+00  4.051134976E+02  4.051134976E+02  0.000000000E+00  0.00000E+00  9.000E+00
      21    -1     0     0   501   502  0.000000000E+00  0.000000000E+00 -1.236146308E+03  1.236146308E+03  0.000000000E+00  0.00000E+00  9.000E+00
      25     1     1     2     0     0 -5.726199557E+02 -4.741644301E+01 -4.062467099E+02  7.147050594E+02  1.250000000E+02  0.00000E+00  9.000E+00
      25     1     1     2     0     0  4.836790346E+02 -1.063719157E+02 -5.166899852E+02  7.265355696E+02  1.250000000E+02  0.00000E+00  9.000E+00
      21     1     1     2   501   511  8.894092105E+01  1.537883587E+02  9.190388523E+01  2.000191761E+02  1.907348633E-06  0.00000E+00  9.000E+00
#rwgt            1           1   2.9402407041099362E-002           7      243300           0
</event>
<event>
      5   9999  3.19816E-02  8.14756E+01 -1.00000E+00  1.27966E-01
      21    -1     0     0   512   501  0.000000000E+00  0.000000000E+00  3.727273366E+03  3.727273366E+03  0.000000000E+00  0.00000E+00  9.000E+00
      21    -1     0     0   501   502  0.000000000E+00  0.000000000E+00 -1.466728466E+02  1.466728466E+02  0.000000000E+00  0.00000E+00  9.000E+00
      25     1     1     2     0     0  2.381399081E+02 -5.086096625E+02  6.023646446E+02  8.329841353E+02  1.250000000E+02  0.00000E+00  9.000E+00
      25     1     1     2     0     0 -2.749642055E+02  4.359306458E+02  2.476117751E+03  2.532276636E+03  1.250000000E+02  0.00000E+00  9.000E+00
      21     1     1     2   512   502  3.682429732E+01  7.267901667E+01  5.021181237E+02  5.086854415E+02  1.078959322E-05  0.00000E+00  9.000E+00
#rwgt            2          11   2.2879355309972237E-003           7      243379           0
</event>
<event>
      5   9999  3.19816E-02  1.28768E+02 -1.00000E+00  1.19083E-01
      21    -1     0     0   511   501  0.000000000E+00  0.000000000E+00  2.066367122E+02  2.066367122E+02  0.000000000E+00  0.00000E+00  9.000E+00
      21    -1     0     0   501   502  0.000000000E+00  0.000000000E+00 -5.949693470E+02  5.949693470E+02  0.000000000E+00  0.00000E+00  9.000E+00
      25     1     1     2     0     0  7.581169960E+01  5.533831446E+01 -2.813216852E+02  3.218332385E+02  1.250000000E+02  0.00000E+00  9.000E+00
      25     1     1     2     0     0 -1.514681730E+02 -1.595366838E+02 -1.986837346E+02  3.217060573E+02  1.250000000E+02  0.00000E+00  9.000E+00
      21     1     1     2   511   502  7.565647340E+01  1.041983694E+02  9.167278502E+01  1.580667633E+02  2.336015456E-06  0.00000E+00  9.000E+00
#rwgt            2          11   3.4258843728067132E-003           7      243429           0
</event>
<event>
      5   9999  3.19816E-02  1.13478E+01 -1.00000E+00  1.89616E-01
      21    -1     0     0   502   512  0.000000000E+00  0.000000000E+00  1.364607065E+02  1.364607065E+02  0.000000000E+00  0.00000E+00  9.000E+00
      21    -1     0     0   501   502  0.000000000E+00  0.000000000E+00 -6.819152061E+02  6.819152061E+02  0.000000000E+00  0.00000E+00  9.000E+00
      25     1     1     2     0     0 -1.018336979E+02  5.083084188E+01 -5.556850054E+02  5.808310441E+02  1.250000000E+02  0.00000E+00  9.000E+00
      25     1     1     2     0     0  9.912909907E+01 -3.981002905E+01 -5.342242583E+01  1.728883231E+02  1.250000000E+02  0.00000E+00  9.000E+00
      21     1     1     2   501   512  2.704598822E+00 -1.102081282E+01  6.365293158E+01  6.465654544E+01  2.431401974E-06  0.00000E+00  9.000E+00
#rwgt            1           1   2.8087147302445666E-002           7      243449           0
</event>
<event>
      5   9999  3.19816E-02  2.28215E+01 -1.00000E+00  1.61775E-01
      21    -1     0     0   502   501  0.000000000E+00  0.000000000E+00  6.552031443E+02  6.552031443E+02  0.000000000E+00  0.00000E+00  9.000E+00
      21    -1     0     0   501   511  0.000000000E+00  0.000000000E+00 -1.821566889E+03  1.821566889E+03  0.000000000E+00  0.00000E+00  9.000E+00
      25     1     1     2     0     0 -2.986464986E+02  6.786497180E+01  2.152508250E+02  3.946559301E+02  1.250000000E+02  0.00000E+00  9.000E+00
      25     1     1     2     0     0  2.770131953E+02 -6.059715620E+01  2.816098453E+02  4.187331259E+02  1.250000000E+02  0.00000E+00  9.000E+00
      21     1     1     2   502   511  2.163330329E+01 -7.267815602E+00 -1.663224415E+03  1.663380977E+03  2.157918644E-05  0.00000E+00  9.000E+00
#rwgt            1           1   3.1047546931284725E-002           7      243649           0
</event>
<event>
      5   9999  3.19816E-02  2.19841E+01 -1.00000E+00  1.63050E-01
      21    -1     0     0   502   501  0.000000000E+00  0.000000000E+00  2.859491055E+02  2.859491055E+02  0.000000000E+00  0.00000E+00  9.000E+00
      -3    -1     0     0     0   502  0.000000000E+00  0.000000000E+00 -7.131002556E+02  7.131002556E+02  0.000000000E+00  0.00000E+00  9.000E+00
      25     1     1     2     0     0 -1.107809481E+02  1.064109735E+01 -9.423969359E+01  1.920723074E+02  1.250000000E+02  0.00000E+00  9.000E+00
      25     1     1     2     0     0  9.703258252E+01  6.513587296E+00  2.103307032E+02  2.632902459E+02  1.250000000E+02  0.00000E+00  9.000E+00
      -3     1     1     2     0   501  1.374836556E+01 -1.715468465E+01 -5.432421598E+02  5.436868078E+02  0.000000000E+00  0.00000E+00  9.000E+00
#rwgt            1           1   3.2563594897237584E-002           7      243792           0
</event>
<event>
      5   9999  3.19816E-02  2.90660E+01 -1.00000E+00  1.54000E-01
      21    -1     0     0   502   511  0.000000000E+00  0.000000000E+00  4.519722358E+02  4.519722358E+02  0.000000000E+00  0.00000E+00  9.000E+00
      21    -1     0     0   501   502  0.000000000E+00  0.000000000E+00 -3.245813172E+02  3.245813172E+02  0.000000000E+00  0.00000E+00  9.000E+00
      25     1     1     2     0     0  2.791412140E+02 -1.376166724E+02 -1.110903570E+02  3.533047315E+02  1.250000000E+02  0.00000E+00  9.000E+00
      25     1     1     2     0     0 -2.514298208E+02  1.463864929E+02  1.981777889E+02  3.735577546E+02  1.250000000E+02  0.00000E+00  9.000E+00
      21     1     1     2   501   511 -2.771139329E+01 -8.769820482E+00  4.030348681E+01  4.969106679E+01  6.743495762E-07  0.00000E+00  9.000E+00
#rwgt            1           1   3.4586559902433936E-002           7      243921           0
</event>
<event>
      5   9999  3.80467E-02  1.84595E+01 -1.00000E+00  1.69293E-01
      21    -1     0     0   502   512  0.000000000E+00  0.000000000E+00  9.837653626E+02  9.837653626E+02  0.000000000E+00  0.00000E+00  9.000E+00
      21    -1     0     0   501   502  0.000000000E+00  0.000000000E+00 -2.539104887E+02  2.539104887E+02  0.000000000E+00  0.00000E+00  9.000E+00
      25     1     1     2     0     0 -4.368959235E+02 -1.679177220E+02  2.860030260E+02  5.625807855E+02  1.250000000E+02  0.00000E+00  9.000E+00
      25     1     1     2     0     0  4.447810397E+02  1.512270315E+02  4.075412367E+02  6.343616066E+02  1.250000000E+02  0.00000E+00  9.000E+00
      21     1     1     2   501   512 -7.885116184E+00  1.669069053E+01  3.631061123E+01  4.073345916E+01  6.743495762E-07  0.00000E+00  9.000E+00
#rwgt            1           1   3.7648817912765115E-002           7      244061           0
</event>
<event>
      5   9999  3.19816E-02  1.00770E+02 -1.00000E+00  1.23678E-01
      21    -1     0     0   502   501  0.000000000E+00  0.000000000E+00  4.226338729E+02  4.226338729E+02  0.000000000E+00  0.00000E+00  9.000E+00
      21    -1     0     0   501   511  0.000000000E+00  0.000000000E+00 -5.626975530E+02  5.626975530E+02  0.000000000E+00  0.00000E+00  9.000E+00
      25     1     1     2     0     0 -3.209836078E+02  2.864310142E+02 -6.760125916E+01  4.530652630E+02  1.250000000E+02  0.00000E+00  9.000E+00
      25     1     1     2     0     0  2.529634444E+02 -2.120809991E+02  6.792649283E+01  3.594549524E+02  1.250000000E+02  0.00000E+00  9.000E+00
      21     1     1     2   502   511  6.802016335E+01 -7.435001501E+01 -1.403889137E+02  1.728112104E+02  0.000000000E+00  0.00000E+00  9.000E+00
#rwgt            1           1   3.1298119233380592E-002           7      244229           0
</event>
<event>
      5   9999  3.19816E-02  1.13505E+02 -1.00000E+00  1.21403E-01
      21    -1     0     0   502   501  0.000000000E+00  0.000000000E+00  4.448686216E+02  4.448686216E+02  0.000000000E+00  0.00000E+00  9.000E+00
      21    -1     0     0   512   502  0.000000000E+00  0.000000000E+00 -1.079933515E+03  1.079933515E+03  0.000000000E+00  0.00000E+00  9.000E+00
      25     1     1     2     0     0 -3.321689302E+02  5.310603955E+02 -4.937935251E+02  8.073527032E+02  1.250000000E+02  0.00000E+00  9.000E+00
      25     1     1     2     0     0  3.528496377E+02 -4.194551552E+02 -3.716034204E+01  5.634282431E+02  1.250000000E+02  0.00000E+00  9.000E+00
      21     1     1     2   512   501 -2.068070749E+01 -1.116052403E+02 -1.041110264E+02  1.540211906E+02  2.697398305E-06  0.00000E+00  9.000E+00
#rwgt            1           1   2.9518291753611633E-002           7      244261           0
</event>
<event>
      5   9999  3.19816E-02  1.03541E+02 -1.00000E+00  1.23152E-01
      21    -1     0     0   502   501  0.000000000E+00  0.000000000E+00  7.484109470E+02  7.484109470E+02  0.000000000E+00  0.00000E+00  9.000E+00
      21    -1     0     0   511   502  0.000000000E+00  0.000000000E+00 -7.355762543E+02  7.355762543E+02  0.000000000E+00  0.00000E+00  9.000E+00
      25     1     1     2     0     0 -1.359021121E+02  6.092402541E+01  6.320860589E+02  6.613160415E+02  1.250000000E+02  0.00000E+00  9.000E+00
      25     1     1     2     0     0  6.420514690E+01 -1.356252034E+02 -4.824193419E-01  1.952990769E+02  1.250000000E+02  0.00000E+00  9.000E+00
      21     1     1     2   511   501  7.169696516E+01  7.470117803E+01 -6.187689469E+02  6.273720829E+02  7.629394531E-06  0.00000E+00  9.000E+00
#rwgt            1           1   2.7815167373912344E-002           7      244347           0
</event>
<event>
      5   9999  3.19816E-02  8.87581E+00 -1.00000E+00  2.01941E-01
      21    -1     0     0   502   512  0.000000000E+00  0.000000000E+00  5.008574919E+02  5.008574919E+02  0.000000000E+00  0.00000E+00  9.000E+00
      21    -1     0     0   501   502  0.000000000E+00  0.000000000E+00 -8.165937947E+01  8.165937947E+01  0.000000000E+00  0.00000E+00  9.000E+00
      25     1     1     2     0     0 -1.765076235E+01 -5.713426170E+01  2.895554734E+02  3.210034975E+02  1.250000000E+02  0.00000E+00  9.000E+00
      25     1     1     2     0     0  2.639298158E+01  5.560009292E+01  8.013332201E+00  1.395606438E+02  1.250000000E+02  0.00000E+00  9.000E+00
      21     1     1     2   501   512 -8.742219232E+00  1.534168779E+00  1.216293068E+02  1.219527300E+02  1.907348633E-06  0.00000E+00  9.000E+00
#rwgt            1           1   2.4997532966909070E-002           7      244383           0
</event>
<event>
      5   9999  3.19816E-02  1.00896E+02 -1.00000E+00  1.23654E-01
       2    -1     0     0   502     0  0.000000000E+00  0.000000000E+00  1.815749965E+03  1.815749965E+03  0.000000000E+00  0.00000E+00  9.000E+00
      21    -1     0     0   501   502  0.000000000E+00  0.000000000E+00 -1.460047282E+02  1.460047282E+02  0.000000000E+00  0.00000E+00  9.000E+00
      25     1     1     2     0     0  2.403706214E+02  1.418738219E+00  1.007395335E+03  1.043192413E+03  1.250000000E+02  0.00000E+00  9.000E+00
      25     1     1     2     0     0 -1.893959589E+02  8.565379871E+01 -6.011211338E+00  2.426283931E+02  1.250000000E+02  0.00000E+00  9.000E+00
       2     1     1     2   501     0 -5.097466257E+01 -8.707253693E+01  6.683611131E+02  6.759338876E+02  0.000000000E+00  0.00000E+00  9.000E+00
#rwgt            1           1   2.8014690448293619E-002           7      244528           0
</event>
<event>
      5   9999  3.19816E-02  1.73164E+02 -1.00000E+00  1.13974E-01
       2    -1     0     0   502     0  0.000000000E+00  0.000000000E+00  1.766422769E+03  1.766422769E+03  0.000000000E+00  0.00000E+00  9.000E+00
      21    -1     0     0   501   502  0.000000000E+00  0.000000000E+00 -4.978202994E+02  4.978202994E+02  0.000000000E+00  0.00000E+00  9.000E+00
      25     1     1     2     0     0  1.470098767E+02  3.410025814E+02 -2.791129140E+02  4.810651547E+02  1.250000000E+02  0.00000E+00  9.000E+00
      25     1     1     2     0     0 -2.114524773E+01 -2.220749202E+02  3.212076176E+01  2.577229812E+02  1.250000000E+02  0.00000E+00  9.000E+00
       2     1     1     2   501     0 -1.258646289E+02 -1.189276611E+02  1.515594622E+03  1.525454933E+03  3.051757812E-05  0.00000E+00  9.000E+00
#rwgt            2          18   4.5392832359675223E-003           7      244780           0
</event>
<event>
      5   9999  3.19816E-02  8.85032E+01 -1.00000E+00  1.26261E-01
      21    -1     0     0   502   501  0.000000000E+00  0.000000000E+00  2.667474269E+02  2.667474269E+02  0.000000000E+00  0.00000E+00  9.000E+00
       2    -1     0     0   501     0  0.000000000E+00  0.000000000E+00 -6.235549697E+02  6.235549697E+02  0.000000000E+00  0.00000E+00  9.000E+00
      25     1     1     2     0     0  2.431731001E+00  4.966850505E+01 -5.265199846E+02  5.434346031E+02  1.250000000E+02  0.00000E+00  9.000E+00
      25     1     1     2     0     0 -2.895434144E+01  3.476712126E+01  2.108598625E+02  2.492669016E+02  1.250000000E+02  0.00000E+00  9.000E+00
       2     1     1     2   502     0  2.652261044E+01 -8.443562631E+01 -4.114742070E+01  9.760089183E+01  1.430511475E-06  0.00000E+00  9.000E+00
#rwgt            1           1   2.7761964869210391E-002           7      244829           0
</event>
<event>
      5   9999  3.19816E-02  1.27294E+01 -1.00000E+00  1.84373E-01
      21    -1     0     0   502   501  0.000000000E+00  0.000000000E+00  3.154804547E+02  3.154804547E+02  0.000000000E+00  0.00000E+00  9.000E+00
      21    -1     0     0   501   511  0.000000000E+00  0.000000000E+00 -3.109478080E+02  3.109478080E+02  0.000000000E+00  0.00000E+00  9.000E+00
      25     1     1     2     0     0  7.423007802E+01 -1.987781520E+02  1.797415326E+02  3.048850222E+02  1.250000000E+02  0.00000E+00  9.000E+00
      25     1     1     2     0     0 -8.591079014E+01  1.937185361E+02 -1.377289928E+02  2.819606543E+02  1.250000000E+02  0.00000E+00  9.000E+00
      21     1     1     2   502   511  1.168071212E+01  5.059615867E+00 -3.747989308E+01  3.958258625E+01  4.768371582E-07  0.00000E+00  9.000E+00
#rwgt            1           1   2.3011320746798146E-002           7      244944           0
</event>
<event>
      5   9999  3.19816E-02  9.50411E+00 -1.00000E+00  1.98346E-01
      21    -1     0     0   502   501  0.000000000E+00  0.000000000E+00  2.848879652E+02  2.848879652E+02  0.000000000E+00  0.00000E+00  9.000E+00
      21    -1     0     0   512   502  0.000000000E+00  0.000000000E+00 -1.216698383E+03  1.216698383E+03  0.000000000E+00  0.00000E+00  9.000E+00
      25     1     1     2     0     0  2.208065065E+02  1.306964126E+02  1.773717937E+02  3.360399065E+02  1.250000000E+02  0.00000E+00  9.000E+00
      25     1     1     2     0     0 -2.271782809E+02 -1.377482694E+02 -7.382884055E+02  7.945308847E+02  1.250000000E+02  0.00000E+00  9.000E+00
      21     1     1     2   512   501  6.371774419E+00  7.051856865E+00 -3.708938056E+02  3.710155566E+02  5.394796609E-06  0.00000E+00  9.000E+00
#rwgt            1           1   2.8819190917755973E-002           7      245118           0
</event>
<event>
      5   9999  3.19816E-02  1.12991E+02 -1.00000E+00  1.21488E-01
      21    -1     0     0   502   501  0.000000000E+00  0.000000000E+00  2.310689413E+02  2.310689413E+02  0.000000000E+00  0.00000E+00  9.000E+00
      21    -1     0     0   511   502  0.000000000E+00  0.000000000E+00 -1.483128344E+03  1.483128344E+03  0.000000000E+00  0.00000E+00  9.000E+00
      25     1     1     2     0     0  1.229930715E+02  1.680429904E+02  1.439643923E+02  2.823410854E+02  1.250000000E+02  0.00000E+00  9.000E+00
      25     1     1     2     0     0 -1.102054659E+01 -1.529068950E+02 -1.028766058E+03  1.047609933E+03  1.250000000E+02  0.00000E+00  9.000E+00
      21     1     1     2   511   501 -1.119725250E+02 -1.513609532E+01 -3.672577370E+02  3.842462662E+02  0.000000000E+00  0.00000E+00  9.000E+00
#rwgt            1           1   2.8951437208772430E-002           7      245485           0
</event>
<event>
      5   9999  3.19816E-02  7.08088E+01 -1.00000E+00  1.30968E-01
      21    -1     0     0   502   501  0.000000000E+00  0.000000000E+00  1.748068286E+02  1.748068286E+02  0.000000000E+00  0.00000E+00  9.000E+00
       2    -1     0     0   501     0  0.000000000E+00  0.000000000E+00 -5.289023912E+02  5.289023912E+02  0.000000000E+00  0.00000E+00  9.000E+00
      25     1     1     2     0     0  1.725578694E+02  3.239524867E+01 -2.658200461E+02  3.422147971E+02  1.250000000E+02  0.00000E+00  9.000E+00
      25     1     1     2     0     0 -2.419365387E+02 -4.655468768E+01 -9.030800402E+01  2.906564352E+02  1.250000000E+02  0.00000E+00  9.000E+00
       2     1     1     2   502     0  6.937866931E+01  1.415943901E+01  2.032487601E+00  7.083798750E+01  1.863062335E-06  0.00000E+00  9.000E+00
#rwgt            1           1   2.9287354275175738E-002           7      245525           0
</event>
<event>
      5   9999  3.19816E-02  7.68584E+01 -1.00000E+00  1.29197E-01
      21    -1     0     0   511   501  0.000000000E+00  0.000000000E+00  1.636739835E+03  1.636739835E+03  0.000000000E+00  0.00000E+00  9.000E+00
      21    -1     0     0   501   502  0.000000000E+00  0.000000000E+00 -9.131072406E+01  9.131072406E+01  0.000000000E+00  0.00000E+00  9.000E+00
      25     1     1     2     0     0 -2.344342040E+02 -1.664888208E+02  3.253407476E+02  4.518290888E+02  1.250000000E+02  0.00000E+00  9.000E+00
      25     1     1     2     0     0  2.529262966E+02  9.188815827E+01  1.000497667E+03  1.043568746E+03  1.250000000E+02  0.00000E+00  9.000E+00
      21     1     1     2   511   502 -1.849209263E+01  7.460066254E+01  2.195906961E+02  2.326527243E+02  0.000000000E+00  0.00000E+00  9.000E+00
#rwgt            1           1   2.4508680855628906E-002           7      245632           0
</event>
<event>
      5   9999  3.19816E-02  2.34460E+01 -1.00000E+00  1.60867E-01
      21    -1     0     0   502   512  0.000000000E+00  0.000000000E+00  9.083492953E+01  9.083492953E+01  0.000000000E+00  0.00000E+00  9.000E+00
      21    -1     0     0   501   502  0.000000000E+00  0.000000000E+00 -2.094418808E+03  2.094418808E+03  0.000000000E+00  0.00000E+00  9.000E+00
      25     1     1     2     0     0  2.594694125E+02  1.323965391E+02 -1.683508521E+03  1.713090529E+03  1.250000000E+02  0.00000E+00  9.000E+00
      25     1     1     2     0     0 -2.526414903E+02 -1.548263269E+02 -2.834800386E+02  4.287013487E+02  1.250000000E+02  0.00000E+00  9.000E+00
      21     1     1     2   501   512 -6.827922201E+00  2.242978780E+01 -3.659531827E+01  4.346185939E+01  8.259061849E-07  0.00000E+00  9.000E+00
#rwgt            1           1   2.8390318501355979E-002           7      245717           0
</event>
<event>
      5   9999  3.19816E-02  1.86954E+01 -1.00000E+00  1.68823E-01
      21    -1     0     0   502   511  0.000000000E+00  0.000000000E+00  8.774454242E+01  8.774454242E+01  0.000000000E+00  0.00000E+00  9.000E+00
      21    -1     0     0   501   502  0.000000000E+00  0.000000000E+00 -1.484605335E+03  1.484605335E+03  0.000000000E+00  0.00000E+00  9.000E+00
      25     1     1     2     0     0 -4.027699572E+00 -1.201772148E+02 -1.881945152E+01  1.744647732E+02  1.250000000E+02  0.00000E+00  9.000E+00
      25     1     1     2     0     0 -1.440706101E+01  1.232879152E+02 -1.361721206E+03  1.373068504E+03  1.250000000E+02  0.00000E+00  9.000E+00
      21     1     1     2   501   511  1.843476058E+01 -3.110700450E+00 -1.632013558E+01  2.481660090E+01  4.768371582E-07  0.00000E+00  9.000E+00
#rwgt            1           1   3.5621932388535428E-002           7      245898           0
</event>
<event>
      5   9999  3.19816E-02  2.77307E+01 -1.00000E+00  1.55451E-01
      21    -1     0     0   512   501  0.000000000E+00  0.000000000E+00  2.803453812E+02  2.803453812E+02  0.000000000E+00  0.00000E+00  9.000E+00
      21    -1     0     0   501   502  0.000000000E+00  0.000000000E+00 -9.471110784E+02  9.471110784E+02  0.000000000E+00  0.00000E+00  9.000E+00
      25     1     1     2     0     0 -1.066367973E+02  4.839830860E+02 -3.233934970E+02  6.048300488E+02  1.250000000E+02  0.00000E+00  9.000E+00
      25     1     1     2     0     0  1.168154646E+02 -4.581880067E+02 -3.376304863E+02  5.943075361E+02  1.250000000E+02  0.00000E+00  9.000E+00
      21     1     1     2   512   502 -1.017866730E+01 -2.579507927E+01 -5.741714005E+00  2.831887467E+01  4.298152060E-07  0.00000E+00  9.000E+00
#rwgt            1           1   2.3472046348057402E-002           7      246038           0
</event>
<event>
      5   9999  3.19816E-02  5.66674E+01 -1.00000E+00  1.36043E-01
      21    -1     0     0   502   501  0.000000000E+00  0.000000000E+00  1.325852918E+02  1.325852918E+02  0.000000000E+00  0.00000E+00  9.000E+00
       2    -1     0     0   501     0  0.000000000E+00  0.000000000E+00 -2.098404362E+03  2.098404362E+03  0.000000000E+00  0.00000E+00  9.000E+00
      25     1     1     2     0     0  1.889487423E+02 -4.624652363E+01 -6.097854334E+00  2.313061867E+02  1.250000000E+02  0.00000E+00  9.000E+00
      25     1     1     2     0     0 -1.849070675E+02  1.027695946E+02 -7.623299048E+02  8.009519942E+02  1.250000000E+02  0.00000E+00  9.000E+00
       2     1     1     2   502     0 -4.041674761E+00 -5.652307101E+01 -1.197391311E+03  1.198731473E+03  0.000000000E+00  0.00000E+00  9.000E+00
#rwgt            1           1   2.8890978927517508E-002           7      246155           0
</event>
<event>
      5   9999  3.19816E-02  4.34173E+01 -1.00000E+00  1.42666E-01
      21    -1     0     0   502   501  0.000000000E+00  0.000000000E+00  1.241168324E+03  1.241168324E+03  0.000000000E+00  0.00000E+00  9.000E+00
      21    -1     0     0   501   511  0.000000000E+00  0.000000000E+00 -9.939475406E+02  9.939475406E+02  0.000000000E+00  0.00000E+00  9.000E+00
      25     1     1     2     0     0  4.668892934E+02 -8.307466239E+02  6.716799102E+02  1.172563204E+03  1.250000000E+02  0.00000E+00  9.000E+00
      25     1     1     2     0     0 -4.363961644E+02  7.998397648E+02 -3.662249616E+02  9.899146348E+02  1.250000000E+02  0.00000E+00  9.000E+00
      21     1     1     2   502   511 -3.049312901E+01  3.090685910E+01 -5.823416507E+01  7.263802611E+01  1.168007728E-06  0.00000E+00  9.000E+00
#rwgt            1           1   3.1305385792579590E-002           7      246257           0
</event>
<event>
      5   9999  3.19816E-02  1.08215E+02 -1.00000E+00  1.22305E-01
      21    -1     0     0   502   501  0.000000000E+00  0.000000000E+00  1.311655001E+02  1.311655001E+02  0.000000000E+00  0.00000E+00  9.000E+00
      21    -1     0     0   501   512  0.000000000E+00  0.000000000E+00 -7.470723845E+02  7.470723845E+02  0.000000000E+00  0.00000E+00  9.000E+00
      25     1     1     2     0     0  4.025177725E+01  1.642904708E+02 -5.948395937E+01  2.185747144E+02  1.250000000E+02  0.00000E+00  9.000E+00
      25     1     1     2     0     0  6.217765626E+01 -1.992018348E+02 -4.220486090E+02  4.871318715E+02  1.250000000E+02  0.00000E+00  9.000E+00
      21     1     1     2   502   512 -1.024294335E+02  3.491136398E+01 -1.343743160E+02  1.725312986E+02  1.907348633E-06  0.00000E+00  9.000E+00
#rwgt            1           1   2.7696242571589876E-002           7      246460           0
</event>
<event>
      5   9999  3.19816E-02  2.05497E+01 -1.00000E+00  1.65403E-01
      21    -1     0     0   502   511  0.000000000E+00  0.000000000E+00  7.351990550E+02  7.351990550E+02  0.000000000E+00  0.00000E+00  9.000E+00
      21    -1     0     0   501   502  0.000000000E+00  0.000000000E+00 -4.768230065E+01  4.768230065E+01  0.000000000E+00  0.00000E+00  9.000E+00
      25     1     1     2     0     0 -5.904191699E+01 -7.454795363E+01  2.000910460E+02  2.543713271E+02  1.250000000E+02  0.00000E+00  9.000E+00
      25     1     1     2     0     0  6.796833070E+01  5.603829311E+01  2.714647596E+02  3.115735868E+02  1.250000000E+02  0.00000E+00  9.000E+00
      21     1     1     2   501   511 -8.926413705E+00  1.850966053E+01  2.159609488E+02  2.169364418E+02  0.000000000E+00  0.00000E+00  9.000E+00
#rwgt            1           1   6.3050584476131474E-002           7      246524           0
</event>
<event>
      5   9999  3.19816E-02  1.72167E+02 -1.00000E+00  1.14070E-01
      21    -1     0     0   502   501  0.000000000E+00  0.000000000E+00  1.447287491E+02  1.447287491E+02  0.000000000E+00  0.00000E+00  9.000E+00
       2    -1     0     0   501     0  0.000000000E+00  0.000000000E+00 -3.662777996E+03  3.662777996E+03  0.000000000E+00  0.00000E+00  9.000E+00
      25     1     1     2     0     0 -7.151433274E+01  4.511796784E+02 -2.686015368E+03  2.727449533E+03  1.250000000E+02  0.00000E+00  9.000E+00
      25     1     1     2     0     0  1.239980523E+02 -2.872072618E+02 -1.364203111E+02  3.634543018E+02  1.250000000E+02  0.00000E+00  9.000E+00
       2     1     1     2   502     0 -5.248371958E+01 -1.639724165E+02 -6.956135682E+02  7.166029099E+02  1.321449896E-05  0.00000E+00  9.000E+00
#rwgt            2          13   3.5702467068678134E-003           7      246607           0
</event>
<event>
      5   9999  3.19816E-02  7.38586E+01 -1.00000E+00  1.30051E-01
      21    -1     0     0   511   501  0.000000000E+00  0.000000000E+00  1.141104474E+03  1.141104474E+03  0.000000000E+00  0.00000E+00  9.000E+00
      21    -1     0     0   501   502  0.000000000E+00  0.000000000E+00 -1.763704091E+02  1.763704091E+02  0.000000000E+00  0.00000E+00  9.000E+00
      25     1     1     2     0     0 -1.540888527E+02 -1.694819803E+02  1.938888069E+02  3.250928877E+02  1.250000000E+02  0.00000E+00  9.000E+00
      25     1     1     2     0     0  9.995648105E+01  2.197291038E+02  6.086565005E+01  2.785710045E+02  1.250000000E+02  0.00000E+00  9.000E+00
      21     1     1     2   511   502  5.413237166E+01 -5.024712350E+01  7.099796079E+02  7.138109909E+02  7.629394531E-06  0.00000E+00  9.000E+00
#rwgt            1           1   2.4947078015167705E-002           7      246626           0
</event>
<event>
      5   9999  3.19816E-02  5.73911E+01 -1.00000E+00  1.35743E-01
      21    -1     0     0   502   501  0.000000000E+00  0.000000000E+00  5.684598329E+02  5.684598329E+02  0.000000000E+00  0.00000E+00  9.000E+00
      21    -1     0     0   501   512  0.000000000E+00  0.000000000E+00 -7.055191830E+02  7.055191830E+02  0.000000000E+00  0.00000E+00  9.000E+00
      25     1     1     2     0     0  3.317156101E+02  4.727264399E+02 -7.652821085E+01  5.958079389E+02  1.250000000E+02  0.00000E+00  9.000E+00
      25     1     1     2     0     0 -2.772162659E+02 -4.907141470E+02  2.191698588E+01  5.777149698E+02  1.250000000E+02  0.00000E+00  9.000E+00
      21     1     1     2   502   512 -5.449934423E+01  1.798770708E+01 -8.244812515E+01  1.004561072E+02  1.348699152E-06  0.00000E+00  9.000E+00
#rwgt            1           1   3.0063880270037906E-002           7      246779           0
</event>
<event>
      5   9999  3.19816E-02  7.89960E+01 -1.00000E+00  1.28616E-01
      21    -1     0     0   502   501  0.000000000E+00  0.000000000E+00  4.536218364E+02  4.536218364E+02  0.000000000E+00  0.00000E+00  9.000E+00
      21    -1     0     0   501   511  0.000000000E+00  0.000000000E+00 -6.860074041E+02  6.860074041E+02  0.000000000E+00  0.00000E+00  9.000E+00
      25     1     1     2     0     0  4.706978274E+01 -4.243965500E+02 -3.213171268E+02  5.488148067E+02  1.250000000E+02  0.00000E+00  9.000E+00
      25     1     1     2     0     0  3.037810846E+01  4.399591041E+02  1.590484961E+02  4.851888981E+02  1.250000000E+02  0.00000E+00  9.000E+00
      21     1     1     2   502   511 -7.744789120E+01 -1.556255416E+01 -7.011693699E+01  1.056255357E+02  9.536743164E-07  0.00000E+00  9.000E+00
#rwgt            1           1   2.7307574247600448E-002           7      246900           0
</event>
<event>
      5   9999  3.19816E-02  9.20478E+01 -1.00000E+00  1.25468E-01
      21    -1     0     0   502   501  0.000000000E+00  0.000000000E+00  1.714383550E+01  1.714383550E+01  0.000000000E+00  0.00000E+00  9.000E+00
       2    -1     0     0   501     0  0.000000000E+00  0.000000000E+00 -3.939976672E+03  3.939976672E+03  0.000000000E+00  0.00000E+00  9.000E+00
      25     1     1     2     0     0 -2.767667220E+01 -1.531294270E+02 -1.721177105E+03  1.732711818E+03  1.250000000E+02  0.00000E+00  9.000E+00
      25     1     1     2     0     0 -6.161313235E+01  1.307659473E+02 -9.303351063E+02  9.497601387E+02  1.250000000E+02  0.00000E+00  9.000E+00
       2     1     1     2   502     0  8.928980455E+01  2.236347972E+01 -1.271320626E+03  1.274648551E+03  1.525878906E-05  0.00000E+00  9.000E+00
#rwgt            1           1   4.2848982126879133E-002           7      247053           0
</event>
<event>
      5   9999  3.19816E-02  7.79765E+01 -1.00000E+00  1.28890E-01
      21    -1     0     0   511   501  0.000000000E+00  0.000000000E+00  1.707112019E+03  1.707112019E+03  0.000000000E+00  0.00000E+00  9.000E+00
      21    -1     0     0   501   502  0.000000000E+00  0.000000000E+00 -9.969744524E+02  9.969744524E+02  0.000000000E+00  0.00000E+00  9.000E+00
      25     1     1     2     0     0 -2.295937309E+01  6.886062885E+01  6.179944016E+01  1.572039752E+02  1.250000000E+02  0.00000E+00  9.000E+00
      25     1     1     2     0     0  6.431608282E+01 -2.755011169E+00 -9.431059612E+02  9.535292353E+02  1.250000000E+02  0.00000E+00  9.000E+00
      21     1     1     2   511   502 -4.135670973E+01 -6.610561768E+01  1.591444087E+03  1.593353261E+03  2.157918644E-05  0.00000E+00  9.000E+00
#rwgt            1           1   3.5909860233969255E-002           7      247085           0
</event>
<event>
      5   9999  3.19816E-02  3.18929E+02 -1.00000E+00  1.04736E-01
      21    -1     0     0   502   501  0.000000000E+00  0.000000000E+00  1.255841612E+03  1.255841612E+03  0.000000000E+00  0.00000E+00  9.000E+00
       2    -1     0     0   501     0  0.000000000E+00  0.000000000E+00 -7.967166426E+02  7.967166426E+02  0.000000000E+00  0.00000E+00  9.000E+00
      25     1     1     2     0     0 -4.764367717E+02  2.533778069E+00  1.038486142E+03  1.149381087E+03  1.250000000E+02  0.00000E+00  9.000E+00
      25     1     1     2     0     0  2.540766381E+02  2.260959423E+02 -2.254433287E+02  4.267598946E+02  1.250000000E+02  0.00000E+00  9.000E+00
       2     1     1     2   502     0  2.223601337E+02 -2.286297204E+02 -3.539178433E+02  4.764172729E+02  8.529922400E-06  0.00000E+00  9.000E+00
#rwgt            1           1   3.0881033153267533E-002           7      247189           0
</event>
<event>
      5   9999  3.19816E-02  5.92499E+01 -1.00000E+00  1.34996E-01
      21    -1     0     0   502   511  0.000000000E+00  0.000000000E+00  1.602351578E+02  1.602351578E+02  0.000000000E+00  0.00000E+00  9.000E+00
      21    -1     0     0   501   502  0.000000000E+00  0.000000000E+00 -9.617751035E+02  9.617751035E+02  0.000000000E+00  0.00000E+00  9.000E+00
      25     1     1     2     0     0 -1.319865700E+01 -9.920911929E+01 -8.791216349E+02  8.935863153E+02  1.250000000E+02  0.00000E+00  9.000E+00
      25     1     1     2     0     0 -4.051145616E+01  7.419373993E+01  3.349883713E+01  1.545738051E+02  1.250000000E+02  0.00000E+00  9.000E+00
      21     1     1     2   501   511  5.371011316E+01  2.501537936E+01  4.408285217E+01  7.385014093E+01  0.000000000E+00  0.00000E+00  9.000E+00
#rwgt            1           1   2.8483493895435818E-002           7      247218           0
</event>
<event>
      5   9999  3.19816E-02  7.61054E+01 -1.00000E+00  1.29407E-01
      21    -1     0     0   512   501  0.000000000E+00  0.000000000E+00  3.434113979E+02  3.434113979E+02  0.000000000E+00  0.00000E+00  9.000E+00
      21    -1     0     0   501   502  0.000000000E+00  0.000000000E+00 -1.765651570E+03  1.765651570E+03  0.000000000E+00  0.00000E+00  9.000E+00
      25     1     1     2     0     0 -2.617267282E+02  1.218858748E+02  2.068113283E+02  3.765009592E+02  1.250000000E+02  0.00000E+00  9.000E+00
      25     1     1     2     0     0  2.260295047E+02 -5.467175961E+01 -1.635042869E+03  1.656221158E+03  1.250000000E+02  0.00000E+00  9.000E+00
      21     1     1     2   512   502  3.569722349E+01 -6.721411518E+01  5.991369026E+00  7.634085110E+01  1.115100797E-06  0.00000E+00  9.000E+00
#rwgt            1           1   2.7214210262532651E-002           7      247305           0
</event>
<event>
      5   9999  3.19816E-02  6.78235E+01 -1.00000E+00  1.31919E-01
      21    -1     0     0   502   501  0.000000000E+00  0.000000000E+00  2.033119667E+02  2.033119667E+02  0.000000000E+00  0.00000E+00  9.000E+00
      21    -1     0     0   501   511  0.000000000E+00  0.000000000E+00 -9.881016017E+02  9.881016017E+02  0.000000000E+00  0.00000E+00  9.000E+00
      25     1     1     2     0     0 -2.592332244E+02 -2.828575522E+02 -5.007955517E+02  6.431418538E+02  1.250000000E+02  0.00000E+00  9.000E+00
      25     1     1     2     0     0  3.005748977E+02  2.290905192E+02 -2.189694921E+02  4.543130788E+02  1.250000000E+02  0.00000E+00  9.000E+00
      21     1     1     2   502   511 -4.134167326E+01  5.376703301E+01 -6.502459117E+01  9.395863581E+01  9.536743164E-07  0.00000E+00  9.000E+00
#rwgt            2          11   4.7796055934103436E-003           7      247490           0
</event>
<event>
      5   9999  3.19816E-02  9.03412E+01 -1.00000E+00  1.25845E-01
      21    -1     0     0   502   512  0.000000000E+00  0.000000000E+00  1.489575044E+03  1.489575044E+03  0.000000000E+00  0.00000E+00  9.000E+00
      21    -1     0     0   501   502  0.000000000E+00  0.000000000E+00 -2.369446122E+02  2.369446122E+02  0.000000000E+00  0.00000E+00  9.000E+00
      25     1     1     2     0     0 -3.254782225E+02  1.558112022E+02  7.477054048E+02  8.395841688E+02  1.250000000E+02  0.00000E+00  9.000E+00
      25     1     1     2     0     0  2.912393792E+02 -2.394127967E+02  2.434773786E+01  3.979405428E+02  1.250000000E+02  0.00000E+00  9.000E+00
      21     1     1     2   501   512  3.423884333E+01  8.360159456E+01  4.805772887E+02  4.889949442E+02  5.394796609E-06  0.00000E+00  9.000E+00
#rwgt            1           1   3.0411380508232739E-002           7      247510           0
</event>
<event>
      5   9999  3.19816E-02  2.78126E+02 -1.00000E+00  1.06671E-01
      21    -1     0     0   502   501  0.000000000E+00  0.000000000E+00  4.620691243E+02  4.620691243E+02  0.000000000E+00  0.00000E+00  9.000E+00
       1    -1     0     0   501     0  0.000000000E+00  0.000000000E+00 -1.432535458E+03  1.432535458E+03  0.000000000E+00  0.00000E+00  9.000E+00
      25     1     1     2     0     0  3.518325047E+02 -3.496900946E+02 -3.593243756E+01  5.128210347E+02  1.250000000E+02  0.00000E+00  9.000E+00
      25     1     1     2     0     0 -6.238096411E+02  2.915325272E+02 -4.789929462E+02  8.480500724E+02  1.250000000E+02  0.00000E+00  9.000E+00
       1     1     1     2   502     0  2.719771364E+02  5.815756738E+01 -4.555409498E+02  5.337334750E+02  5.394796609E-06  0.00000E+00  9.000E+00
#rwgt            1           1   2.5626554393028064E-002           7      247584           0
</event>
<event>
      5   9999  3.19816E-02  4.22845E+01 -1.00000E+00  1.43360E-01
      21    -1     0     0   502   501  0.000000000E+00  0.000000000E+00  8.355214364E+02  8.355214364E+02  0.000000000E+00  0.00000E+00  9.000E+00
      21    -1     0     0   511   502  0.000000000E+00  0.000000000E+00 -3.644884682E+02  3.644884682E+02  0.000000000E+00  0.00000E+00  9.000E+00
      25     1     1     2     0     0 -7.888861829E+01  4.929034462E+02  7.044980096E+01  5.193894453E+02  1.250000000E+02  0.00000E+00  9.000E+00
      25     1     1     2     0     0  3.717373792E+01 -4.859864224E+02  3.910683419E+02  6.372786969E+02  1.250000000E+02  0.00000E+00  9.000E+00
      21     1     1     2   511   501  4.171488037E+01 -6.917023821E+00  9.514825342E+00  4.334176235E+01  1.192092896E-07  0.00000E+00  9.000E+00
#rwgt            1           1   3.2163820092202651E-002           7      247627           0
</event>
<event>
      5   9999  3.19816E-02  1.53560E+02 -1.00000E+00  1.15991E-01
      21    -1     0     0   502   501  0.000000000E+00  0.000000000E+00  2.648924299E+02  2.648924299E+02  0.000000000E+00  0.00000E+00  9.000E+00
       2    -1     0     0   501     0  0.000000000E+00  0.000000000E+00 -1.352150499E+03  1.352150499E+03  0.000000000E+00  0.00000E+00  9.000E+00
      25     1     1     2     0     0 -2.128506226E+02 -1.194153224E+02 -2.670216068E+02  3.827413556E+02  1.250000000E+02  0.00000E+00  9.000E+00
      25     1     1     2     0     0  8.484212744E+01  2.042354795E+02  1.204620002E+02  2.811519361E+02  1.250000000E+02  0.00000E+00  9.000E+00
       2     1     1     2   502     0  1.280084952E+02 -8.482015708E+01 -9.406984628E+02  9.531496377E+02  1.078959322E-05  0.00000E+00  9.000E+00
#rwgt            1           1   3.5652435135476043E-002           7      247715           0
</event>
<event>
      5   9999  3.19816E-02  1.31153E+02 -1.00000E+00  1.18753E-01
      21    -1     0     0   511   501  0.000000000E+00  0.000000000E+00  5.352152089E+02  5.352152089E+02  0.000000000E+00  0.00000E+00  9.000E+00
      21    -1     0     0   501   502  0.000000000E+00  0.000000000E+00 -1.772882772E+02  1.772882772E+02  0.000000000E+00  0.00000E+00  9.000E+00
      25     1     1     2     0     0 -2.073016357E+01  5.952327494E+01  3.901775291E+01  1.453277158E+02  1.250000000E+02  0.00000E+00  9.000E+00
      25     1     1     2     0     0  4.579472903E+01 -1.882585223E+02  9.102377684E+00  2.307515584E+02  1.250000000E+02  0.00000E+00  9.000E+00
      21     1     1     2   511   502 -2.506456546E+01  1.287352473E+02  3.098068011E+02  3.364242119E+02  3.814697266E-06  0.00000E+00  9.000E+00
#rwgt            2          11   2.4817272110236911E-003           7      247771           0
</event>
<event>
      5   9999  3.19816E-02  7.25915E+01 -1.00000E+00  1.30426E-01
      21    -1     0     0   512   501  0.000000000E+00  0.000000000E+00  3.472705533E+02  3.472705533E+02  0.000000000E+00  0.00000E+00  9.000E+00
      21    -1     0     0   501   502  0.000000000E+00  0.000000000E+00 -4.624069306E+02  4.624069306E+02  0.000000000E+00  0.00000E+00  9.000E+00
      25     1     1     2     0     0  1.540181420E+02  1.675243482E+02 -2.388836381E+02  3.528121141E+02  1.250000000E+02  0.00000E+00  9.000E+00
      25     1     1     2     0     0 -1.080087967E+02 -1.113757477E+02 -9.907883404E+01  2.225130843E+02  1.250000000E+02  0.00000E+00  9.000E+00
      21     1     1     2   512   502 -4.600934531E+01 -5.614860047E+01  2.228260948E+02  2.343522855E+02  2.697398305E-06  0.00000E+00  9.000E+00
#rwgt            1           1   2.4964636109233419E-002           7      247791           0
</event>
<event>
      5   9999  3.19816E-02  9.83091E+01 -1.00000E+00  1.24162E-01
      21    -1     0     0   502   501  0.000000000E+00  0.000000000E+00  8.075246528E+02  8.075246528E+02  0.000000000E+00  0.00000E+00  9.000E+00
      21    -1     0     0   501   511  0.000000000E+00  0.000000000E+00 -2.402490080E+02  2.402490080E+02  0.000000000E+00  0.00000E+00  9.000E+00
      25     1     1     2     0     0 -1.416948281E+02 -3.398229610E+02  3.358899715E+02  5.138133338E+02  1.250000000E+02  0.00000E+00  9.000E+00
      25     1     1     2     0     0  4.505677611E+01  3.578718598E+02  1.987051881E+02  4.303616303E+02  1.250000000E+02  0.00000E+00  9.000E+00
      21     1     1     2   502   511  9.663805195E+01 -1.804889881E+01  3.268048530E+01  1.035986967E+02  1.348699152E-06  0.00000E+00  9.000E+00
#rwgt            1           1   2.7665137540917862E-002           7      247860           0
</event>
<event>
      5   9999  3.19816E-02  1.58208E+02 -1.00000E+00  1.15484E-01
      21    -1     0     0   502   512  0.000000000E+00  0.000000000E+00  2.167612661E+02  2.167612661E+02  0.000000000E+00  0.00000E+00  9.000E+00
      21    -1     0     0   501   502  0.000000000E+00  0.000000000E+00 -4.401891620E+02  4.401891620E+02  0.000000000E+00  0.00000E+00  9.000E+00
      25     1     1     2     0     0  1.465194975E+01 -1.815014361E+02 -2.443227906E+02  3.293570661E+02  1.250000000E+02  0.00000E+00  9.000E+00
      25     1     1     2     0     0 -7.706945533E+01  3.612708482E+01 -4.260984902E+01  1.571160922E+02  1.250000000E+02  0.00000E+00  9.000E+00
      21     1     1     2   501   512  6.241750558E+01  1.453743513E+02  6.350474382E+01  1.704772698E+02  4.422005890E-06  0.00000E+00  9.000E+00
#rwgt            1           1   3.2058013609882578E-002           7      247932           0
</event>
<event>
      5   9999  3.19816E-02  3.07362E+01 -1.00000E+00  1.52312E-01
      21    -1     0     0   502   501  0.000000000E+00  0.000000000E+00  6.637736578E+02  6.637736578E+02  0.000000000E+00  0.00000E+00  9.000E+00
      21    -1     0     0   501   511  0.000000000E+00  0.000000000E+00 -7.835456237E+01  7.835456237E+01  0.000000000E+00  0.00000E+00  9.000E+00
      25     1     1     2     0     0  6.537378164E+01 -1.618045960E+02  3.836891440E+02  4.396553398E+02  1.250000000E+02  0.00000E+00  9.000E+00
      25     1     1     2     0     0 -4.419747263E+01  1.395272615E+02  1.871229387E+02  2.684422982E+02  1.250000000E+02  0.00000E+00  9.000E+00
      21     1     1     2   502   511 -2.117630901E+01  2.227733456E+01  1.460701270E+01  3.403058210E+01  2.920019320E-07  0.00000E+00  9.000E+00
#rwgt            1           1   3.2000996224628125E-002           7      247962           0
</event>
<event>
      5   9999  3.19816E-02  4.32722E+01 -1.00000E+00  1.42754E-01
      21    -1     0     0   502   501  0.000000000E+00  0.000000000E+00  4.639045857E+02  4.639045857E+02  0.000000000E+00  0.00000E+00  9.000E+00
      21    -1     0     0   512   502  0.000000000E+00  0.000000000E+00 -5.448779274E+02  5.448779274E+02  0.000000000E+00  0.00000E+00  9.000E+00
      25     1     1     2     0     0  3.346480987E+02 -8.673592271E+01  2.764426158E+02  4.599543347E+02  1.250000000E+02  0.00000E+00  9.000E+00
      25     1     1     2     0     0 -3.486541362E+02  4.579313988E+01 -3.188055058E+02  4.908346655E+02  1.250000000E+02  0.00000E+00  9.000E+00
      21     1     1     2   512   501  1.400603754E+01  4.094278283E+01 -3.861045164E+01  5.799351282E+01  4.768371582E-07  0.00000E+00  9.000E+00
#rwgt            1           1   2.9187220576092614E-002           7      248084           0
</event>
<event>
      5   9999  3.19816E-02  1.12936E+02 -1.00000E+00  1.21497E-01
      21    -1     0     0   511   501  0.000000000E+00  0.000000000E+00  1.486460302E+03  1.486460302E+03  0.000000000E+00  0.00000E+00  9.000E+00
      21    -1     0     0   501   502  0.000000000E+00  0.000000000E+00 -2.014869228E+02  2.014869228E+02  0.000000000E+00  0.00000E+00  9.000E+00
      25     1     1     2     0     0 -3.176213045E+00 -1.151602685E+02  5.822854452E+02  6.065915557E+02  1.250000000E+02  0.00000E+00  9.000E+00
      25     1     1     2     0     0  1.072220904E+02  7.123925705E+01 -1.422027792E+02  2.289502977E+02  1.250000000E+02  0.00000E+00  9.000E+00
      21     1     1     2   511   502 -1.040458774E+02  4.392101147E+01  8.448907135E+02  8.524053716E+02  1.078959322E-05  0.00000E+00  9.000E+00
#rwgt            1           1   2.8149547389422179E-002           7      248249           0
</event>
<event>
      5   9999  3.19816E-02  1.69504E+01 -1.00000E+00  1.72524E-01
      21    -1     0     0   502   501  0.000000000E+00  0.000000000E+00  8.031257037E+02  8.031257037E+02  0.000000000E+00  0.00000E+00  9.000E+00
      21    -1     0     0   501   512  0.000000000E+00  0.000000000E+00 -8.151518561E+02  8.151518561E+02  0.000000000E+00  0.00000E+00  9.000E+00
      25     1     1     2     0     0 -3.861317428E+02  5.524659518E+02 -3.272968915E+02  7.596476853E+02  1.250000000E+02  0.00000E+00  9.000E+00
      25     1     1     2     0     0  3.870445704E+02 -5.355401240E+02  3.931193018E+02  7.789573219E+02  1.250000000E+02  0.00000E+00  9.000E+00
      21     1     1     2   502   512 -9.128276806E-01 -1.692582781E+01 -7.784856279E+01  7.967255255E+01  1.651812370E-06  0.00000E+00  9.000E+00
#rwgt            1           1   3.9855934641443110E-002           7      248303           0
</event>
<event>
      5   9999  3.19816E-02  1.59663E+01 -1.00000E+00  1.74867E-01
      21    -1     0     0   502   501  0.000000000E+00  0.000000000E+00  1.438698545E+03  1.438698545E+03  0.000000000E+00  0.00000E+00  9.000E+00
      21    -1     0     0   501   511  0.000000000E+00  0.000000000E+00 -4.989563137E+02  4.989563137E+02  0.000000000E+00  0.00000E+00  9.000E+00
      25     1     1     2     0     0 -2.047356312E+01  7.954749363E+02  3.143452408E+02  8.646603215E+02  1.250000000E+02  0.00000E+00  9.000E+00
      25     1     1     2     0     0  5.109820645E+00 -7.998199057E+02  6.536842068E+02  1.040512390E+03  1.250000000E+02  0.00000E+00  9.000E+00
      21     1     1     2   502   511  1.536374247E+01  4.344969332E+00 -2.828721576E+01  3.248214766E+01  5.840038640E-07  0.00000E+00  9.000E+00
#rwgt            1           1   3.1180624044189694E-002           7      248594           0
</event>
<event>
      5   9999  3.19816E-02  3.98131E+01 -1.00000E+00  1.44966E-01
      21    -1     0     0   502   501  0.000000000E+00  0.000000000E+00  1.096745966E+02  1.096745966E+02  0.000000000E+00  0.00000E+00  9.000E+00
      21    -1     0     0   501   512  0.000000000E+00  0.000000000E+00 -7.789293789E+02  7.789293789E+02  0.000000000E+00  0.00000E+00  9.000E+00
      25     1     1     2     0     0  1.300153092E+01 -1.190745666E+02 -4.277710680E+02  4.614768454E+02  1.250000000E+02  0.00000E+00  9.000E+00
      25     1     1     2     0     0  3.489785431E+00  1.553115144E+02 -1.809189739E+01  2.002152887E+02  1.250000000E+02  0.00000E+00  9.000E+00
      21     1     1     2   502   512 -1.649131635E+01 -3.623694779E+01 -2.233918169E+02  2.269118413E+02  2.697398305E-06  0.00000E+00  9.000E+00
#rwgt            1           1   2.9189585720228988E-002           7      248976           0
</event>
<event>
      5   9999  3.19816E-02  1.90899E+02 -1.00000E+00  1.12389E-01
      21    -1     0     0   502   511  0.000000000E+00  0.000000000E+00  4.650571162E+02  4.650571162E+02  0.000000000E+00  0.00000E+00  9.000E+00
      21    -1     0     0   501   502  0.000000000E+00  0.000000000E+00 -2.715295964E+02  2.715295964E+02  0.000000000E+00  0.00000E+00  9.000E+00
      25     1     1     2     0     0  3.553299080E-01 -4.744879656E+01  1.406815209E+02  1.940819540E+02  1.250000000E+02  0.00000E+00  9.000E+00
      25     1     1     2     0     0 -6.868765405E+01  2.256993122E+02 -1.127214057E+02  2.898090555E+02  1.250000000E+02  0.00000E+00  9.000E+00
      21     1     1     2   501   511  6.833232415E+01 -1.782505157E+02  1.655674046E+02  2.526957030E+02  2.697398305E-06  0.00000E+00  9.000E+00
#rwgt            1           1   2.8350137891579346E-002           7      249121           0
</event>
<event>
      5   9999  3.19816E-02  1.83321E+01 -1.00000E+00  1.69551E-01
      21    -1     0     0   512   501  0.000000000E+00  0.000000000E+00  7.023343254E+01  7.023343254E+01  0.000000000E+00  0.00000E+00  9.000E+00
      21    -1     0     0   501   502  0.000000000E+00  0.000000000E+00 -1.098166877E+03  1.098166877E+03  0.000000000E+00  0.00000E+00  9.000E+00
      25     1     1     2     0     0 -2.031594635E+02  1.083120077E+02 -6.196469165E+02  6.727499979E+02  1.250000000E+02  0.00000E+00  9.000E+00
      25     1     1     2     0     0  1.935917354E+02 -9.267470080E+01 -4.075887878E+02  4.773049132E+02  1.250000000E+02  0.00000E+00  9.000E+00
      21     1     1     2   512   502  9.567728111E+00 -1.563730686E+01 -6.977397247E-01  1.834539800E+01  2.808582310E-07  0.00000E+00  9.000E+00
#rwgt            1           1   2.7385709310388560E-002           7      249177           0
</event>
<event>
      5   9999  3.19816E-02  3.37450E+01 -1.00000E+00  1.49574E-01
      21    -1     0     0   502   511  0.000000000E+00  0.000000000E+00  1.145061419E+03  1.145061419E+03  0.000000000E+00  0.00000E+00  9.000E+00
      21    -1     0     0   501   502  0.000000000E+00  0.000000000E+00 -2.477218851E+02  2.477218851E+02  0.000000000E+00  0.00000E+00  9.000E+00
      25     1     1     2     0     0 -2.691208646E+02  6.806938562E+01 -1.094562006E+02  3.235199235E+02  1.250000000E+02  0.00000E+00  9.000E+00
      25     1     1     2     0     0  2.700835491E+02 -1.018006767E+02  9.681276732E+02  1.017941400E+03  1.250000000E+02  0.00000E+00  9.000E+00
      21     1     1     2   501   511 -9.626844521E-01  3.373129112E+01  3.866806112E+01  5.132198080E+01  9.536743164E-07  0.00000E+00  9.000E+00
#rwgt            1           1   2.4884683592616048E-002           7      249290           0
</event>
<event>
      5   9999  3.19816E-02  7.36358E+01 -1.00000E+00  1.30117E-01
      21    -1     0     0   512   501  0.000000000E+00  0.000000000E+00  2.286007706E+02  2.286007706E+02  0.000000000E+00  0.00000E+00  9.000E+00
      21    -1     0     0   501   502  0.000000000E+00  0.000000000E+00 -1.056907069E+03  1.056907069E+03  0.000000000E+00  0.00000E+00  9.000E+00
      25     1     1     2     0     0 -9.803407475E+01  3.493933150E+02 -7.239820123E+01  3.905801684E+02  1.250000000E+02  0.00000E+00  9.000E+00
      25     1     1     2     0     0  1.568645479E+02 -3.051078383E+02 -7.311293233E+02  8.172345849E+02  1.250000000E+02  0.00000E+00  9.000E+00
      21     1     1     2   512   502 -5.883047312E+01 -4.428547669E+01 -2.477877389E+01  7.769308624E+01  1.305872339E-06  0.00000E+00  9.000E+00
#rwgt            1           1   3.2358960860248490E-002           7      249438           0
</event>
<event>
      5   9999  3.19816E-02  8.85416E+01 -1.00000E+00  1.26253E-01
      21    -1     0     0   502   501  0.000000000E+00  0.000000000E+00  8.230078223E+02  8.230078223E+02  0.000000000E+00  0.00000E+00  9.000E+00
       2    -1     0     0   501     0  0.000000000E+00  0.000000000E+00 -1.390121110E+03  1.390121110E+03  0.000000000E+00  0.00000E+00  9.000E+00
      25     1     1     2     0     0 -7.391563616E+02 -6.814021775E+02 -5.007659414E+02  1.130067512E+03  1.250000000E+02  0.00000E+00  9.000E+00
      25     1     1     2     0     0  6.511078522E+02  6.720709316E+02 -1.562242566E+02  9.568969592E+02  1.250000000E+02  0.00000E+00  9.000E+00
       2     1     1     2   502     0  8.804850937E+01  9.331245905E+00  8.987691033E+01  1.261644608E+02  1.651812370E-06  0.00000E+00  9.000E+00
#rwgt            1           1   3.6445753425436718E-002           7      249536           0
</event>
<event>
      5   9999  3.19816E-02  1.84941E+02 -1.00000E+00  1.12900E-01
       2    -1     0     0   502     0  0.000000000E+00  0.000000000E+00  3.246353649E+03  3.246353649E+03  0.000000000E+00  0.00000E+00  9.000E+00
      21    -1     0     0   501   502  0.000000000E+00  0.000000000E+00 -2.907473428E+02  2.907473428E+02  0.000000000E+00  0.00000E+00  9.000E+00
      25     1     1     2     0     0  1.818706822E+02 -7.178805089E+02  1.371030346E+03  1.563258961E+03  1.250000000E+02  0.00000E+00  9.000E+00
      25     1     1     2     0     0 -1.896061761E+01  8.054212680E+02  7.136781694E+02  1.083524090E+03  1.250000000E+02  0.00000E+00  9.000E+00
       2     1     1     2   501     0 -1.629100646E+02 -8.754075909E+01  8.708977913E+02  8.903179413E+02  0.000000000E+00  0.00000E+00  9.000E+00
#rwgt            1           1   2.8881032901257549E-002           7      249647           0
</event>
<event>
      5   9999  3.19816E-02  1.60006E+02 -1.00000E+00  1.15293E-01
      21    -1     0     0   502   501  0.000000000E+00  0.000000000E+00  4.319793525E+02  4.319793525E+02  0.000000000E+00  0.00000E+00  9.000E+00
       1    -1     0     0   501     0  0.000000000E+00  0.000000000E+00 -1.777721183E+03  1.777721183E+03  0.000000000E+00  0.00000E+00  9.000E+00
      25     1     1     2     0     0 -1.831169618E+02  7.111591940E+01  1.102315681E+02  2.576146236E+02  1.250000000E+02  0.00000E+00  9.000E+00
      25     1     1     2     0     0  3.411999963E+02 -9.585069683E+01  9.922010108E+01  3.886829325E+02  1.250000000E+02  0.00000E+00  9.000E+00
       1     1     1     2   502     0 -1.580830345E+02  2.473477743E+01 -1.555193500E+03  1.563402979E+03  2.157918644E-05  0.00000E+00  9.000E+00
#rwgt            1           1   2.8162281260081808E-002           7      249724           0
</event>
<event>
      5   9999  3.19816E-02  1.90309E+01 -1.00000E+00  1.68169E-01
      21    -1     0     0   502   501  0.000000000E+00  0.000000000E+00  2.778601774E+02  2.778601774E+02  0.000000000E+00  0.00000E+00  9.000E+00
      21    -1     0     0   501   511  0.000000000E+00  0.000000000E+00 -2.759838461E+02  2.759838461E+02  0.000000000E+00  0.00000E+00  9.000E+00
      25     1     1     2     0     0  1.643037978E+02  1.006149250E+02  1.513136587E+02  2.750271339E+02  1.250000000E+02  0.00000E+00  9.000E+00
      25     1     1     2     0     0 -1.513674474E+02 -8.665694313E+01 -1.458294834E+02  2.594470431E+02  1.250000000E+02  0.00000E+00  9.000E+00
      21     1     1     2   502   511 -1.293635033E+01 -1.395798184E+01 -3.607844007E+00  1.936984655E+01  3.650024150E-07  0.00000E+00  9.000E+00
#rwgt            1           1   2.8805963252521910E-002           7      249786           0
</event>
<event>
      5   9999  3.19816E-02  1.20320E+01 -1.00000E+00  1.86907E-01
      21    -1     0     0   502   501  0.000000000E+00  0.000000000E+00  6.287572955E+02  6.287572955E+02  0.000000000E+00  0.00000E+00  9.000E+00
      21    -1     0     0   501   512  0.000000000E+00  0.000000000E+00 -1.006268379E+03  1.006268379E+03  0.000000000E+00  0.00000E+00  9.000E+00
      25     1     1     2     0     0  5.260190186E+02  3.078687534E+02 -6.784516999E+02  9.205437992E+02  1.250000000E+02  0.00000E+00  9.000E+00
      25     1     1     2     0     0 -5.205643209E+02 -3.185932352E+02  3.132157363E+02  6.972933093E+02  1.250000000E+02  0.00000E+00  9.000E+00
      21     1     1     2   502   512 -5.454697662E+00  1.072448184E+01 -1.227512009E+01  1.718856628E+01  1.685873940E-07  0.00000E+00  9.000E+00
#rwgt            1           1   3.7153848874776921E-002           7      249940           0
</event>
<event>
      5   9999  3.19816E-02  7.32500E+00 -1.00000E+00  2.12805E-01
      21    -1     0     0   502   501  0.000000000E+00  0.000000000E+00  3.198274562E+02  3.198274562E+02  0.000000000E+00  0.00000E+00  9.000E+00
      21    -1     0     0   501   511  0.000000000E+00  0.000000000E+00 -5.725241386E+02  5.725241386E+02  0.000000000E+00  0.00000E+00  9.000E+00
      25     1     1     2     0     0 -2.723011758E+02 -2.619504205E+01  1.816093067E+02  3.513417864E+02  1.250000000E+02  0.00000E+00  9.000E+00
      25     1     1     2     0     0  2.786126525E+02  2.991267990E+01 -3.906401204E+02  4.967338143E+02  1.250000000E+02  0.00000E+00  9.000E+00
      21     1     1     2   502   511 -6.311476683E+00 -3.717637847E+00 -4.366586864E+01  4.427599410E+01  4.768371582E-07  0.00000E+00  9.000E+00
#rwgt            1           1   2.6843831993200198E-002           7      250362           0
</event>
<event>
      5   9999  3.19816E-02  3.21837E+01 -1.00000E+00  1.50950E-01
      21    -1     0     0   502   501  0.000000000E+00  0.000000000E+00  9.338072781E+01  9.338072781E+01  0.000000000E+00  0.00000E+00  9.000E+00
       2    -1     0     0   501     0  0.000000000E+00  0.000000000E+00 -3.059661452E+03  3.059661452E+03  0.000000000E+00  0.00000E+00  9.000E+00
      25     1     1     2     0     0  1.007524108E+02 -4.316424060E+02 -8.701321728E+02  9.844903317E+02  1.250000000E+02  0.00000E+00  9.000E+00
      25     1     1     2     0     0 -1.179347900E+02  4.044292031E+02 -1.309843558E+03  1.381588485E+03  1.250000000E+02  0.00000E+00  9.000E+00
       2     1     1     2   502     0  1.718237925E+01  2.721320298E+01 -7.863049942E+02  7.869633641E+02  1.078959322E-05  0.00000E+00  9.000E+00
#rwgt            1           1   2.2643549963586342E-002           7      250639           0
</event>
<event>
      5   9999  3.19816E-02  1.44383E+01 -1.00000E+00  1.78960E-01
      21    -1     0     0   502   511  0.000000000E+00  0.000000000E+00  8.003520863E+02  8.003520863E+02  0.000000000E+00  0.00000E+00  9.000E+00
      21    -1     0     0   501   502  0.000000000E+00  0.000000000E+00 -2.274403675E+02  2.274403675E+02  0.000000000E+00  0.00000E+00  9.000E+00
      25     1     1     2     0     0 -2.635782203E+02 -2.462749657E+02  2.094143823E+02  4.354356674E+02  1.250000000E+02  0.00000E+00  9.000E+00
      25     1     1     2     0     0  2.493141521E+02  2.440389788E+02  1.866859677E+02  4.149568895E+02  1.250000000E+02  0.00000E+00  9.000E+00
      21     1     1     2   501   511  1.426406817E+01  2.235986938E+00  1.768113688E+02  1.773998969E+02  3.303624740E-06  0.00000E+00  9.000E+00
#rwgt            1           1   2.7982763162688388E-002           7      250800           0
</event>
<event>
      5   9999  3.19816E-02  5.41675E+01 -1.00000E+00  1.37120E-01
      21    -1     0     0   502   501  0.000000000E+00  0.000000000E+00  1.032653453E+03  1.032653453E+03  0.000000000E+00  0.00000E+00  9.000E+00
      21    -1     0     0   512   502  0.000000000E+00  0.000000000E+00 -2.681144994E+02  2.681144994E+02  0.000000000E+00  0.00000E+00  9.000E+00
      25     1     1     2     0     0  1.713013609E+02 -6.022910268E+01  4.125084281E+02  4.677177613E+02  1.250000000E+02  0.00000E+00  9.000E+00
      25     1     1     2     0     0 -1.567050982E+02  8.065297761E+00  5.721822849E+02  6.063325029E+02  1.250000000E+02  0.00000E+00  9.000E+00
      21     1     1     2   512   501 -1.459626269E+01  5.216380492E+01 -2.201517589E+02  2.267176887E+02  3.814697266E-06  0.00000E+00  9.000E+00
#rwgt            1           1   3.0173839970878753E-002           7      251009           0
</event>
<event>
      5   9999  3.19816E-02  6.56439E+01 -1.00000E+00  1.32650E-01
      21    -1     0     0   511   501  0.000000000E+00  0.000000000E+00  4.501412726E+02  4.501412726E+02  0.000000000E+00  0.00000E+00  9.000E+00
      21    -1     0     0   501   502  0.000000000E+00  0.000000000E+00 -1.411429114E+02  1.411429114E+02  0.000000000E+00  0.00000E+00  9.000E+00
      25     1     1     2     0     0 -2.625905269E+01  1.600351790E+02  1.039309851E+01  2.050214937E+02  1.250000000E+02  0.00000E+00  9.000E+00
      25     1     1     2     0     0 -2.938609077E+01 -1.252106776E+02  2.209969205E+02  2.846153456E+02  1.250000000E+02  0.00000E+00  9.000E+00
      21     1     1     2   511   502  5.564514345E+01 -3.482450146E+01  7.760834221E+01  1.016473446E+02  1.651812370E-06  0.00000E+00  9.000E+00
#rwgt            1           1   2.2525873211872001E-002           7      251057           0
</event>
<event>
      5   9999  3.19816E-02  3.02072E+02 -1.00000E+00  1.05495E-01
      21    -1     0     0   502   501  0.000000000E+00  0.000000000E+00  4.916820585E+02  4.916820585E+02  0.000000000E+00  0.00000E+00  9.000E+00
      21    -1     0     0   501   512  0.000000000E+00  0.000000000E+00 -4.486859575E+02  4.486859575E+02  0.000000000E+00  0.00000E+00  9.000E+00
      25     1     1     2     0     0 -1.140864560E+02 -4.197085777E+01 -9.630004602E+01  1.991882808E+02  1.250000000E+02  0.00000E+00  9.000E+00
      25     1     1     2     0     0  1.447443785E+02 -2.585411787E+02  2.623291738E+02  4.150133391E+02  1.250000000E+02  0.00000E+00  9.000E+00
      21     1     1     2   502   512 -3.065792257E+01  3.005120365E+02 -1.230330268E+02  3.261663961E+02  7.008046368E-06  0.00000E+00  9.000E+00
#rwgt            1           1   2.7803210715674893E-002           7      251117           0
</event>
<event>
      5   9999  3.19816E-02  4.69353E+01 -1.00000E+00  1.40661E-01
      21    -1     0     0   502   511  0.000000000E+00  0.000000000E+00  1.698730095E+03  1.698730095E+03  0.000000000E+00  0.00000E+00  9.000E+00
      21    -1     0     0   501   502  0.000000000E+00  0.000000000E+00 -1.266278708E+02  1.266278708E+02  0.000000000E+00  0.00000E+00  9.000E+00
      25     1     1     2     0     0  2.524819320E+02  3.147880088E+02  6.464522200E+02  7.722461325E+02  1.250000000E+02  0.00000E+00  9.000E+00
      25     1     1     2     0     0 -2.424144269E+02 -3.606308459E+02  7.993192264E+02  9.183439373E+02  1.250000000E+02  0.00000E+00  9.000E+00
      21     1     1     2   501   511 -1.006750506E+01  4.584283705E+01  1.263307778E+02  1.347678960E+02  1.348699152E-06  0.00000E+00  9.000E+00
#rwgt            1           1   3.4427294602693947E-002           7      251149           0
</event>
<event>
      5   9999  3.19816E-02  2.23811E+01 -1.00000E+00  1.62437E-01
      21    -1     0     0   502   501  0.000000000E+00  0.000000000E+00  3.222758093E+02  3.222758093E+02  0.000000000E+00  0.00000E+00  9.000E+00
      21    -1     0     0   512   502  0.000000000E+00  0.000000000E+00 -1.559125019E+03  1.559125019E+03  0.000000000E+00  0.00000E+00  9.000E+00
      25     1     1     2     0     0 -3.685285654E+02  5.557466446E+02 -8.659444051E+02  1.100069248E+03  1.250000000E+02  0.00000E+00  9.000E+00
      25     1     1     2     0     0  3.545371411E+02 -5.382780416E+02 -3.302780488E+02  7.349479057E+02  1.250000000E+02  0.00000E+00  9.000E+00
      21     1     1     2   512   501  1.399142432E+01 -1.746860299E+01 -4.062675624E+01  4.638367566E+01  0.000000000E+00  0.00000E+00  9.000E+00
#rwgt            1           1   2.8188252634842342E-002           7      251281           0
</event>
<event>
      5   9999  3.19816E-02  3.04242E+01 -1.00000E+00  1.52617E-01
      21    -1     0     0   502   511  0.000000000E+00  0.000000000E+00  2.002786783E+02  2.002786783E+02  0.000000000E+00  0.00000E+00  9.000E+00
      21    -1     0     0   501   502  0.000000000E+00  0.000000000E+00 -2.176095563E+03  2.176095563E+03  0.000000000E+00  0.00000E+00  9.000E+00
      25     1     1     2     0     0 -6.734384832E+01  2.158237799E+02 -1.061539429E+02  2.793004788E+02  1.250000000E+02  0.00000E+00  9.000E+00
      25     1     1     2     0     0  8.441363149E+01 -2.410082234E+02 -1.970931941E+03  1.991333307E+03  1.250000000E+02  0.00000E+00  9.000E+00
      21     1     1     2   501   511 -1.706978317E+01  2.518444354E+01  1.012689991E+02  1.057404552E+02  3.814697266E-06  0.00000E+00  9.000E+00
#rwgt            1           1   2.6791336306539158E-002           7      251539           0
</event>
<event>
      5   9999  3.19816E-02  3.94345E+01 -1.00000E+00  1.45225E-01
      21    -1     0     0   502   501  0.000000000E+00  0.000000000E+00  7.053345367E+02  7.053345367E+02  0.000000000E+00  0.00000E+00  9.000E+00
      21    -1     0     0   512   502  0.000000000E+00  0.000000000E+00 -1.334559775E+03  1.334559775E+03  0.000000000E+00  0.00000E+00  9.000E+00
      25     1     1     2     0     0  4.420922457E+02 -3.189964268E+02 -8.684612454E+02  1.032983160E+03  1.250000000E+02  0.00000E+00  9.000E+00
      25     1     1     2     0     0 -4.266426610E+02  3.552785542E+02  4.912705578E+02  7.518101969E+02  1.250000000E+02  0.00000E+00  9.000E+00
      21     1     1     2   512   501 -1.544958476E+01 -3.628212742E+01 -2.520345506E+02  2.551009548E+02  0.000000000E+00  0.00000E+00  9.000E+00
#rwgt            1           1   3.2392542976759031E-002           7      251668           0
</event>
<event>
      5   9999  3.19816E-02  1.61441E+02 -1.00000E+00  1.15142E-01
      21    -1     0     0   502   511  0.000000000E+00  0.000000000E+00  3.244039446E+02  3.244039446E+02  0.000000000E+00  0.00000E+00  9.000E+00
      21    -1     0     0   501   502  0.000000000E+00  0.000000000E+00 -1.215979486E+03  1.215979486E+03  0.000000000E+00  0.00000E+00  9.000E+00
      25     1     1     2     0     0  3.583435953E+02 -5.666376464E+01 -8.979413593E+02  9.764960825E+02  1.250000000E+02  0.00000E+00  9.000E+00
      25     1     1     2     0     0 -2.992818192E+02  2.069131345E+02 -5.994270860E+01  3.893594494E+02  1.250000000E+02  0.00000E+00  9.000E+00
      21     1     1     2   501   511 -5.906177607E+01 -1.502493698E+02  6.630852685E+01  1.745278982E+02  1.651812370E-06  0.00000E+00  9.000E+00
#rwgt            2          11   4.7156046035428329E-003           7      251958           0
</event>
<event>
      5   9999  3.19816E-02  3.87398E+01 -1.00000E+00  1.45708E-01
      21    -1     0     0   502   501  0.000000000E+00  0.000000000E+00  2.055155332E+02  2.055155332E+02  0.000000000E+00  0.00000E+00  9.000E+00
       2    -1     0     0   501     0  0.000000000E+00  0.000000000E+00 -8.014564289E+02  8.014564289E+02  0.000000000E+00  0.00000E+00  9.000E+00
      25     1     1     2     0     0  1.315386698E+02  3.190305746E+01 -6.731441501E+02  6.979027680E+02  1.250000000E+02  0.00000E+00  9.000E+00
      25     1     1     2     0     0 -9.772260709E+01 -5.080394613E+01  1.515607553E+02  2.252252460E+02  1.250000000E+02  0.00000E+00  9.000E+00
       2     1     1     2   502     0 -3.381606269E+01  1.890088867E+01 -7.435750089E+01  8.384394806E+01  9.536743164E-07  0.00000E+00  9.000E+00
#rwgt            1           1   2.8543621019559852E-002           7      251978           0
</event>
<event>
      5   9999  3.19816E-02  2.13301E+02 -1.00000E+00  1.10639E-01
      21    -1     0     0   502   511  0.000000000E+00  0.000000000E+00  8.913175056E+02  8.913175056E+02  0.000000000E+00  0.00000E+00  9.000E+00
      21    -1     0     0   501   502  0.000000000E+00  0.000000000E+00 -7.879710461E+02  7.879710461E+02  0.000000000E+00  0.00000E+00  9.000E+00
      25     1     1     2     0     0  1.172831945E+02  4.523565263E+02 -5.491169200E+02  7.318033660E+02  1.250000000E+02  0.00000E+00  9.000E+00
      25     1     1     2     0     0 -2.892422218E+02 -3.261532244E+02  5.438589668E+02  7.081275058E+02  1.250000000E+02  0.00000E+00  9.000E+00
      21     1     1     2   501   511  1.719590273E+02 -1.262033019E+02  1.086044126E+02  2.393576799E+02  3.568322551E-06  0.00000E+00  9.000E+00
#rwgt            1           1   3.2508006491628091E-002           7      252110           0
</event>
<event>
      5   9999  3.19816E-02  1.88904E+01 -1.00000E+00  1.68441E-01
      21    -1     0     0   502   501  0.000000000E+00  0.000000000E+00  7.223051962E+02  7.223051962E+02  0.000000000E+00  0.00000E+00  9.000E+00
      21    -1     0     0   512   502  0.000000000E+00  0.000000000E+00 -5.525829998E+02  5.525829998E+02  0.000000000E+00  0.00000E+00  9.000E+00
      25     1     1     2     0     0  9.572951701E+01 -2.443172780E+02  4.831392002E+02  5.638293710E+02  1.250000000E+02  0.00000E+00  9.000E+00
      25     1     1     2     0     0 -9.857237564E+01  2.629925285E+02  7.962451655E+01  3.175636108E+02  1.250000000E+02  0.00000E+00  9.000E+00
      21     1     1     2   512   501  2.842858636E+00 -1.867525052E+01 -3.930415204E+02  3.934952142E+02  5.394796609E-06  0.00000E+00  9.000E+00
#rwgt            1           1   2.8428617824487964E-002           7      252191           0
</event>
<event>
      5   9999  3.19816E-02  2.99597E+01 -1.00000E+00  1.53080E-01
      21    -1     0     0   502   501  0.000000000E+00  0.000000000E+00  4.922743150E+01  4.922743150E+01  0.000000000E+00  0.00000E+00  9.000E+00
       2    -1     0     0   501     0  0.000000000E+00  0.000000000E+00 -2.571008270E+03  2.571008270E+03  0.000000000E+00  0.00000E+00  9.000E+00
      25     1     1     2     0     0  4.035151839E+01 -1.720607007E+02 -1.399116084E+03  1.415762673E+03  1.250000000E+02  0.00000E+00  9.000E+00
      25     1     1     2     0     0 -6.517960404E+01  1.552931523E+02 -2.298652179E+02  3.111709535E+02  1.250000000E+02  0.00000E+00  9.000E+00
       2     1     1     2   502     0  2.482808565E+01  1.676754840E+01 -8.927995371E+02  8.933020754E+02  1.078959322E-05  0.00000E+00  9.000E+00
#rwgt            1           1   3.4161882578037636E-002           7      252426           0
</event>
<event>
      5   9999  3.19816E-02  1.84260E+01 -1.00000E+00  1.69361E-01
      21    -1     0     0   502   501  0.000000000E+00  0.000000000E+00  1.234510265E+03  1.234510265E+03  0.000000000E+00  0.00000E+00  9.000E+00
      21    -1     0     0   501   511  0.000000000E+00  0.000000000E+00 -8.755134272E+01  8.755134272E+01  0.000000000E+00  0.00000E+00  9.000E+00
      25     1     1     2     0     0 -1.540567186E+02  1.326221067E+02  8.204124772E+02  8.544142604E+02  1.250000000E+02  0.00000E+00  9.000E+00
      25     1     1     2     0     0  1.360931612E+02 -1.285197044E+02  3.628163777E+02  4.269653228E+02  1.250000000E+02  0.00000E+00  9.000E+00
      21     1     1     2   502   511  1.796355741E+01 -4.102402320E+00 -3.626993263E+01  4.068202445E+01  8.259061849E-07  0.00000E+00  9.000E+00
#rwgt            1           1   3.7275281371259641E-002           7      252491           0
</event>
<event>
      5   9999  3.19816E-02  5.23091E+02 -1.00000E+00  9.82981E-02
       1    -1     0     0   502     0  0.000000000E+00  0.000000000E+00  3.671311713E+03  3.671311713E+03  0.000000000E+00  0.00000E+00  9.000E+00
      21    -1     0     0   501   502  0.000000000E+00  0.000000000E+00 -4.136309082E+02  4.136309082E+02  0.000000000E+00  0.00000E+00  9.000E+00
      25     1     1     2     0     0 -2.889328982E+02 -2.721949782E+02 -1.953428077E+02  4.597348566E+02  1.250000000E+02  0.00000E+00  9.000E+00
      25     1     1     2     0     0 -1.813036635E+02  5.013287317E+02  2.205478419E+03  2.272435163E+03  1.250000000E+02  0.00000E+00  9.000E+00
       1     1     1     2   501     0  4.702365617E+02 -2.291337535E+02  1.247545194E+03  1.352772602E+03  1.525878906E-05  0.00000E+00  9.000E+00
#rwgt            2          17   3.4820804222830112E-004           7      252682           0
</event>
<event>
      5   9999  3.19816E-02  1.33808E+01 -1.00000E+00  1.82188E-01
       2    -1     0     0   502     0  0.000000000E+00  0.000000000E+00  4.331557480E+02  4.331557480E+02  0.000000000E+00  0.00000E+00  9.000E+00
      21    -1     0     0   501   502  0.000000000E+00  0.000000000E+00 -2.845403488E+02  2.845403488E+02  0.000000000E+00  0.00000E+00  9.000E+00
      25     1     1     2     0     0 -7.715520822E+01 -1.192426828E+02  7.297376531E+01  2.027853890E+02  1.250000000E+02  0.00000E+00  9.000E+00
      25     1     1     2     0     0  6.400849240E+01  1.217347437E+02 -1.801113601E+02  2.588079152E+02  1.250000000E+02  0.00000E+00  9.000E+00
       2     1     1     2   501     0  1.314671582E+01 -2.492060934E+00  2.557529940E+02  2.561027927E+02  2.697398305E-06  0.00000E+00  9.000E+00
#rwgt            1           1   2.8724428636963208E-002           7      252716           0
</event>
<event>
      5   9999  3.19816E-02  3.50887E+02 -1.00000E+00  1.03427E-01
      21    -1     0     0   502   501  0.000000000E+00  0.000000000E+00  4.554664657E+02  4.554664657E+02  0.000000000E+00  0.00000E+00  9.000E+00
      21    -1     0     0   511   502  0.000000000E+00  0.000000000E+00 -9.779151009E+02  9.779151009E+02  0.000000000E+00  0.00000E+00  9.000E+00
      25     1     1     2     0     0  8.832007622E+01 -4.985178642E+02 -1.618987035E+02  5.460372579E+02  1.250000000E+02  0.00000E+00  9.000E+00
      25     1     1     2     0     0 -1.765967178E+02  1.589163619E+02  1.185761258E+02  2.934725003E+02  1.250000000E+02  0.00000E+00  9.000E+00
      21     1     1     2   511   501  8.827664160E+01  3.396015023E+02 -4.791260575E+02  5.938718084E+02  7.629394531E-06  0.00000E+00  9.000E+00
#rwgt            2          11   2.4959952718120312E-003           7      253078           0
</event>
<event>
      5   9999  3.19816E-02  1.35477E+01 -1.00000E+00  1.81654E-01
      21    -1     0     0   502   501  0.000000000E+00  0.000000000E+00  4.528674226E+02  4.528674226E+02  0.000000000E+00  0.00000E+00  9.000E+00
      21    -1     0     0   501   512  0.000000000E+00  0.000000000E+00 -1.182194617E+02  1.182194617E+02  0.000000000E+00  0.00000E+00  9.000E+00
      25     1     1     2     0     0 -1.345007813E+02 -3.994567348E+01  2.319817617E+02  2.985408762E+02  1.250000000E+02  0.00000E+00  9.000E+00
      25     1     1     2     0     0  1.263107715E+02  5.073755938E+01  1.406350921E+02  2.322325130E+02  1.250000000E+02  0.00000E+00  9.000E+00
      21     1     1     2   502   512  8.190009757E+00 -1.079188589E+01 -3.796889295E+01  4.031349517E+01  8.259061849E-07  0.00000E+00  9.000E+00
#rwgt            1           1   2.3435445298176833E-002           7      253128           0
</event>
<event>
      5   9999  3.19816E-02  6.27265E+01 -1.00000E+00  1.33680E-01
      21    -1     0     0   502   501  0.000000000E+00  0.000000000E+00  3.320431524E+02  3.320431524E+02  0.000000000E+00  0.00000E+00  9.000E+00
      21    -1     0     0   511   502  0.000000000E+00  0.000000000E+00 -1.898669417E+02  1.898669417E+02  0.000000000E+00  0.00000E+00  9.000E+00
      25     1     1     2     0     0 -6.025129569E-01  1.478992190E+02  4.233054244E+01  1.982206267E+02  1.250000000E+02  0.00000E+00  9.000E+00
      25     1     1     2     0     0  1.730488968E+00 -2.106155867E+02  8.476409406E+01  2.591753684E+02  1.250000000E+02  0.00000E+00  9.000E+00
      21     1     1     2   511   501 -1.127976011E+00  6.271636766E+01  1.508157419E+01  6.451409910E+01  8.760057960E-07  0.00000E+00  9.000E+00
#rwgt            1           1   2.8952815209711113E-002           7      253237           0
</event>
<event>
      5   9999  3.19816E-02  1.59121E+02 -1.00000E+00  1.15387E-01
      21    -1     0     0   502   512  0.000000000E+00  0.000000000E+00  4.686242413E+02  4.686242413E+02  0.000000000E+00  0.00000E+00  9.000E+00
      21    -1     0     0   501   502  0.000000000E+00  0.000000000E+00 -1.856657886E+03  1.856657886E+03  0.000000000E+00  0.00000E+00  9.000E+00
      25     1     1     2     0     0  1.295179133E+02  1.201379177E+02  3.460494501E+02  4.081460903E+02  1.250000000E+02  0.00000E+00  9.000E+00
      25     1     1     2     0     0 -1.652679758E+02  3.491510072E+01 -1.745031928E+03  1.757638757E+03  1.250000000E+02  0.00000E+00  9.000E+00
      21     1     1     2   501   512  3.575006249E+01 -1.550530184E+02  1.094883356E+01  1.594972803E+02  4.070608873E-06  0.00000E+00  9.000E+00
#rwgt            1           1   3.1723126181643239E-002           7      253303           0
</event>
<event>
      5   9999  3.19816E-02  4.75513E+01 -1.00000E+00  1.40331E-01
      21    -1     0     0   502   501  0.000000000E+00  0.000000000E+00  3.810428671E+02  3.810428671E+02  0.000000000E+00  0.00000E+00  9.000E+00
      21    -1     0     0   511   502  0.000000000E+00  0.000000000E+00 -1.079921724E+03  1.079921724E+03  0.000000000E+00  0.00000E+00  9.000E+00
      25     1     1     2     0     0 -1.261722402E+02 -3.557943428E+02  2.221828753E+02  4.555208872E+02  1.250000000E+02  0.00000E+00  9.000E+00
      25     1     1     2     0     0  1.016461199E+02  3.150562608E+02 -8.395280522E+02  9.110569311E+02  1.250000000E+02  0.00000E+00  9.000E+00
      21     1     1     2   511   501  2.452612031E+01  4.073808196E+01 -8.153367978E+01  9.438677257E+01  9.536743164E-07  0.00000E+00  9.000E+00
#rwgt            1           1   3.0878842506783633E-002           7      253385           0
</event>
<event>
      5   9999  3.19816E-02  3.01824E+01 -1.00000E+00  1.52857E-01
      21    -1     0     0   502   512  0.000000000E+00  0.000000000E+00  4.724922770E+02  4.724922770E+02  0.000000000E+00  0.00000E+00  9.000E+00
      21    -1     0     0   501   502  0.000000000E+00  0.000000000E+00 -5.746404206E+02  5.746404206E+02  0.000000000E+00  0.00000E+00  9.000E+00
      25     1     1     2     0     0  1.323182322E+02 -5.936519748E+01 -1.533942808E+02  2.453306883E+02  1.250000000E+02  0.00000E+00  9.000E+00
      25     1     1     2     0     0 -1.575131997E+02  7.598422235E+01 -3.438719025E+02  4.055328537E+02  1.250000000E+02  0.00000E+00  9.000E+00
      21     1     1     2   501   512  2.519496751E+01 -1.661902487E+01  3.951180397E+02  3.962691556E+02  5.394796609E-06  0.00000E+00  9.000E+00
#rwgt            1           1   3.3499694421618584E-002           7      253535           0
</event>
<event>
      5   9999  3.19816E-02  9.71925E+01 -1.00000E+00  1.24387E-01
      21    -1     0     0   502   501  0.000000000E+00  0.000000000E+00  3.002519090E+02  3.002519090E+02  0.000000000E+00  0.00000E+00  9.000E+00
      21    -1     0     0   501   511  0.000000000E+00  0.000000000E+00 -5.020762439E+02  5.020762439E+02  0.000000000E+00  0.00000E+00  9.000E+00
      25     1     1     2     0     0  6.991976766E+01  2.048320736E+02 -8.592058905E+01  2.642958568E+02  1.250000000E+02  0.00000E+00  9.000E+00
      25     1     1     2     0     0 -4.716000476E+00 -2.769073815E+02  8.443374695E+01  3.153632766E+02  1.250000000E+02  0.00000E+00  9.000E+00
      21     1     1     2   502   511 -6.520376719E+01  7.207530786E+01 -2.003374928E+02  2.226690196E+02  3.814697266E-06  0.00000E+00  9.000E+00
#rwgt            1           1   3.0229410441242020E-002           7      253661           0
</event>
<event>
      5   9999  3.19816E-02  1.58369E+02 -1.00000E+00  1.15467E-01
      21    -1     0     0   502   501  0.000000000E+00  0.000000000E+00  6.923012345E+02  6.923012345E+02  0.000000000E+00  0.00000E+00  9.000E+00
      -1    -1     0     0     0   502  0.000000000E+00  0.000000000E+00 -6.698033985E+02  6.698033985E+02  0.000000000E+00  0.00000E+00  9.000E+00
      25     1     1     2     0     0 -1.353856340E+02 -3.564582764E+01  4.540960994E+02  4.913533987E+02  1.250000000E+02  0.00000E+00  9.000E+00
      25     1     1     2     0     0  2.256333967E+02  1.657840526E+02  9.487926716E+01  3.209701811E+02  1.250000000E+02  0.00000E+00  9.000E+00
      -1     1     1     2     0   501 -9.024776273E+01 -1.301382249E+02 -5.264775306E+02  5.497810532E+02  1.078959322E-05  0.00000E+00  9.000E+00
#rwgt            1           1   3.0200823347035416E-002           7      253734           0
</event>
<event>
      5   9999  3.19816E-02  3.40008E+00 -1.00000E+00  2.81289E-01
      21    -1     0     0   511   501  0.000000000E+00  0.000000000E+00  1.133508388E+02  1.133508388E+02  0.000000000E+00  0.00000E+00  9.000E+00
      21    -1     0     0   501   502  0.000000000E+00  0.000000000E+00 -7.537680061E+02  7.537680061E+02  0.000000000E+00  0.00000E+00  9.000E+00
      25     1     1     2     0     0 -9.781944319E+01  1.888792352E+02 -9.300573522E+01  2.636647032E+02  1.250000000E+02  0.00000E+00  9.000E+00
      25     1     1     2     0     0  9.787155746E+01 -1.922789201E+02 -5.448520159E+02  5.991984180E+02  1.250000000E+02  0.00000E+00  9.000E+00
      21     1     1     2   511   502 -5.211427109E-02  3.399684913E+00 -2.559416083E+00  4.255723686E+00  5.161913656E-08  0.00000E+00  9.000E+00
#rwgt            1           1   2.6942205955125153E-002           7      253771           0
</event>
<event>
      5   9999  3.19816E-02  2.19497E+02 -1.00000E+00  1.10197E-01
      21    -1     0     0   502   512  0.000000000E+00  0.000000000E+00  1.378852943E+03  1.378852943E+03  0.000000000E+00  0.00000E+00  9.000E+00
      21    -1     0     0   501   502  0.000000000E+00  0.000000000E+00 -1.087240261E+02  1.087240261E+02  0.000000000E+00  0.00000E+00  9.000E+00
      25     1     1     2     0     0 -1.151164441E+02 -9.625977169E+01  3.360587020E+02  3.886877803E+02  1.250000000E+02  0.00000E+00  9.000E+00
      25     1     1     2     0     0  3.266330818E+02  3.761071732E+01  4.859192150E+02  5.998718361E+02  1.250000000E+02  0.00000E+00  9.000E+00
      21     1     1     2   501   512 -2.115166378E+02  5.864905437E+01  4.481510003E+02  4.990173531E+02  9.344061824E-06  0.00000E+00  9.000E+00
#rwgt            1           1   2.7836701184619551E-002           7      254219           0
</event>
<event>
      5   9999  3.19816E-02  3.49064E+01 -1.00000E+00  1.48607E-01
      21    -1     0     0   502   501  0.000000000E+00  0.000000000E+00  5.586322322E+02  5.586322322E+02  0.000000000E+00  0.00000E+00  9.000E+00
       2    -1     0     0   501     0  0.000000000E+00  0.000000000E+00 -4.474175432E+02  4.474175432E+02  0.000000000E+00  0.00000E+00  9.000E+00
      25     1     1     2     0     0  1.968401783E+02  1.547248613E+02  3.199382247E+02  4.250544743E+02  1.250000000E+02  0.00000E+00  9.000E+00
      25     1     1     2     0     0 -2.316895997E+02 -1.527313825E+02  5.983236915E+01  3.101803640E+02  1.250000000E+02  0.00000E+00  9.000E+00
       2     1     1     2   502     0  3.484942140E+01 -1.993478773E+00 -2.685559049E+02  2.708149371E+02  3.814697266E-06  0.00000E+00  9.000E+00
#rwgt            1           1   2.7112986193808624E-002           7      254292           0
</event>
<event>
      5   9999  3.19816E-02  2.29435E+02 -1.00000E+00  1.09519E-01
      21    -1     0     0   511   501  0.000000000E+00  0.000000000E+00  1.141911170E+03  1.141911170E+03  0.000000000E+00  0.00000E+00  9.000E+00
      21    -1     0     0   501   502  0.000000000E+00  0.000000000E+00 -5.856516212E+02  5.856516212E+02  0.000000000E+00  0.00000E+00  9.000E+00
      25     1     1     2     0     0  2.378379046E+02  6.170315133E+01 -3.930789427E+02  4.801147810E+02  1.250000000E+02  0.00000E+00  9.000E+00
      25     1     1     2     0     0 -1.935726723E+01 -1.317510905E+02 -7.521222379E+01  1.975219792E+02  1.250000000E+02  0.00000E+00  9.000E+00
      21     1     1     2   511   502 -2.184806373E+02  7.004793919E+01  1.024550716E+03  1.049926032E+03  2.157918644E-05  0.00000E+00  9.000E+00
#rwgt            1           1   2.8124437827687282E-002           7      254426           0
</event>
<event>
      5   9999  3.19816E-02  1.32798E+02 -1.00000E+00  1.18529E-01
      21    -1     0     0   502   501  0.000000000E+00  0.000000000E+00  6.280617593E+02  6.280617593E+02  0.000000000E+00  0.00000E+00  9.000E+00
      21    -1     0     0   512   502  0.000000000E+00  0.000000000E+00 -3.860720124E+02  3.860720124E+02  0.000000000E+00  0.00000E+00  9.000E+00
      25     1     1     2     0     0 -1.127315496E+02 -1.585804571E+02 -1.177863940E+02  2.595280299E+02  1.250000000E+02  0.00000E+00  9.000E+00
      25     1     1     2     0     0  9.994773156E+01  2.907613099E+02  4.745398605E+02  5.790896024E+02  1.250000000E+02  0.00000E+00  9.000E+00
      21     1     1     2   512   501  1.278381809E+01 -1.321808528E+02 -1.147637197E+02  1.755161394E+02  1.348699152E-06  0.00000E+00  9.000E+00
#rwgt            1           1   2.7785876879491987E-002           7      254492           0
</event>
<event>
      5   9999  3.19816E-02  4.02210E+01 -1.00000E+00  1.44692E-01
      21    -1     0     0   511   501  0.000000000E+00  0.000000000E+00  4.138454608E+02  4.138454608E+02  0.000000000E+00  0.00000E+00  9.000E+00
      21    -1     0     0   501   502  0.000000000E+00  0.000000000E+00 -4.326315921E+02  4.326315921E+02  0.000000000E+00  0.00000E+00  9.000E+00
      25     1     1     2     0     0  8.381200295E+01  2.698776137E+02 -2.373273894E+02  3.896250350E+02  1.250000000E+02  0.00000E+00  9.000E+00
      25     1     1     2     0     0 -5.777146923E+01 -3.005308511E+02  1.221797550E+02  3.524332953E+02  1.250000000E+02  0.00000E+00  9.000E+00
      21     1     1     2   511   502 -2.604053372E+01  3.065323745E+01  9.636150302E+01  1.044187226E+02  1.348699152E-06  0.00000E+00  9.000E+00
#rwgt            1           1   2.7661674826176392E-002           7      254545           0
</event>
<event>
      5   9999  3.19816E-02  1.60092E+01 -1.00000E+00  1.74760E-01
      21    -1     0     0   502   512  0.000000000E+00  0.000000000E+00  2.149401130E+03  2.149401130E+03  0.000000000E+00  0.00000E+00  9.000E+00
      21    -1     0     0   501   502  0.000000000E+00  0.000000000E+00 -2.232923086E+01  2.232923086E+01  0.000000000E+00  0.00000E+00  9.000E+00
      25     1     1     2     0     0 -7.546969335E+01  1.195015463E+02  6.101929338E+02  6.386992334E+02  1.250000000E+02  0.00000E+00  9.000E+00
      25     1     1     2     0     0  8.859314299E+01 -1.286705664E+02  1.272946300E+03  1.288573685E+03  1.250000000E+02  0.00000E+00  9.000E+00
      21     1     1     2   501   512 -1.312344964E+01  9.169020097E+00  2.439326657E+02  2.444574426E+02  0.000000000E+00  0.00000E+00  9.000E+00
#rwgt            1           1   8.7038490326766152E-002           7      254663           0
</event>
<event>
      5   9999  3.19816E-02  1.34644E+02 -1.00000E+00  1.18283E-01
      21    -1     0     0   502   501  0.000000000E+00  0.000000000E+00  7.035875719E+02  7.035875719E+02  0.000000000E+00  0.00000E+00  9.000E+00
      21    -1     0     0   501   511  0.000000000E+00  0.000000000E+00 -2.814594960E+02  2.814594960E+02  0.000000000E+00  0.00000E+00  9.000E+00
      25     1     1     2     0     0 -2.007891413E+02 -1.114096922E+02  1.959699141E+02  3.267378246E+02  1.250000000E+02  0.00000E+00  9.000E+00
      25     1     1     2     0     0  2.939775831E+02  2.085941132E+02  3.168780915E+02  4.959546837E+02  1.250000000E+02  0.00000E+00  9.000E+00
      21     1     1     2   502   511 -9.318844188E+01 -9.718442093E+01 -9.071992977E+01  1.623545596E+02  3.568322551E-06  0.00000E+00  9.000E+00
#rwgt            2          11   3.3534245383461028E-003           7      254819           0
</event>
<event>
      5   9999  3.19816E-02  3.84757E+02 -1.00000E+00  1.02196E-01
      21    -1     0     0   512   501  0.000000000E+00  0.000000000E+00  7.348457119E+02  7.348457119E+02  0.000000000E+00  0.00000E+00  9.000E+00
      21    -1     0     0   501   502  0.000000000E+00  0.000000000E+00 -1.670596113E+03  1.670596113E+03  0.000000000E+00  0.00000E+00  9.000E+00
      25     1     1     2     0     0 -1.620487003E+02 -7.829028486E+02 -9.688128873E+01  8.149893470E+02  1.250000000E+02  0.00000E+00  9.000E+00
      25     1     1     2     0     0 -9.911741303E+01  5.003604685E+02 -1.033491233E+03  1.159273043E+03  1.250000000E+02  0.00000E+00  9.000E+00
      21     1     1     2   512   502  2.611661133E+02  2.825423801E+02  1.946221204E+02  4.311794349E+02  4.672030912E-06  0.00000E+00  9.000E+00
#rwgt            2          11   3.9500914382746633E-003           7      254839           0
</event>
<event>
      5   9999  3.19816E-02  5.66045E+01 -1.00000E+00  1.36069E-01
      21    -1     0     0   502   501  0.000000000E+00  0.000000000E+00  1.661460793E+03  1.661460793E+03  0.000000000E+00  0.00000E+00  9.000E+00
      21    -1     0     0   511   502  0.000000000E+00  0.000000000E+00 -5.231242216E+01  5.231242216E+01  0.000000000E+00  0.00000E+00  9.000E+00
      25     1     1     2     0     0 -3.534052578E+01 -2.063313310E+02  5.913107116E+02  6.396052912E+02  1.250000000E+02  0.00000E+00  9.000E+00
      25     1     1     2     0     0  7.724947880E+00  2.557423567E+02  8.876284821E+02  9.321872935E+02  1.250000000E+02  0.00000E+00  9.000E+00
      21     1     1     2   511   501  2.761557790E+01 -4.941102571E+01  1.302091767E+02  1.419806301E+02  0.000000000E+00  0.00000E+00  9.000E+00
#rwgt            1           1   3.5824126145075741E-002           7      254859           0
</event>
<event>
      5   9999  3.19816E-02  9.92687E+01 -1.00000E+00  1.23971E-01
      21    -1     0     0   512   501  0.000000000E+00  0.000000000E+00  6.085430204E+02  6.085430204E+02  0.000000000E+00  0.00000E+00  9.000E+00
      21    -1     0     0   501   502  0.000000000E+00  0.000000000E+00 -6.355364816E+02  6.355364816E+02  0.000000000E+00  0.00000E+00  9.000E+00
      25     1     1     2     0     0  3.345676961E+02 -3.889881117E+02  4.159833932E+01  5.297194693E+02  1.250000000E+02  0.00000E+00  9.000E+00
      25     1     1     2     0     0 -2.550342052E+02  4.483909801E+02 -1.843395811E+02  5.618745394E+02  1.250000000E+02  0.00000E+00  9.000E+00
      21     1     1     2   512   502 -7.953349098E+01 -5.940286837E+01  1.157477806E+02  1.524854933E+02  1.907348633E-06  0.00000E+00  9.000E+00
#rwgt            1           1   3.2580358124046797E-002           7      254975           0
</event>
<event>
      5   9999  3.19816E-02  1.33876E+02 -1.00000E+00  1.18385E-01
      21    -1     0     0   502   501  0.000000000E+00  0.000000000E+00  2.317727024E+03  2.317727024E+03  0.000000000E+00  0.00000E+00  9.000E+00
      21    -1     0     0   511   502  0.000000000E+00  0.000000000E+00 -8.007624144E+02  8.007624144E+02  0.000000000E+00  0.00000E+00  9.000E+00
      25     1     1     2     0     0  1.177659996E+03  2.815902226E+02  1.367377104E+03  1.830716052E+03  1.250000000E+02  0.00000E+00  9.000E+00
      25     1     1     2     0     0 -1.044074298E+03 -2.727794544E+02  2.567803441E+02  1.116270986E+03  1.250000000E+02  0.00000E+00  9.000E+00
      21     1     1     2   511   501 -1.335856982E+02 -8.810768195E+00 -1.071928387E+02  1.715023996E+02  0.000000000E+00  0.00000E+00  9.000E+00
#rwgt            1           1   6.6535795324853750E-002           7      255039           0
</event>
<event>
      5   9999  3.19816E-02  3.69647E+01 -1.00000E+00  1.46998E-01
       1    -1     0     0   502     0  0.000000000E+00  0.000000000E+00  5.256884569E+02  5.256884569E+02  0.000000000E+00  0.00000E+00  9.000E+00
      21    -1     0     0   501   502  0.000000000E+00  0.000000000E+00 -3.852352134E+02  3.852352134E+02  0.000000000E+00  0.00000E+00  9.000E+00
      25     1     1     2     0     0 -1.759442648E+02 -9.083589250E+01 -2.972523878E+02  3.784065615E+02  1.250000000E+02  0.00000E+00  9.000E+00
      25     1     1     2     0     0  1.903319895E+02  1.248856026E+02  3.385075404E+02  4.266556397E+02  1.250000000E+02  0.00000E+00  9.000E+00
       1     1     1     2   501     0 -1.438772472E+01 -3.404971015E+01  9.919809104E+01  1.058614691E+02  0.000000000E+00  0.00000E+00  9.000E+00
#rwgt            1           1   2.9621816715402698E-002           7      255150           0
</event>
<event>
      5   9999  3.19816E-02  9.60049E+01 -1.00000E+00  1.24630E-01
       1    -1     0     0   502     0  0.000000000E+00  0.000000000E+00  6.419501058E+02  6.419501058E+02  0.000000000E+00  0.00000E+00  9.000E+00
      21    -1     0     0   501   502  0.000000000E+00  0.000000000E+00 -1.769551848E+02  1.769551848E+02  0.000000000E+00  0.00000E+00  9.000E+00
      25     1     1     2     0     0 -1.057956989E+02 -1.820547978E+01  1.415057201E+02  2.171935502E+02  1.250000000E+02  0.00000E+00  9.000E+00
      25     1     1     2     0     0  1.660584750E+01  5.373161740E+01 -9.859584652E+01  1.688460300E+02  1.250000000E+02  0.00000E+00  9.000E+00
       1     1     1     2   501     0  8.918985143E+01 -3.552613762E+01  4.220850475E+02  4.328657105E+02  5.394796609E-06  0.00000E+00  9.000E+00
#rwgt            1           1   3.3714032794210751E-002           7      255250           0
</event>
<event>
      5   9999  3.19816E-02  2.71365E+01 -1.00000E+00  1.56129E-01
      21    -1     0     0   511   501  0.000000000E+00  0.000000000E+00  4.525172642E+02  4.525172642E+02  0.000000000E+00  0.00000E+00  9.000E+00
      21    -1     0     0   501   502  0.000000000E+00  0.000000000E+00 -1.369246922E+02  1.369246922E+02  0.000000000E+00  0.00000E+00  9.000E+00
      25     1     1     2     0     0 -1.152419489E+02 -1.118273843E+02  5.492452177E+01  2.107789690E+02  1.250000000E+02  0.00000E+00  9.000E+00
      25     1     1     2     0     0  1.260336154E+02  1.367257147E+02  1.624234279E+02  2.767395223E+02  1.250000000E+02  0.00000E+00  9.000E+00
      21     1     1     2   511   502 -1.079166651E+01 -2.489833033E+01  9.824462235E+01  1.019234651E+02  1.348699152E-06  0.00000E+00  9.000E+00
#rwgt            1           1   2.4785837503202110E-002           7      255293           0
</event>
<event>
      5   9999  3.19816E-02  2.85416E+02 -1.00000E+00  1.06300E-01
      21    -1     0     0   502   512  0.000000000E+00  0.000000000E+00  1.461351965E+02  1.461351965E+02  0.000000000E+00  0.00000E+00  9.000E+00
      21    -1     0     0   501   502  0.000000000E+00  0.000000000E+00 -1.026478009E+03  1.026478009E+03  0.000000000E+00  0.00000E+00  9.000E+00
      25     1     1     2     0     0 -2.210876820E+01  2.818258553E+01 -6.180673057E+01  1.439726630E+02  1.250000000E+02  0.00000E+00  9.000E+00
      25     1     1     2     0     0  3.039688309E+02  1.672936281E+01 -5.218784301E+02  6.169757026E+02  1.250000000E+02  0.00000E+00  9.000E+00
      21     1     1     2   501   512 -2.818600627E+02 -4.491194834E+01 -2.966576521E+02  4.116648401E+02  6.607249480E-06  0.00000E+00  9.000E+00
#rwgt            2          11   2.9710814317592113E-003           7      255407           0
</event>
<event>
      5   9999  3.19816E-02  7.90079E+00 -1.00000E+00  2.08382E-01
      21    -1     0     0   502   501  0.000000000E+00  0.000000000E+00  1.067433980E+02  1.067433980E+02  0.000000000E+00  0.00000E+00  9.000E+00
      21    -1     0     0   501   511  0.000000000E+00  0.000000000E+00 -7.179210739E+02  7.179210739E+02  0.000000000E+00  0.00000E+00  9.000E+00
      25     1     1     2     0     0 -1.434878563E+02 -5.591584586E+01 -5.771515301E+02  6.102820950E+02  1.250000000E+02  0.00000E+00  9.000E+00
      25     1     1     2     0     0  1.432111005E+02  6.381178534E+01 -2.450042342E+01  2.020065197E+02  1.250000000E+02  0.00000E+00  9.000E+00
      21     1     1     2   502   511  2.767558007E-01 -7.895939482E+00 -9.525722342E+00  1.237585715E+01  0.000000000E+00  0.00000E+00  9.000E+00
#rwgt            1           1   2.7149347854122347E-002           7      255427           0
</event>
<event>
      5   9999  3.19816E-02  9.77965E+01 -1.00000E+00  1.24265E-01
      21    -1     0     0   502   501  0.000000000E+00  0.000000000E+00  2.402728726E+02  2.402728726E+02  0.000000000E+00  0.00000E+00  9.000E+00
       2    -1     0     0   501     0  0.000000000E+00  0.000000000E+00 -9.597784674E+02  9.597784674E+02  0.000000000E+00  0.00000E+00  9.000E+00
      25     1     1     2     0     0 -1.939468275E+02  1.480059547E+02 -5.231413326E+01  2.790750850E+02  1.250000000E+02  0.00000E+00  9.000E+00
      25     1     1     2     0     0  1.785626167E+02 -2.445848213E+02 -9.588241649E+01  3.413572626E+02  1.250000000E+02  0.00000E+00  9.000E+00
       2     1     1     2   502     0  1.538421082E+01  9.657886658E+01 -5.713090451E+02  5.796189924E+02  0.000000000E+00  0.00000E+00  9.000E+00
#rwgt            1           1   2.6860983568434277E-002           7      255740           0
</event>
<event>
      5   9999  3.19816E-02  2.20635E+01 -1.00000E+00  1.62926E-01
      21    -1     0     0   511   501  0.000000000E+00  0.000000000E+00  9.391343403E+02  9.391343403E+02  0.000000000E+00  0.00000E+00  9.000E+00
      21    -1     0     0   501   502  0.000000000E+00  0.000000000E+00 -5.930159539E+02  5.930159539E+02  0.000000000E+00  0.00000E+00  9.000E+00
      25     1     1     2     0     0 -6.514567294E+02 -2.187737458E+02 -1.994065202E+01  6.987706718E+02  1.250000000E+02  0.00000E+00  9.000E+00
      25     1     1     2     0     0  6.504920123E+02  1.967313267E+02  2.817384532E+02  7.462202282E+02  1.250000000E+02  0.00000E+00  9.000E+00
      21     1     1     2   511   502  9.647171160E-01  2.204241905E+01  8.432058511E+01  8.715939416E+01  9.536743164E-07  0.00000E+00  9.000E+00
#rwgt            1           1   2.7867937576346750E-002           7      255825           0
</event>
<event>
      5   9999  3.19816E-02  3.52882E+01 -1.00000E+00  1.48299E-01
      -2    -1     0     0     0   501  0.000000000E+00  0.000000000E+00  1.186529072E+02  1.186529072E+02  0.000000000E+00  0.00000E+00  9.000E+00
      21    -1     0     0   501   502  0.000000000E+00  0.000000000E+00 -4.216983912E+02  4.216983912E+02  0.000000000E+00  0.00000E+00  9.000E+00
      25     1     1     2     0     0  8.647835145E+01 -4.853105455E+01 -6.283472811E+01  1.714846103E+02  1.250000000E+02  0.00000E+00  9.000E+00
      25     1     1     2     0     0 -1.130902421E+02  2.535645709E+01 -2.722442145E+02  3.212075110E+02  1.250000000E+02  0.00000E+00  9.000E+00
      -2     1     1     2     0   502  2.661189068E+01  2.317459746E+01  3.203345860E+01  4.765917711E+01  4.768371582E-07  0.00000E+00  9.000E+00
#rwgt            1           1   3.8379608919698736E-002           7      256041           0
</event>
<event>
      5   9999  3.19816E-02  1.51014E+02 -1.00000E+00  1.16278E-01
      21    -1     0     0   502   501  0.000000000E+00  0.000000000E+00  6.361635384E+02  6.361635384E+02  0.000000000E+00  0.00000E+00  9.000E+00
      21    -1     0     0   501   511  0.000000000E+00  0.000000000E+00 -2.427694919E+02  2.427694919E+02  0.000000000E+00  0.00000E+00  9.000E+00
      25     1     1     2     0     0 -5.589409531E+01 -2.874007890E+02 -1.863783199E+01  3.188976830E+02  1.250000000E+02  0.00000E+00  9.000E+00
      25     1     1     2     0     0  6.880755680E+01  1.369403613E+02  3.385756060E+02  3.921040467E+02  1.250000000E+02  0.00000E+00  9.000E+00
      21     1     1     2   502   511 -1.291346149E+01  1.504604277E+02  7.345627245E+01  1.679313007E+02  1.348699152E-06  0.00000E+00  9.000E+00
#rwgt            2          11   3.2040562175956930E-003           7      256138           0
</event>
<event>
      5   9999  3.19816E-02  1.64326E+01 -1.00000E+00  1.73731E-01
      21    -1     0     0   502   501  0.000000000E+00  0.000000000E+00  5.666045694E+02  5.666045694E+02  0.000000000E+00  0.00000E+00  9.000E+00
      -2    -1     0     0     0   502  0.000000000E+00  0.000000000E+00 -5.526975273E+02  5.526975273E+02  0.000000000E+00  0.00000E+00  9.000E+00
      25     1     1     2     0     0 -4.075902553E+02  8.997330168E+01 -4.107818583E+00  4.357371747E+02  1.250000000E+02  0.00000E+00  9.000E+00
      25     1     1     2     0     0  4.230185251E+02 -8.431642889E+01  2.065539274E+02  4.943110941E+02  1.250000000E+02  0.00000E+00  9.000E+00
      -2     1     1     2     0   501 -1.542826978E+01 -5.656872791E+00 -1.885390667E+02  1.892538279E+02  2.697398305E-06  0.00000E+00  9.000E+00
#rwgt            1           1   2.5090393264835163E-002           7      256158           0
</event>
<event>
      5   9999  3.19816E-02  7.03174E+01 -1.00000E+00  1.31121E-01
      21    -1     0     0   511   501  0.000000000E+00  0.000000000E+00  3.735759394E+02  3.735759394E+02  0.000000000E+00  0.00000E+00  9.000E+00
      21    -1     0     0   501   502  0.000000000E+00  0.000000000E+00 -9.798655069E+02  9.798655069E+02  0.000000000E+00  0.00000E+00  9.000E+00
      25     1     1     2     0     0  5.432974907E+01 -4.742980952E+02 -5.301829996E+02  7.243130662E+02  1.250000000E+02  0.00000E+00  9.000E+00
      25     1     1     2     0     0 -9.536893942E+01  5.313973764E+02 -6.588482470E+01  5.580718738E+02  1.250000000E+02  0.00000E+00  9.000E+00
      21     1     1     2   511   502  4.103919035E+01 -5.709928114E+01 -1.022174311E+01  7.105650627E+01  3.153981341E-07  0.00000E+00  9.000E+00
#rwgt            1           1   3.0309182101984192E-002           7      256343           0
</event>
<event>
      5   9999  3.19816E-02  4.46889E+02 -1.00000E+00  1.00258E-01
       1    -1     0     0   502     0  0.000000000E+00  0.000000000E+00  2.638906759E+03  2.638906759E+03  0.000000000E+00  0.00000E+00  9.000E+00
      21    -1     0     0   501   502  0.000000000E+00  0.000000000E+00 -2.488374967E+02  2.488374967E+02  0.000000000E+00  0.00000E+00  9.000E+00
      25     1     1     2     0     0  9.855277234E+01  1.648026854E+01  6.622739461E+02  6.813340061E+02  1.250000000E+02  0.00000E+00  9.000E+00
      25     1     1     2     0     0  3.400694208E+02 -1.020389916E+02 -4.414118050E+01  3.789889320E+02  1.250000000E+02  0.00000E+00  9.000E+00
       1     1     1     2   501     0 -4.386221931E+02  8.555872309E+01  1.771936497E+03  1.827421318E+03  2.157918644E-05  0.00000E+00  9.000E+00
#rwgt            2          17   5.9687545636401469E-004           7      256452           0
</event>
<event>
      5   9999  3.19816E-02  2.46419E+01 -1.00000E+00  1.59222E-01
      21    -1     0     0   502   511  0.000000000E+00  0.000000000E+00  3.856805917E+02  3.856805917E+02  0.000000000E+00  0.00000E+00  9.000E+00
      21    -1     0     0   501   502  0.000000000E+00  0.000000000E+00 -7.449074866E+02  7.449074866E+02  0.000000000E+00  0.00000E+00  9.000E+00
      25     1     1     2     0     0  2.746919549E+02 -3.951606812E+02 -3.364051586E+02  6.003341276E+02  1.250000000E+02  0.00000E+00  9.000E+00
      25     1     1     2     0     0 -2.982393466E+02  3.878981202E+02 -1.948668802E+01  5.053873668E+02  1.250000000E+02  0.00000E+00  9.000E+00
      21     1     1     2   501   511  2.354739170E+01  7.262561039E+00 -3.335048199E+00  2.486658391E+01  5.144678504E-07  0.00000E+00  9.000E+00
#rwgt            1           1   2.5063880090881320E-002           7      256471           0
</event>
<event>
      5   9999  3.19816E-02  1.48111E+01 -1.00000E+00  1.77904E-01
      21    -1     0     0   502   501  0.000000000E+00  0.000000000E+00  2.048908454E+02  2.048908454E+02  0.000000000E+00  0.00000E+00  9.000E+00
      21    -1     0     0   501   512  0.000000000E+00  0.000000000E+00 -6.080373001E+02  6.080373001E+02  0.000000000E+00  0.00000E+00  9.000E+00
      25     1     1     2     0     0  2.443825910E+02 -1.745950981E+02 -2.930326001E+02  4.378349047E+02  1.250000000E+02  0.00000E+00  9.000E+00
      25     1     1     2     0     0 -2.470220617E+02  1.600210385E+02 -6.327489605E+01  3.259683178E+02  1.250000000E+02  0.00000E+00  9.000E+00
      21     1     1     2   502   512  2.639470669E+00  1.457405960E+01 -4.683895859E+01  4.912492301E+01  6.743495762E-07  0.00000E+00  9.000E+00
#rwgt            1           1   2.9202037447240047E-002           7      256681           0
</event>
<event>
      5   9999  3.19816E-02  7.32153E+01 -1.00000E+00  1.30240E-01
      21    -1     0     0   502   511  0.000000000E+00  0.000000000E+00  1.276127724E+03  1.276127724E+03  0.000000000E+00  0.00000E+00  9.000E+00
      21    -1     0     0   501   502  0.000000000E+00  0.000000000E+00 -2.627862512E+02  2.627862512E+02  0.000000000E+00  0.00000E+00  9.000E+00
      25     1     1     2     0     0 -3.724898921E+02  2.553412605E+02  1.720482506E+02  4.991727953E+02  1.250000000E+02  0.00000E+00  9.000E+00
      25     1     1     2     0     0  4.213027688E+02 -3.099102878E+02  7.429200531E+02  9.171126511E+02  1.250000000E+02  0.00000E+00  9.000E+00
      21     1     1     2   501   511 -4.881287670E+01  5.456902736E+01  9.837316896E+01  1.226285287E+02  1.348699152E-06  0.00000E+00  9.000E+00
#rwgt            1           1   2.9635355494535245E-002           7      256849           0
</event>
<event>
      5   9999  3.19816E-02  2.31094E+02 -1.00000E+00  1.09410E-01
      21    -1     0     0   502   501  0.000000000E+00  0.000000000E+00  4.150867256E+02  4.150867256E+02  0.000000000E+00  0.00000E+00  9.000E+00
      21    -1     0     0   501   512  0.000000000E+00  0.000000000E+00 -1.719515721E+03  1.719515721E+03  0.000000000E+00  0.00000E+00  9.000E+00
      25     1     1     2     0     0  2.732145321E+02  2.498732233E+02 -4.261404369E+01  3.930951094E+02  1.250000000E+02  0.00000E+00  9.000E+00
      25     1     1     2     0     0 -4.573677677E+02 -1.102586308E+02 -2.947253535E+01  4.876841918E+02  1.250000000E+02  0.00000E+00  9.000E+00
      21     1     1     2   502   512  1.841532356E+02 -1.396145925E+02 -1.232342416E+03  1.253823145E+03  1.525878906E-05  0.00000E+00  9.000E+00
#rwgt            1           1   2.7381825840414563E-002           7      256921           0
</event>
<event>
      5   9999  3.19816E-02  2.26392E+01 -1.00000E+00  1.62047E-01
      21    -1     0     0   502   501  0.000000000E+00  0.000000000E+00  3.724762377E+02  3.724762377E+02  0.000000000E+00  0.00000E+00  9.000E+00
      21    -1     0     0   511   502  0.000000000E+00  0.000000000E+00 -4.753753759E+02  4.753753759E+02  0.000000000E+00  0.00000E+00  9.000E+00
      25     1     1     2     0     0 -3.696582546E+00 -2.275522742E+02 -3.520875669E+02  4.374749787E+02  1.250000000E+02  0.00000E+00  9.000E+00
      25     1     1     2     0     0  1.271204930E+01  2.483189420E+02  2.637793392E+02  3.834428679E+02  1.250000000E+02  0.00000E+00  9.000E+00
      21     1     1     2   511   501 -9.015466755E+00 -2.076666781E+01 -1.459091053E+01  2.693376696E+01  4.768371582E-07  0.00000E+00  9.000E+00
#rwgt            1           1   3.0775520513844027E-002           7      256969           0
</event>
<event>
      5   9999  3.19816E-02  1.01943E+02 -1.00000E+00  1.23453E-01
       2    -1     0     0   502     0  0.000000000E+00  0.000000000E+00  7.075301701E+02  7.075301701E+02  0.000000000E+00  0.00000E+00  9.000E+00
      21    -1     0     0   501   502  0.000000000E+00  0.000000000E+00 -2.160969915E+03  2.160969915E+03  0.000000000E+00  0.00000E+00  9.000E+00
      25     1     1     2     0     0  4.675909008E+01  2.435872108E+02  2.082860720E+01  2.785318162E+02  1.250000000E+02  0.00000E+00  9.000E+00
      25     1     1     2     0     0  1.410928330E+00 -3.334317646E+02 -2.011689840E+03  2.042963471E+03  1.250000000E+02  0.00000E+00  9.000E+00
       2     1     1     2   501     0 -4.817001841E+01  8.984455379E+01  5.374214872E+02  5.470047983E+02  1.078959322E-05  0.00000E+00  9.000E+00
#rwgt            2          18   3.6914754448098435E-003           7      257157           0
</event>
<event>
      5   9999  3.19816E-02  5.58220E+01 -1.00000E+00  1.36400E-01
      21    -1     0     0   502   501  0.000000000E+00  0.000000000E+00  6.997756672E+02  6.997756672E+02  0.000000000E+00  0.00000E+00  9.000E+00
      21    -1     0     0   501   511  0.000000000E+00  0.000000000E+00 -4.712412716E+02  4.712412716E+02  0.000000000E+00  0.00000E+00  9.000E+00
      25     1     1     2     0     0 -1.325245385E+02 -4.550836995E+02 -1.155718841E+02  5.036325915E+02  1.250000000E+02  0.00000E+00  9.000E+00
      25     1     1     2     0     0  1.791303024E+02  4.243592168E+02  3.718635657E+02  6.050420825E+02  1.250000000E+02  0.00000E+00  9.000E+00
      21     1     1     2   502   511 -4.660576389E+01  3.072448274E+01 -2.775728598E+01  6.234226490E+01  9.536743164E-07  0.00000E+00  9.000E+00
#rwgt            1           1   2.9629856220163505E-002           7      257176           0
</event>
<event>
      5   9999  3.19816E-02  1.58970E+02 -1.00000E+00  1.15403E-01
       1    -1     0     0   502     0  0.000000000E+00  0.000000000E+00  3.512314360E+02  3.512314360E+02  0.000000000E+00  0.00000E+00  9.000E+00
      21    -1     0     0   501   502  0.000000000E+00  0.000000000E+00 -2.639946894E+02  2.639946894E+02  0.000000000E+00  0.00000E+00  9.000E+00
      25     1     1     2     0     0 -1.600524847E+02 -7.583670200E+01 -3.895809850E+01  2.202515305E+02  1.250000000E+02  0.00000E+00  9.000E+00
      25     1     1     2     0     0  3.161100924E+01  1.695075224E+02  9.391868899E+01  2.327612000E+02  1.250000000E+02  0.00000E+00  9.000E+00
       1     1     1     2   501     0  1.284414755E+02 -9.367082045E+01  3.227615615E+01  1.622133949E+02  1.784161275E-06  0.00000E+00  9.000E+00
#rwgt            1           1   2.7005896571981151E-002           7      257304           0
</event>
<event>
      5   9999  3.19816E-02  1.06423E+02 -1.00000E+00  1.22624E-01
      21    -1     0     0   511   501  0.000000000E+00  0.000000000E+00  7.044933657E+02  7.044933657E+02  0.000000000E+00  0.00000E+00  9.000E+00
      21    -1     0     0   501   502  0.000000000E+00  0.000000000E+00 -9.744743195E+01  9.744743195E+01  0.000000000E+00  0.00000E+00  9.000E+00
      25     1     1     2     0     0  6.035363434E+01  5.670955357E+01  3.037372934E+02  3.387327532E+02  1.250000000E+02  0.00000E+00  9.000E+00
      25     1     1     2     0     0 -1.343750509E+02 -1.331735724E+02  1.344676779E+02  2.636255130E+02  1.250000000E+02  0.00000E+00  9.000E+00
      21     1     1     2   511   502  7.402141656E+01  7.646401885E+01  1.688409624E+02  1.995825315E+02  2.697398305E-06  0.00000E+00  9.000E+00
#rwgt            1           1   2.7786954686366484E-002           7      257378           0
</event>
<event>
      5   9999  3.19816E-02  3.01171E+02 -1.00000E+00  1.05537E-01
      21    -1     0     0   502   501  0.000000000E+00  0.000000000E+00  1.035743915E+03  1.035743915E+03  0.000000000E+00  0.00000E+00  9.000E+00
       1    -1     0     0   501     0  0.000000000E+00  0.000000000E+00 -1.720857739E+03  1.720857739E+03  0.000000000E+00  0.00000E+00  9.000E+00
      25     1     1     2     0     0  1.808120837E+02 -1.345271375E+02  1.011033483E+02  2.768346932E+02  1.250000000E+02  0.00000E+00  9.000E+00
      25     1     1     2     0     0 -4.991219181E+01 -1.367088472E+02  8.217453646E+02  8.438429831E+02  1.250000000E+02  0.00000E+00  9.000E+00
       1     1     1     2   502     0 -1.308998919E+02  2.712359847E+02 -1.607962537E+03  1.635923978E+03  2.157918644E-05  0.00000E+00  9.000E+00
#rwgt            1           1   2.6773118482664601E-002           7      257412           0
</event>
<event>
      5   9999  3.19816E-02  3.85623E+01 -1.00000E+00  1.45833E-01
      21    -1     0     0   502   501  0.000000000E+00  0.000000000E+00  3.923823205E+02  3.923823205E+02  0.000000000E+00  0.00000E+00  9.000E+00
      21    -1     0     0   501   511  0.000000000E+00  0.000000000E+00 -8.294409522E+02  8.294409522E+02  0.000000000E+00  0.00000E+00  9.000E+00
      25     1     1     2     0     0  7.749411705E+01  3.224310543E+02  4.692174842E+01  3.574825498E+02  1.250000000E+02  0.00000E+00  9.000E+00
      25     1     1     2     0     0 -1.025647635E+02 -3.517314879E+02 -8.408848023E+00  3.872083148E+02  1.250000000E+02  0.00000E+00  9.000E+00
      21     1     1     2   502   511  2.507064648E+01  2.930043364E+01 -4.755715321E+02  4.771324081E+02  0.000000000E+00  0.00000E+00  9.000E+00
#rwgt            1           1   2.9105465175922413E-002           7      257444           0
</event>
<event>
      5   9999  3.19816E-02  2.30132E+02 -1.00000E+00  1.09473E-01
      21    -1     0     0   512   501  0.000000000E+00  0.000000000E+00  7.461515278E+02  7.461515278E+02  0.000000000E+00  0.00000E+00  9.000E+00
      21    -1     0     0   501   502  0.000000000E+00  0.000000000E+00 -5.065073668E+02  5.065073668E+02  0.000000000E+00  0.00000E+00  9.000E+00
      25     1     1     2     0     0  3.250482738E+02 -3.206517472E+01 -2.565880335E+01  3.506678341E+02  1.250000000E+02  0.00000E+00  9.000E+00
      25     1     1     2     0     0 -5.425833839E+02 -4.303088982E+01  1.037348305E+01  5.585525894E+02  1.250000000E+02  0.00000E+00  9.000E+00
      21     1     1     2   512   502  2.175351101E+02  7.509606454E+01  2.549294813E+02  3.434384711E+02  2.697398305E-06  0.00000E+00  9.000E+00
#rwgt            1           1   2.6679173683504177E-002           7      257607           0
</event>
<event>
      5   9999  3.19816E-02  1.86331E+02 -1.00000E+00  1.12779E-01
      21    -1     0     0   502   501  0.000000000E+00  0.000000000E+00  1.819456243E+02  1.819456243E+02  0.000000000E+00  0.00000E+00  9.000E+00
      21    -1     0     0   501   511  0.000000000E+00  0.000000000E+00 -6.580757672E+02  6.580757672E+02  0.000000000E+00  0.00000E+00  9.000E+00
      25     1     1     2     0     0 -2.380688037E+02 -6.522131418E+01 -2.432742401E+02  3.684262898E+02  1.250000000E+02  0.00000E+00  9.000E+00
      25     1     1     2     0     0  5.182042306E+01  7.077605108E+01  2.367770215E+01  1.545323242E+02  1.250000000E+02  0.00000E+00  9.000E+00
      21     1     1     2   502   511  1.862483806E+02 -5.554736903E+00 -2.565336050E+02  3.170627775E+02  5.394796609E-06  0.00000E+00  9.000E+00
#rwgt            1           1   2.4484905258679732E-002           7      257654           0
</event>
<event>
      5   9999  3.19816E-02  1.36711E+02 -1.00000E+00  1.18013E-01
      21    -1     0     0   512   501  0.000000000E+00  0.000000000E+00  2.015108169E+02  2.015108169E+02  0.000000000E+00  0.00000E+00  9.000E+00
      21    -1     0     0   501   502  0.000000000E+00  0.000000000E+00 -8.728814732E+02  8.728814732E+02  0.000000000E+00  0.00000E+00  9.000E+00
      25     1     1     2     0     0  2.325487910E+02 -1.234817005E+02 -3.012317747E+02  4.191565968E+02  1.250000000E+02  0.00000E+00  9.000E+00
      25     1     1     2     0     0 -3.578052613E+02  6.870319134E+01 -3.431848604E+02  5.158929946E+02  1.250000000E+02  0.00000E+00  9.000E+00
      21     1     1     2   512   502  1.252564703E+02  5.477850913E+01 -2.695402119E+01  1.393426987E+02  2.739220927E-06  0.00000E+00  9.000E+00
#rwgt            1           1   2.6637901270204645E-002           7      257708           0
</event>
<event>
      5   9999  3.19816E-02  3.32075E+01 -1.00000E+00  1.50038E-01
      21    -1     0     0   502   501  0.000000000E+00  0.000000000E+00  6.920564093E+01  6.920564093E+01  0.000000000E+00  0.00000E+00  9.000E+00
       2    -1     0     0   501     0  0.000000000E+00  0.000000000E+00 -2.423627594E+03  2.423627594E+03  0.000000000E+00  0.00000E+00  9.000E+00
      25     1     1     2     0     0  2.615750392E+01  1.605333617E+02 -1.818947498E+02  2.741639568E+02  1.250000000E+02  0.00000E+00  9.000E+00
      25     1     1     2     0     0 -3.138802719E+01 -1.277403289E+02 -3.362248015E+02  3.820666395E+02  1.250000000E+02  0.00000E+00  9.000E+00
       2     1     1     2   502     0  5.230523264E+00 -3.279303279E+01 -1.836302402E+03  1.836602639E+03  0.000000000E+00  0.00000E+00  9.000E+00
#rwgt            1           1   2.6865819313592717E-002           7      257810           0
</event>
<event>
      5   9999  3.19816E-02  1.17664E+02 -1.00000E+00  1.20732E-01
      21    -1     0     0   502   501  0.000000000E+00  0.000000000E+00  6.778419884E+02  6.778419884E+02  0.000000000E+00  0.00000E+00  9.000E+00
      21    -1     0     0   501   511  0.000000000E+00  0.000000000E+00 -4.069202455E+02  4.069202455E+02  0.000000000E+00  0.00000E+00  9.000E+00
      25     1     1     2     0     0 -3.049343465E+02 -9.654063188E+01  1.872859899E+02  3.911599306E+02  1.250000000E+02  0.00000E+00  9.000E+00
      25     1     1     2     0     0  3.942011494E+02  1.731968388E+02  2.315380981E+02  5.046053726E+02  1.250000000E+02  0.00000E+00  9.000E+00
      21     1     1     2   502   511 -8.926680292E+01 -7.665620697E+01 -1.479023451E+02  1.889969308E+02  2.697398305E-06  0.00000E+00  9.000E+00
#rwgt            1           1   2.5686168589541990E-002           7      257948           0
</event>
<event>
      5   9999  3.19816E-02  1.04414E+01 -1.00000E+00  1.93613E-01
      21    -1     0     0   502   512  0.000000000E+00  0.000000000E+00  2.790899847E+02  2.790899847E+02  0.000000000E+00  0.00000E+00  9.000E+00
      21    -1     0     0   501   502  0.000000000E+00  0.000000000E+00 -3.423311005E+02  3.423311005E+02  0.000000000E+00  0.00000E+00  9.000E+00
      25     1     1     2     0     0 -2.396498081E+02  9.431313780E+01  6.841317433E+00  2.863543297E+02  1.250000000E+02  0.00000E+00  9.000E+00
      25     1     1     2     0     0  2.353279592E+02 -1.038181116E+02 -1.003319208E+02  3.030659054E+02  1.250000000E+02  0.00000E+00  9.000E+00
      21     1     1     2   501   512  4.321848935E+00  9.504973833E+00  3.024948763E+01  3.200085011E+01  3.371747881E-07  0.00000E+00  9.000E+00
#rwgt            1           1   2.7296086400752460E-002           7      258041           0
</event>
<event>
      5   9999  3.19816E-02  4.88994E+01 -1.00000E+00  1.39629E-01
      21    -1     0     0   511   501  0.000000000E+00  0.000000000E+00  3.794133512E+02  3.794133512E+02  0.000000000E+00  0.00000E+00  9.000E+00
      21    -1     0     0   501   502  0.000000000E+00  0.000000000E+00 -1.153085623E+03  1.153085623E+03  0.000000000E+00  0.00000E+00  9.000E+00
      25     1     1     2     0     0 -2.153202639E+02 -1.540352266E+02 -2.660919347E+02  3.956255613E+02  1.250000000E+02  0.00000E+00  9.000E+00
      25     1     1     2     0     0  2.374400417E+02  1.104248704E+02 -7.944935898E+02  8.458229659E+02  1.250000000E+02  0.00000E+00  9.000E+00
      21     1     1     2   511   502 -2.211977779E+01  4.361035626E+01  2.869132530E+02  2.910504466E+02  3.814697266E-06  0.00000E+00  9.000E+00
#rwgt            1           1   3.1139142845782560E-002           7      258297           0
</event>
<event>
      5   9999  3.19816E-02  2.80424E+01 -1.00000E+00  1.55104E-01
       2    -1     0     0   502     0  0.000000000E+00  0.000000000E+00  9.416269207E+01  9.416269207E+01  0.000000000E+00  0.00000E+00  9.000E+00
      21    -1     0     0   501   502  0.000000000E+00  0.000000000E+00 -1.579667261E+03  1.579667261E+03  0.000000000E+00  0.00000E+00  9.000E+00
      25     1     1     2     0     0  5.938471301E+01 -3.903914195E+00 -2.908382272E+02  3.221081482E+02  1.250000000E+02  0.00000E+00  9.000E+00
      25     1     1     2     0     0 -7.403592560E+01  2.781457767E+01 -1.266240124E+03  1.274850587E+03  1.250000000E+02  0.00000E+00  9.000E+00
       2     1     1     2   501     0  1.465121259E+01 -2.391066347E+01  7.157378191E+01  7.687121773E+01  3.162979880E-06  0.00000E+00  9.000E+00
#rwgt            1           1   2.6108823429491904E-002           7      258401           0
</event>
<event>
      5   9999  3.19816E-02  1.07218E+02 -1.00000E+00  1.22482E-01
       1    -1     0     0   502     0  0.000000000E+00  0.000000000E+00  1.201860655E+03  1.201860655E+03  0.000000000E+00  0.00000E+00  9.000E+00
      21    -1     0     0   501   502  0.000000000E+00  0.000000000E+00 -8.963174362E+01  8.963174362E+01  0.000000000E+00  0.00000E+00  9.000E+00
      25     1     1     2     0     0 -6.275610233E+01 -9.419275865E+01  2.350592118E+02  2.892895387E+02  1.250000000E+02  0.00000E+00  9.000E+00
      25     1     1     2     0     0  1.035959102E+02 -4.942910418E+00  5.265434123E+01  1.707454966E+02  1.250000000E+02  0.00000E+00  9.000E+00
       1     1     1     2   501     0 -4.083980786E+01  9.913566906E+01  8.245153587E+02  8.314573636E+02  1.078959322E-05  0.00000E+00  9.000E+00
#rwgt            1           1   2.6363782321063511E-002           7      258544           0
</event>
<event>
      5   9999  3.19816E-02  1.05070E+02 -1.00000E+00  1.22869E-01
      21    -1     0     0   502   511  0.000000000E+00  0.000000000E+00  6.399467199E+02  6.399467199E+02  0.000000000E+00  0.00000E+00  9.000E+00
      21    -1     0     0   501   502  0.000000000E+00  0.000000000E+00 -2.340029958E+02  2.340029958E+02  0.000000000E+00  0.00000E+00  9.000E+00
      25     1     1     2     0     0  2.484818610E+02 -1.529435937E+02  8.177449646E+01  3.277911627E+02  1.250000000E+02  0.00000E+00  9.000E+00
      25     1     1     2     0     0 -1.887390759E+02  2.393761473E+02  2.085291018E+02  3.899137917E+02  1.250000000E+02  0.00000E+00  9.000E+00
      21     1     1     2   501   511 -5.974278507E+01 -8.643255362E+01  1.156401259E+02  1.562447612E+02  1.907348633E-06  0.00000E+00  9.000E+00
#rwgt            1           1   2.8254433444108985E-002           7      258591           0
</event>
<event>
      5   9999  3.19816E-02  1.06663E+02 -1.00000E+00  1.22581E-01
      21    -1     0     0   502   501  0.000000000E+00  0.000000000E+00  5.875421958E+02  5.875421958E+02  0.000000000E+00  0.00000E+00  9.000E+00
      21    -1     0     0   501   512  0.000000000E+00  0.000000000E+00 -3.213003043E+02  3.213003043E+02  0.000000000E+00  0.00000E+00  9.000E+00
      25     1     1     2     0     0  1.797468070E+02 -2.333401680E+02  2.174723312E+02  3.868795206E+02  1.250000000E+02  0.00000E+00  9.000E+00
      25     1     1     2     0     0 -1.186727223E+02  3.207867662E+02  1.312915488E+02  3.871044241E+02  1.250000000E+02  0.00000E+00  9.000E+00
      21     1     1     2   502   512 -6.107408465E+01 -8.744659824E+01 -8.252198855E+01  1.348585554E+02  1.348699152E-06  0.00000E+00  9.000E+00
#rwgt            1           1   2.6108548163553912E-002           7      258647           0
</event>
<event>
      5   9999  3.19816E-02  4.90502E+01 -1.00000E+00  1.39552E-01
      21    -1     0     0   502   501  0.000000000E+00  0.000000000E+00  3.912931510E+01  3.912931510E+01  0.000000000E+00  0.00000E+00  9.000E+00
      21    -1     0     0   511   502  0.000000000E+00  0.000000000E+00 -1.101735941E+03  1.101735941E+03  0.000000000E+00  0.00000E+00  9.000E+00
      25     1     1     2     0     0 -2.892579983E+01 -1.108595332E+02 -2.502416762E+02  3.022787365E+02  1.250000000E+02  0.00000E+00  9.000E+00
      25     1     1     2     0     0  5.959230489E+01  7.257781413E+01 -6.703080579E+02  6.882998434E+02  1.250000000E+02  0.00000E+00  9.000E+00
      21     1     1     2   511   501 -3.066650506E+01  3.828171912E+01 -1.420568915E+02  1.502866759E+02  1.907348633E-06  0.00000E+00  9.000E+00
#rwgt            1           1   2.9903735799378071E-002           7      258705           0
</event>
<event>
      5   9999  3.19816E-02  3.57109E+01 -1.00000E+00  1.47963E-01
      21    -1     0     0   502   501  0.000000000E+00  0.000000000E+00  2.601452830E+02  2.601452830E+02  0.000000000E+00  0.00000E+00  9.000E+00
      21    -1     0     0   512   502  0.000000000E+00  0.000000000E+00 -4.904940848E+02  4.904940848E+02  0.000000000E+00  0.00000E+00  9.000E+00
      25     1     1     2     0     0  1.833478650E+02 -1.735402836E+02 -1.375428016E+02  3.134895403E+02  1.250000000E+02  0.00000E+00  9.000E+00
      25     1     1     2     0     0 -1.657187060E+02  1.424841815E+02  7.727166729E+01  2.633635169E+02  1.250000000E+02  0.00000E+00  9.000E+00
      21     1     1     2   512   501 -1.762915899E+01  3.105610212E+01 -1.700776675E+02  1.737863105E+02  3.814697266E-06  0.00000E+00  9.000E+00
#rwgt            1           1   2.7723528507462309E-002           7      258758           0
</event>
<event>
      5   9999  3.19816E-02  1.84454E+02 -1.00000E+00  1.12942E-01
      21    -1     0     0   502   501  0.000000000E+00  0.000000000E+00  8.132819087E+02  8.132819087E+02  0.000000000E+00  0.00000E+00  9.000E+00
      21    -1     0     0   501   511  0.000000000E+00  0.000000000E+00 -5.029728873E+02  5.029728873E+02  0.000000000E+00  0.00000E+00  9.000E+00
      25     1     1     2     0     0  4.507949016E+02  2.276453782E+01  4.503823898E+01  4.705185548E+02  1.250000000E+02  0.00000E+00  9.000E+00
      25     1     1     2     0     0 -5.311560496E+02 -1.887931764E+02  3.108122051E+02  6.557429674E+02  1.250000000E+02  0.00000E+00  9.000E+00
      21     1     1     2   502   511  8.036114802E+01  1.660286386E+02 -4.554142265E+01  1.899932738E+02  3.015782986E-06  0.00000E+00  9.000E+00
#rwgt            1           1   3.1782345872254147E-002           7      258883           0
</event>
<event>
      5   9999  3.19816E-02  1.57715E+02 -1.00000E+00  1.15537E-01
      21    -1     0     0   502   512  0.000000000E+00  0.000000000E+00  5.810826641E+02  5.810826641E+02  0.000000000E+00  0.00000E+00  9.000E+00
      21    -1     0     0   501   502  0.000000000E+00  0.000000000E+00 -1.503877950E+03  1.503877950E+03  0.000000000E+00  0.00000E+00  9.000E+00
      25     1     1     2     0     0 -1.783140294E+02 -1.501576392E+02  4.105446944E+02  4.883801345E+02  1.250000000E+02  0.00000E+00  9.000E+00
      25     1     1     2     0     0  3.008266011E+02  2.494786293E+02 -1.373792982E+03  1.433760227E+03  1.250000000E+02  0.00000E+00  9.000E+00
      21     1     1     2   501   512 -1.225125717E+02 -9.932099010E+01  4.045300191E+01  1.628202526E+02  2.384185791E-06  0.00000E+00  9.000E+00
#rwgt            1           1   2.5477863524400516E-002           7      258931           0
</event>
<event>
      5   9999  3.19816E-02  3.07491E+01 -1.00000E+00  1.52300E-01
      21    -1     0     0   502   501  0.000000000E+00  0.000000000E+00  8.991784008E+02  8.991784008E+02  0.000000000E+00  0.00000E+00  9.000E+00
      21    -1     0     0   511   502  0.000000000E+00  0.000000000E+00 -3.442058669E+02  3.442058669E+02  0.000000000E+00  0.00000E+00  9.000E+00
      25     1     1     2     0     0 -9.072989627E+01 -1.838361477E+02 -2.566366558E+02  3.514470321E+02  1.250000000E+02  0.00000E+00  9.000E+00
      25     1     1     2     0     0  7.628491861E+01  2.109811534E+02  8.206410921E+02  8.598890847E+02  1.250000000E+02  0.00000E+00  9.000E+00
      21     1     1     2   511   501  1.444497766E+01 -2.714500569E+01 -9.031902444E+00  3.204815089E+01  2.064765462E-07  0.00000E+00  9.000E+00
#rwgt            1           1   3.5179242256151509E-002           7      259011           0
</event>
<event>
      5   9999  3.19816E-02  5.09672E+01 -1.00000E+00  1.38602E-01
      21    -1     0     0   502   501  0.000000000E+00  0.000000000E+00  1.247274689E+02  1.247274689E+02  0.000000000E+00  0.00000E+00  9.000E+00
      21    -1     0     0   512   502  0.000000000E+00  0.000000000E+00 -7.073469893E+02  7.073469893E+02  0.000000000E+00  0.00000E+00  9.000E+00
      25     1     1     2     0     0 -1.256253678E+02  6.680745114E+01 -1.622541798E+02  2.493920356E+02  1.250000000E+02  0.00000E+00  9.000E+00
      25     1     1     2     0     0  1.081564067E+02 -1.892744944E+01 -7.354541271E+00  1.665387220E+02  1.250000000E+02  0.00000E+00  9.000E+00
      21     1     1     2   512   501  1.746896106E+01 -4.788000169E+01 -4.130107994E+02  4.161437006E+02  7.629394531E-06  0.00000E+00  9.000E+00
#rwgt            1           1   2.3562099499642324E-002           7      259200           0
</event>
<event>
      5   9999  3.88681E-02  4.93466E+00 -1.00000E+00  2.43682E-01
      21    -1     0     0   502   501  0.000000000E+00  0.000000000E+00  1.855328536E+03  1.855328536E+03  0.000000000E+00  0.00000E+00  9.000E+00
      21    -1     0     0   511   502  0.000000000E+00  0.000000000E+00 -4.087325513E+01  4.087325513E+01  0.000000000E+00  0.00000E+00  9.000E+00
      25     1     1     2     0     0 -9.417487173E+01  1.458776432E+02  1.343993325E+03  1.360915960E+03  1.250000000E+02  0.00000E+00  9.000E+00
      25     1     1     2     0     0  9.820504882E+01 -1.430300878E+02  4.794817742E+02  5.250043899E+02  1.250000000E+02  0.00000E+00  9.000E+00
      21     1     1     2   511   501 -4.030177091E+00 -2.847555403E+00 -9.019818493E+00  1.028144079E+01  2.064765462E-07  0.00000E+00  9.000E+00
#rwgt            1           1  0.10913117479346519                7      259315           0
</event>
<event>
      5   9999  3.19816E-02  4.88888E+01 -1.00000E+00  1.39635E-01
      21    -1     0     0   502   512  0.000000000E+00  0.000000000E+00  1.577957147E+03  1.577957147E+03  0.000000000E+00  0.00000E+00  9.000E+00
      21    -1     0     0   501   502  0.000000000E+00  0.000000000E+00 -2.148721075E+02  2.148721075E+02  0.000000000E+00  0.00000E+00  9.000E+00
      25     1     1     2     0     0  2.303585022E+02 -1.689418140E+02  5.737472904E+02  6.530063777E+02  1.250000000E+02  0.00000E+00  9.000E+00
      25     1     1     2     0     0 -1.817294137E+02  1.639094927E+02 -6.638225858E+01  2.827074563E+02  1.250000000E+02  0.00000E+00  9.000E+00
      21     1     1     2   501   512 -4.862908852E+01  5.032321282E+00  8.557200076E+02  8.571154205E+02  1.078959322E-05  0.00000E+00  9.000E+00
#rwgt            1           1   2.7893732857968548E-002           7      259578           0
</event>
<event>
      5   9999  3.19816E-02  9.86705E+01 -1.00000E+00  1.24090E-01
      21    -1     0     0   502   511  0.000000000E+00  0.000000000E+00  1.166529397E+03  1.166529397E+03  0.000000000E+00  0.00000E+00  9.000E+00
      21    -1     0     0   501   502  0.000000000E+00  0.000000000E+00 -3.529914005E+02  3.529914005E+02  0.000000000E+00  0.00000E+00  9.000E+00
      25     1     1     2     0     0 -1.110749758E+02 -3.467859917E+02 -1.438160342E+02  4.109820264E+02  1.250000000E+02  0.00000E+00  9.000E+00
      25     1     1     2     0     0  5.824340065E+01  4.301207931E+02  8.511322415E+02  9.635596935E+02  1.250000000E+02  0.00000E+00  9.000E+00
      21     1     1     2   501   511  5.283157516E+01 -8.333480143E+01  1.062217893E+02  1.449790778E+02  1.348699152E-06  0.00000E+00  9.000E+00
#rwgt            1           1   2.9161083726969177E-002           7      259720           0
</event>
<event>
      5   9999  3.19816E-02  1.15977E+02 -1.00000E+00  1.21000E-01
      21    -1     0     0   512   501  0.000000000E+00  0.000000000E+00  1.706353931E+02  1.706353931E+02  0.000000000E+00  0.00000E+00  9.000E+00
      21    -1     0     0   501   502  0.000000000E+00  0.000000000E+00 -7.350325117E+02  7.350325117E+02  0.000000000E+00  0.00000E+00  9.000E+00
      25     1     1     2     0     0 -4.553158552E+01 -4.263216556E+01  6.855614883E+01  1.556135353E+02  1.250000000E+02  0.00000E+00  9.000E+00
      25     1     1     2     0     0 -5.949655926E+01  9.182224089E+01 -6.094964039E+02  6.317293968E+02  1.250000000E+02  0.00000E+00  9.000E+00
      21     1     1     2   512   502  1.050281448E+02 -4.919007533E+01 -2.345686360E+01  1.183249727E+02  0.000000000E+00  0.00000E+00  9.000E+00
#rwgt            1           1   2.6785789665012751E-002           7      259846           0
</event>
<event>
      5   9999  3.19816E-02  1.67233E+02 -1.00000E+00  1.14552E-01
      21    -1     0     0   502   511  0.000000000E+00  0.000000000E+00  1.411300382E+03  1.411300382E+03  0.000000000E+00  0.00000E+00  9.000E+00
      21    -1     0     0   501   502  0.000000000E+00  0.000000000E+00 -1.093120980E+02  1.093120980E+02  0.000000000E+00  0.00000E+00  9.000E+00
      25     1     1     2     0     0 -1.332805630E+02  5.997528890E+01  2.744084139E+01  1.942646224E+02  1.250000000E+02  0.00000E+00  9.000E+00
      25     1     1     2     0     0 -7.800874404E+00  2.981756076E+01  9.734451249E+02  9.819217646E+02  1.250000000E+02  0.00000E+00  9.000E+00
      21     1     1     2   501   511  1.410814374E+02 -8.979284966E+01  3.011023176E+02  3.444260929E+02  6.607249480E-06  0.00000E+00  9.000E+00
#rwgt            1           1   3.1829878918191140E-002           7      259930           0
</event>
<event>
      5   9999  3.19816E-02  8.49278E+01 -1.00000E+00  1.27105E-01
      21    -1     0     0   512   501  0.000000000E+00  0.000000000E+00  8.248718650E+02  8.248718650E+02  0.000000000E+00  0.00000E+00  9.000E+00
      21    -1     0     0   501   502  0.000000000E+00  0.000000000E+00 -1.376447328E+02  1.376447328E+02  0.000000000E+00  0.00000E+00  9.000E+00
      25     1     1     2     0     0  1.471841617E+02  1.484173844E+02  3.618746332E+02  4.361985185E+02  1.250000000E+02  0.00000E+00  9.000E+00
      25     1     1     2     0     0 -2.130888425E+02 -9.485142979E+01  9.559473690E+01  2.813663133E+02  1.250000000E+02  0.00000E+00  9.000E+00
      21     1     1     2   512   502  6.590468078E+01 -5.356595463E+01  2.297577621E+02  2.449517661E+02  2.697398305E-06  0.00000E+00  9.000E+00
#rwgt            1           1   3.0840891213395102E-002           7      259984           0
</event>
<event>
      5   9999  3.19816E-02  1.44975E+01 -1.00000E+00  1.78789E-01
      21    -1     0     0   502   501  0.000000000E+00  0.000000000E+00  3.057875546E+01  3.057875546E+01  0.000000000E+00  0.00000E+00  9.000E+00
      21    -1     0     0   511   502  0.000000000E+00  0.000000000E+00 -9.861722232E+02  9.861722232E+02  0.000000000E+00  0.00000E+00  9.000E+00
      25     1     1     2     0     0 -1.714396947E+01  7.814071386E+01 -2.503018343E+02  2.909912286E+02  1.250000000E+02  0.00000E+00  9.000E+00
      25     1     1     2     0     0  2.219572260E+01 -9.172961231E+01 -6.422592067E+02  6.610815839E+02  1.250000000E+02  0.00000E+00  9.000E+00
      21     1     1     2   511   501 -5.051753134E+00  1.358889845E+01 -6.303242671E+01  6.467816623E+01  6.743495762E-07  0.00000E+00  9.000E+00
#rwgt            1           1   2.9704801536144007E-002           7      260068           0
</event>
<event>
      5   9999  3.19816E-02  4.58943E+01 -1.00000E+00  1.41232E-01
       2    -1     0     0   502     0  0.000000000E+00  0.000000000E+00  3.937236208E+02  3.937236208E+02  0.000000000E+00  0.00000E+00  9.000E+00
      21    -1     0     0   501   502  0.000000000E+00  0.000000000E+00 -1.354565394E+02  1.354565394E+02  0.000000000E+00  0.00000E+00  9.000E+00
      25     1     1     2     0     0  1.431464239E+02  6.399374378E+01  1.906139854E+02  2.766672900E+02  1.250000000E+02  0.00000E+00  9.000E+00
      25     1     1     2     0     0 -1.060876865E+02 -9.106656622E+01  2.382225342E+01  1.890508304E+02  1.250000000E+02  0.00000E+00  9.000E+00
       2     1     1     2   501     0 -3.705873746E+01  2.707282244E+01  4.383084255E+01  6.346203980E+01  9.536743164E-07  0.00000E+00  9.000E+00
#rwgt            1           1   2.4614047724072191E-002           7      260161           0
</event>
<event>
      5   9999  3.19816E-02  6.34444E+01 -1.00000E+00  1.33421E-01
      21    -1     0     0   502   511  0.000000000E+00  0.000000000E+00  8.393653020E+02  8.393653020E+02  0.000000000E+00  0.00000E+00  9.000E+00
      21    -1     0     0   501   502  0.000000000E+00  0.000000000E+00 -2.251871988E+03  2.251871988E+03  0.000000000E+00  0.00000E+00  9.000E+00
      25     1     1     2     0     0 -9.408097974E+01 -7.533645761E+02 -1.224321365E+03  1.446028084E+03  1.250000000E+02  0.00000E+00  9.000E+00
      25     1     1     2     0     0  7.977081906E+01  6.915551463E+02 -7.783197607E+02  1.051674167E+03  1.250000000E+02  0.00000E+00  9.000E+00
      21     1     1     2   501   511  1.431016068E+01  6.180942983E+01  5.901344392E+02  5.935350391E+02  7.629394531E-06  0.00000E+00  9.000E+00
#rwgt            1           1   2.8736205834038606E-002           7      260212           0
</event>
<event>
      5   9999  3.19816E-02  4.41183E+01 -1.00000E+00  1.42249E-01
      21    -1     0     0   502   501  0.000000000E+00  0.000000000E+00  2.592242803E+02  2.592242803E+02  0.000000000E+00  0.00000E+00  9.000E+00
      21    -1     0     0   512   502  0.000000000E+00  0.000000000E+00 -1.854307896E+03  1.854307896E+03  0.000000000E+00  0.00000E+00  9.000E+00
      25     1     1     2     0     0 -5.648187551E+02 -1.747364863E+02 -3.428542039E+02  6.947856294E+02  1.250000000E+02  0.00000E+00  9.000E+00
      25     1     1     2     0     0  5.695050065E+02  2.186051789E+02 -1.175099292E+03  1.329890042E+03  1.250000000E+02  0.00000E+00  9.000E+00
      21     1     1     2   512   501 -4.686251416E+00 -4.386869267E+01 -7.713012014E+01  8.885650557E+01  9.536743164E-07  0.00000E+00  9.000E+00
#rwgt            1           1   3.5797369519541801E-002           7      260379           0
</event>
<event>
      5   9999  3.19816E-02  1.04782E+02 -1.00000E+00  1.22922E-01
      21    -1     0     0   502   511  0.000000000E+00  0.000000000E+00  4.478909056E+02  4.478909056E+02  0.000000000E+00  0.00000E+00  9.000E+00
      21    -1     0     0   501   502  0.000000000E+00  0.000000000E+00 -2.981164942E+03  2.981164942E+03  0.000000000E+00  0.00000E+00  9.000E+00
      25     1     1     2     0     0  1.533975580E+02  2.787030079E+00 -3.633646671E+02  4.137601475E+02  1.250000000E+02  0.00000E+00  9.000E+00
      25     1     1     2     0     0 -6.293277529E+01 -5.565793253E+01 -2.583882233E+03  2.588267902E+03  1.250000000E+02  0.00000E+00  9.000E+00
      21     1     1     2   501   511 -9.046478270E+01  5.287090245E+01  4.139728631E+02  4.270277985E+02  5.394796609E-06  0.00000E+00  9.000E+00
#rwgt            1           1   3.1783386085615567E-002           7      260473           0
</event>
<event>
      5   9999  3.19816E-02  1.71586E+02 -1.00000E+00  1.14126E-01
      21    -1     0     0   512   501  0.000000000E+00  0.000000000E+00  9.712181548E+02  9.712181548E+02  0.000000000E+00  0.00000E+00  9.000E+00
      21    -1     0     0   501   502  0.000000000E+00  0.000000000E+00 -4.817534398E+02  4.817534398E+02  0.000000000E+00  0.00000E+00  9.000E+00
      25     1     1     2     0     0 -1.726980605E+02  5.156765234E+02  3.382326273E+02  6.525129937E+02  1.250000000E+02  0.00000E+00  9.000E+00
      25     1     1     2     0     0  1.857934609E+02 -3.445911299E+02 -1.632622970E+02  4.422011246E+02  1.250000000E+02  0.00000E+00  9.000E+00
      21     1     1     2   512   502 -1.309540037E+01 -1.710853934E+02  3.144943847E+02  3.582574764E+02  3.814697266E-06  0.00000E+00  9.000E+00
#rwgt            1           1   2.9422459090070349E-002           7      260519           0
</event>
<event>
      5   9999  3.19816E-02  4.97031E+01 -1.00000E+00  1.39223E-01
      21    -1     0     0   502   501  0.000000000E+00  0.000000000E+00  2.761377631E+03  2.761377631E+03  0.000000000E+00  0.00000E+00  9.000E+00
      21    -1     0     0   511   502  0.000000000E+00  0.000000000E+00 -3.634045689E+01  3.634045689E+01  0.000000000E+00  0.00000E+00  9.000E+00
      25     1     1     2     0     0 -6.570517170E+01  7.883417651E+01  1.859155721E+03  1.866177106E+03  1.250000000E+02  0.00000E+00  9.000E+00
      25     1     1     2     0     0  1.625346053E+01 -8.382711173E+01  8.686680500E+02  8.817597976E+02  1.250000000E+02  0.00000E+00  9.000E+00
      21     1     1     2   511   501  4.945171117E+01  4.992935217E+00 -2.786597060E+00  4.978118383E+01  1.793842361E-06  0.00000E+00  9.000E+00
#rwgt            1           1   2.8574842565842262E-002           7      260559           0
</event>
<event>
      5   9999  3.19816E-02  9.61677E+01 -1.00000E+00  1.24596E-01
       2    -1     0     0   502     0  0.000000000E+00  0.000000000E+00  1.679256144E+03  1.679256144E+03  0.000000000E+00  0.00000E+00  9.000E+00
      21    -1     0     0   501   502  0.000000000E+00  0.000000000E+00 -9.464767822E+01  9.464767822E+01  0.000000000E+00  0.00000E+00  9.000E+00
      25     1     1     2     0     0 -2.851431680E+02 -1.146221451E+02  3.883513722E+02  5.107706440E+02  1.250000000E+02  0.00000E+00  9.000E+00
      25     1     1     2     0     0  2.279972206E+02  3.727507348E+01  5.470840349E+02  6.068756916E+02  1.250000000E+02  0.00000E+00  9.000E+00
       2     1     1     2   501     0  5.714594740E+01  7.734707163E+01  6.491730581E+02  6.562574862E+02  0.000000000E+00  0.00000E+00  9.000E+00
#rwgt            1           1   2.7559738234735745E-002           7      260669           0
</event>
<event>
      5   9999  3.19816E-02  7.05748E+01 -1.00000E+00  1.31041E-01
      21    -1     0     0   502   501  0.000000000E+00  0.000000000E+00  6.568188913E+02  6.568188913E+02  0.000000000E+00  0.00000E+00  9.000E+00
       1    -1     0     0   501     0  0.000000000E+00  0.000000000E+00 -1.612807478E+03  1.612807478E+03  0.000000000E+00  0.00000E+00  9.000E+00
      25     1     1     2     0     0  3.436661681E+01  3.065590838E+02  4.808240427E+02  5.847873940E+02  1.250000000E+02  0.00000E+00  9.000E+00
      25     1     1     2     0     0 -8.874119853E+01 -3.515503195E+02 -1.758679355E+02  4.219207961E+02  1.250000000E+02  0.00000E+00  9.000E+00
       1     1     1     2   502     0  5.437458172E+01  4.499123565E+01 -1.260944694E+03  1.262918179E+03  0.000000000E+00  0.00000E+00  9.000E+00
#rwgt            1           1   3.0753385874395297E-002           7      260825           0
</event>
<event>
      5   9999  3.19816E-02  4.60800E+01 -1.00000E+00  1.41129E-01
      21    -1     0     0   502   511  0.000000000E+00  0.000000000E+00  9.677156854E+01  9.677156854E+01  0.000000000E+00  0.00000E+00  9.000E+00
      21    -1     0     0   501   502  0.000000000E+00  0.000000000E+00 -6.692637019E+02  6.692637019E+02  0.000000000E+00  0.00000E+00  9.000E+00
      25     1     1     2     0     0  1.204282611E+02 -9.190916552E+01 -3.466600451E+02  3.984324882E+02  1.250000000E+02  0.00000E+00  9.000E+00
      25     1     1     2     0     0 -1.094470823E+02  4.715671073E+01 -2.586647414E+02  3.110222944E+02  1.250000000E+02  0.00000E+00  9.000E+00
      21     1     1     2   501   511 -1.098117885E+01  4.475245479E+01  3.283265309E+01  5.658048787E+01  4.768371582E-07  0.00000E+00  9.000E+00
#rwgt            1           1   2.9613817950096797E-002           7      260895           0
</event>
<event>
      5   9999  3.71630E-02  8.41176E+00 -1.00000E+00  2.04861E-01
      21    -1     0     0   502   501  0.000000000E+00  0.000000000E+00  3.491430020E+01  3.491430020E+01  0.000000000E+00  0.00000E+00  9.000E+00
      21    -1     0     0   512   502  0.000000000E+00  0.000000000E+00 -4.008370961E+03  4.008370961E+03  0.000000000E+00  0.00000E+00  9.000E+00
      25     1     1     2     0     0  1.582643566E+02  1.538013459E+02 -7.846400043E+02  8.246134834E+02  1.250000000E+02  0.00000E+00  9.000E+00
      25     1     1     2     0     0 -1.517100865E+02 -1.590738443E+02 -1.056605384E+03  1.086443913E+03  1.250000000E+02  0.00000E+00  9.000E+00
      21     1     1     2   512   501 -6.554270130E+00  5.272498483E+00 -2.132211272E+03  2.132227865E+03  3.051757812E-05  0.00000E+00  9.000E+00
#rwgt            1           1  0.11078128232045836                7      261031           0
</event>
<event>
      5   9999  3.19816E-02  1.98981E+02 -1.00000E+00  1.11729E-01
      21    -1     0     0   502   501  0.000000000E+00  0.000000000E+00  5.030615119E+02  5.030615119E+02  0.000000000E+00  0.00000E+00  9.000E+00
      21    -1     0     0   501   511  0.000000000E+00  0.000000000E+00 -3.185726185E+02  3.185726185E+02  0.000000000E+00  0.00000E+00  9.000E+00
      25     1     1     2     0     0 -2.958923763E+00  5.668225424E+01  3.604519636E+02  3.857100611E+02  1.250000000E+02  0.00000E+00  9.000E+00
      25     1     1     2     0     0  1.020414174E+02  1.158757735E+02 -1.047578513E+02  2.245859594E+02  1.250000000E+02  0.00000E+00  9.000E+00
      21     1     1     2   502   511 -9.908249369E+01 -1.725580277E+02 -7.120521895E+01  2.113381099E+02  9.536743164E-07  0.00000E+00  9.000E+00
#rwgt            2          11   3.4069352384181722E-003           7      261214           0
</event>
<event>
      5   9999  3.19816E-02  9.94100E+01 -1.00000E+00  1.23944E-01
      21    -1     0     0   502   501  0.000000000E+00  0.000000000E+00  7.461631532E+02  7.461631532E+02  0.000000000E+00  0.00000E+00  9.000E+00
      21    -1     0     0   501   512  0.000000000E+00  0.000000000E+00 -3.527182725E+02  3.527182725E+02  0.000000000E+00  0.00000E+00  9.000E+00
      25     1     1     2     0     0  2.730207616E+02 -2.527242703E+02  2.640280643E+02  4.730176654E+02  1.250000000E+02  0.00000E+00  9.000E+00
      25     1     1     2     0     0 -1.885948527E+02  3.052085982E+02  2.610070025E+02  4.609446412E+02  1.250000000E+02  0.00000E+00  9.000E+00
      21     1     1     2   502   512 -8.442590884E+01 -5.248432792E+01 -1.315901861E+02  1.649191191E+02  1.907348633E-06  0.00000E+00  9.000E+00
#rwgt            2          11   2.9716246656776007E-003           7      261324           0
</event>
<event>
      5   9999  3.19816E-02  7.65437E+01 -1.00000E+00  1.29285E-01
      21    -1     0     0   502   511  0.000000000E+00  0.000000000E+00  1.734403351E+02  1.734403351E+02  0.000000000E+00  0.00000E+00  9.000E+00
      21    -1     0     0   501   502  0.000000000E+00  0.000000000E+00 -1.766153289E+03  1.766153289E+03  0.000000000E+00  0.00000E+00  9.000E+00
      25     1     1     2     0     0 -4.836025398E+02 -8.813690475E+01 -1.101655565E+03  1.212810584E+03  1.250000000E+02  0.00000E+00  9.000E+00
      25     1     1     2     0     0  4.107549250E+02  6.463866747E+01 -4.835384433E+02  6.498709040E+02  1.250000000E+02  0.00000E+00  9.000E+00
      21     1     1     2   501   511  7.284761483E+01  2.349823729E+01 -7.518946393E+00  7.691213621E+01  1.698470932E-06  0.00000E+00  9.000E+00
#rwgt            1           1   2.7621653013237869E-002           7      261344           0
</event>
<event>
      5   9999  3.19816E-02  8.37450E+01 -1.00000E+00  1.27395E-01
      21    -1     0     0   502   501  0.000000000E+00  0.000000000E+00  1.753712351E+02  1.753712351E+02  0.000000000E+00  0.00000E+00  9.000E+00
       2    -1     0     0   501     0  0.000000000E+00  0.000000000E+00 -3.153625737E+03  3.153625737E+03  0.000000000E+00  0.00000E+00  9.000E+00
      25     1     1     2     0     0  2.352725451E+02  3.617465686E+01 -1.818845893E+02  3.246055762E+02  1.250000000E+02  0.00000E+00  9.000E+00
      25     1     1     2     0     0 -2.124100335E+02 -1.167384935E+02 -7.650600578E+01  2.832385339E+02  1.250000000E+02  0.00000E+00  9.000E+00
       2     1     1     2   502     0 -2.286251165E+01  8.056383667E+01 -2.719863907E+03  2.721152862E+03  7.475249459E-05  0.00000E+00  9.000E+00
#rwgt            1           1   2.0357781089436089E-002           7      261438           0
</event>
<event>
      5   9999  3.19816E-02  6.48282E+01 -1.00000E+00  1.32931E-01
      21    -1     0     0   502   501  0.000000000E+00  0.000000000E+00  3.771664893E+02  3.771664893E+02  0.000000000E+00  0.00000E+00  9.000E+00
      21    -1     0     0   501   511  0.000000000E+00  0.000000000E+00 -5.440107897E+02  5.440107897E+02  0.000000000E+00  0.00000E+00  9.000E+00
      25     1     1     2     0     0 -3.474016985E+01  1.411802997E+02  8.179668524E+01  2.084573197E+02  1.250000000E+02  0.00000E+00  9.000E+00
      25     1     1     2     0     0 -3.005672194E+01 -1.391653155E+02  1.905858294E+02  2.687347204E+02  1.250000000E+02  0.00000E+00  9.000E+00
      21     1     1     2   502   511  6.479689179E+01 -2.014984180E+00 -4.392268150E+02  4.439852389E+02  5.394796609E-06  0.00000E+00  9.000E+00
#rwgt            1           1   2.8223297575898375E-002           7      261510           0
</event>
<event>
      5   9999  3.19816E-02  1.68486E+02 -1.00000E+00  1.14428E-01
      21    -1     0     0   512   501  0.000000000E+00  0.000000000E+00  4.408505899E+02  4.408505899E+02  0.000000000E+00  0.00000E+00  9.000E+00
      21    -1     0     0   501   502  0.000000000E+00  0.000000000E+00 -3.336483837E+02  3.336483837E+02  0.000000000E+00  0.00000E+00  9.000E+00
      25     1     1     2     0     0 -7.273474536E+01 -1.795375540E+02 -2.292355250E+02  3.251122920E+02  1.250000000E+02  0.00000E+00  9.000E+00
      25     1     1     2     0     0  1.833037169E+01  2.007648754E+01  1.678468048E+02  2.110370057E+02  1.250000000E+02  0.00000E+00  9.000E+00
      21     1     1     2   512   502  5.440437368E+01  1.594610664E+02  1.685909263E+02  2.383496760E+02  1.907348633E-06  0.00000E+00  9.000E+00
#rwgt            1           1   2.7424989813797370E-002           7      261601           0
</event>
<event>
      5   9999  3.19816E-02  4.89530E+01 -1.00000E+00  1.39602E-01
      21    -1     0     0   502   501  0.000000000E+00  0.000000000E+00  1.192532785E+03  1.192532785E+03  0.000000000E+00  0.00000E+00  9.000E+00
      21    -1     0     0   501   511  0.000000000E+00  0.000000000E+00 -2.250305752E+02  2.250305752E+02  0.000000000E+00  0.00000E+00  9.000E+00
      25     1     1     2     0     0 -2.871102336E+02  2.265478321E+02  3.676755046E+02  5.334477323E+02  1.250000000E+02  0.00000E+00  9.000E+00
      25     1     1     2     0     0  3.356621041E+02 -2.328017699E+02  6.723699905E+02  7.966003492E+02  1.250000000E+02  0.00000E+00  9.000E+00
      21     1     1     2   502   511 -4.855187050E+01  6.253937788E+00 -7.254328501E+01  8.751527905E+01  2.523185073E-06  0.00000E+00  9.000E+00
#rwgt            1           1   3.0834627736135607E-002           7      261670           0
</event>
<event>
      5   9999  3.19816E-02  1.75264E+02 -1.00000E+00  1.13776E-01
      21    -1     0     0   512   501  0.000000000E+00  0.000000000E+00  3.007741198E+03  3.007741198E+03  0.000000000E+00  0.00000E+00  9.000E+00
      21    -1     0     0   501   502  0.000000000E+00  0.000000000E+00 -3.006736283E+02  3.006736283E+02  0.000000000E+00  0.00000E+00  9.000E+00
      25     1     1     2     0     0 -9.630755756E+01 -1.894070945E+02  5.738270188E+01  2.531165099E+02  1.250000000E+02  0.00000E+00  9.000E+00
      25     1     1     2     0     0  2.628901498E+02  1.349318904E+02 -7.130071275E+01  3.286740597E+02  1.250000000E+02  0.00000E+00  9.000E+00
      21     1     1     2   512   502 -1.665825922E+02  5.447520407E+01  2.720985581E+03  2.726624257E+03  3.051757812E-05  0.00000E+00  9.000E+00
#rwgt            2          11   1.5108042466645041E-003           7      261844           0
</event>
<event>
      5   9999  3.19816E-02  2.66582E+01 -1.00000E+00  1.56690E-01
      21    -1     0     0   511   501  0.000000000E+00  0.000000000E+00  9.554960206E+02  9.554960206E+02  0.000000000E+00  0.00000E+00  9.000E+00
      21    -1     0     0   501   502  0.000000000E+00  0.000000000E+00 -2.767148928E+02  2.767148928E+02  0.000000000E+00  0.00000E+00  9.000E+00
      25     1     1     2     0     0  3.232846045E+02 -2.384323239E+02 -6.264578438E+00  4.207459489E+02  1.250000000E+02  0.00000E+00  9.000E+00
      25     1     1     2     0     0 -2.984836133E+02  2.482082823E+02  6.332864888E+02  7.532440479E+02  1.250000000E+02  0.00000E+00  9.000E+00
      21     1     1     2   511   502 -2.480099116E+01 -9.775958444E+00  5.175921744E+01  5.822091648E+01  0.000000000E+00  0.00000E+00  9.000E+00
#rwgt            1           1   2.7700243438357534E-002           7      261864           0
</event>
<event>
      5   9999  3.19816E-02  1.89546E+01 -1.00000E+00  1.68316E-01
       2    -1     0     0   502     0  0.000000000E+00  0.000000000E+00  5.719943374E+02  5.719943374E+02  0.000000000E+00  0.00000E+00  9.000E+00
      21    -1     0     0   501   502  0.000000000E+00  0.000000000E+00 -1.605823092E+02  1.605823092E+02  0.000000000E+00  0.00000E+00  9.000E+00
      25     1     1     2     0     0 -1.296404343E+01  4.614390623E+01  9.725244227E+01  1.654701303E+02  1.250000000E+02  0.00000E+00  9.000E+00
      25     1     1     2     0     0  2.555856365E-01 -3.208081432E+01 -9.327525255E+01  1.592310168E+02  1.250000000E+02  0.00000E+00  9.000E+00
       2     1     1     2   501     0  1.270845780E+01 -1.406309191E+01  4.074348385E+02  4.078754995E+02  7.629394531E-06  0.00000E+00  9.000E+00
#rwgt            1           1   2.1857071939377550E-002           7      261966           0
</event>
<event>
      5   9999  3.19816E-02  7.47139E+01 -1.00000E+00  1.29803E-01
      21    -1     0     0   502   501  0.000000000E+00  0.000000000E+00  1.728160507E+02  1.728160507E+02  0.000000000E+00  0.00000E+00  9.000E+00
      21    -1     0     0   501   511  0.000000000E+00  0.000000000E+00 -8.471407760E+02  8.471407760E+02  0.000000000E+00  0.00000E+00  9.000E+00
      25     1     1     2     0     0 -1.418209050E+02  2.339842288E+02 -1.759875934E+02  3.485088542E+02  1.250000000E+02  0.00000E+00  9.000E+00
      25     1     1     2     0     0  1.969115990E+02 -2.844539148E+02 -3.626701832E+02  5.165683587E+02  1.250000000E+02  0.00000E+00  9.000E+00
      21     1     1     2   502   511 -5.509069401E+01  5.046968602E+01 -1.356669487E+02  1.548796137E+02  1.907348633E-06  0.00000E+00  9.000E+00
#rwgt            1           1   2.7083901774435343E-002           7      262079           0
</event>
<event>
      5   9999  3.19816E-02  1.28143E+02 -1.00000E+00  1.19170E-01
       2    -1     0     0   502     0  0.000000000E+00  0.000000000E+00  5.899866631E+02  5.899866631E+02  0.000000000E+00  0.00000E+00  9.000E+00
      21    -1     0     0   501   502  0.000000000E+00  0.000000000E+00 -3.881385169E+02  3.881385169E+02  0.000000000E+00  0.00000E+00  9.000E+00
      25     1     1     2     0     0 -2.508112542E+02 -6.028875790E+01 -1.737236150E+02  3.351804200E+02  1.250000000E+02  0.00000E+00  9.000E+00
      25     1     1     2     0     0  3.317761358E+02  1.596136918E+02  2.426803987E+02  4.583347148E+02  1.250000000E+02  0.00000E+00  9.000E+00
       2     1     1     2   501     0 -8.096488163E+01 -9.932493388E+01  1.328913625E+02  1.846100452E+02  2.697398305E-06  0.00000E+00  9.000E+00
#rwgt            1           1   2.8398884060358214E-002           7      262137           0
</event>
<event>
      5   9999  3.19816E-02  6.40357E+01 -1.00000E+00  1.33210E-01
      21    -1     0     0   502   501  0.000000000E+00  0.000000000E+00  1.242264266E+03  1.242264266E+03  0.000000000E+00  0.00000E+00  9.000E+00
       2    -1     0     0   501     0  0.000000000E+00  0.000000000E+00 -1.990856186E+03  1.990856186E+03  0.000000000E+00  0.00000E+00  9.000E+00
      25     1     1     2     0     0  5.411589383E+00 -2.932467303E+02  2.552041857E+02  4.083835287E+02  1.250000000E+02  0.00000E+00  9.000E+00
      25     1     1     2     0     0 -3.626428818E+01  2.371335710E+02  8.898253171E+02  9.300330769E+02  1.250000000E+02  0.00000E+00  9.000E+00
       2     1     1     2   502     0  3.085269879E+01  5.611315931E+01 -1.893621423E+03  1.894703847E+03  2.157918644E-05  0.00000E+00  9.000E+00
#rwgt            2          13   6.8859161697128329E-002           7      262209           0
</event>
<event>
      5   9999  3.19816E-02  2.46924E+01 -1.00000E+00  1.59155E-01
      21    -1     0     0   502   501  0.000000000E+00  0.000000000E+00  3.404016634E+02  3.404016634E+02  0.000000000E+00  0.00000E+00  9.000E+00
      21    -1     0     0   511   502  0.000000000E+00  0.000000000E+00 -1.336164087E+03  1.336164087E+03  0.000000000E+00  0.00000E+00  9.000E+00
      25     1     1     2     0     0 -2.013824584E+02 -5.943550176E+02 -5.920547530E+02  8.717606392E+02  1.250000000E+02  0.00000E+00  9.000E+00
      25     1     1     2     0     0  1.791815765E+02  5.835460349E+02 -2.879082718E+02  6.864023493E+02  1.250000000E+02  0.00000E+00  9.000E+00
      21     1     1     2   511   501  2.220088189E+01  1.080898270E+01 -1.157993988E+02  1.184027619E+02  0.000000000E+00  0.00000E+00  9.000E+00
#rwgt            1           1   2.7818909720228567E-002           7      262228           0
</event>
<event>
      5   9999  3.19816E-02  3.06281E+01 -1.00000E+00  1.52417E-01
      21    -1     0     0   502   512  0.000000000E+00  0.000000000E+00  1.105703645E+02  1.105703645E+02  0.000000000E+00  0.00000E+00  9.000E+00
      21    -1     0     0   501   502  0.000000000E+00  0.000000000E+00 -5.166269908E+02  5.166269908E+02  0.000000000E+00  0.00000E+00  9.000E+00
      25     1     1     2     0     0 -3.411397545E+00 -1.311397267E+02 -3.825296867E+02  4.232767733E+02  1.250000000E+02  0.00000E+00  9.000E+00
      25     1     1     2     0     0 -2.303655759E+01  1.156935278E+02 -2.169385713E+01  1.732376945E+02  1.250000000E+02  0.00000E+00  9.000E+00
      21     1     1     2   501   512  2.644795513E+01  1.544619890E+01 -1.833082462E+00  3.068288745E+01  8.463544739E-07  0.00000E+00  9.000E+00
#rwgt            1           1   2.8429894421446160E-002           7      262390           0
</event>
<event>
      5   9999  3.19816E-02  1.47023E+02 -1.00000E+00  1.16740E-01
      21    -1     0     0   502   501  0.000000000E+00  0.000000000E+00  1.857060181E+02  1.857060181E+02  0.000000000E+00  0.00000E+00  9.000E+00
      21    -1     0     0   501   511  0.000000000E+00  0.000000000E+00 -9.424372634E+02  9.424372634E+02  0.000000000E+00  0.00000E+00  9.000E+00
      25     1     1     2     0     0 -3.799904151E+01  1.204983817E+02 -8.820195650E+01  1.984146474E+02  1.250000000E+02  0.00000E+00  9.000E+00
      25     1     1     2     0     0  1.440849907E+02 -2.222899891E+02 -5.399076433E+01  2.978478243E+02  1.250000000E+02  0.00000E+00  9.000E+00
      21     1     1     2   502   511 -1.060859491E+02  1.017916074E+02 -6.145385245E+02  6.318808100E+02  1.078959322E-05  0.00000E+00  9.000E+00
#rwgt            2          11   1.9795900337906108E-003           7      262616           0
</event>
<event>
      5   9999  3.19816E-02  2.10976E+02 -1.00000E+00  1.10810E-01
      21    -1     0     0   502   501  0.000000000E+00  0.000000000E+00  2.902341367E+02  2.902341367E+02  0.000000000E+00  0.00000E+00  9.000E+00
       2    -1     0     0   501     0  0.000000000E+00  0.000000000E+00 -1.709005341E+03  1.709005341E+03  0.000000000E+00  0.00000E+00  9.000E+00
      25     1     1     2     0     0 -5.918361878E+02  1.197249062E+02 -4.262150588E+02  7.495921576E+02  1.250000000E+02  0.00000E+00  9.000E+00
      25     1     1     2     0     0  3.814768394E+02 -1.036004760E+02 -2.648228462E+02  4.919489582E+02  1.250000000E+02  0.00000E+00  9.000E+00
       2     1     1     2   502     0  2.103593484E+02 -1.612443027E+01 -7.277332994E+02  7.576983620E+02  1.078959322E-05  0.00000E+00  9.000E+00
#rwgt            2          13   1.2499217489789053E-003           7      262666           0
</event>
<event>
      5   9999  3.19816E-02  2.67705E+01 -1.00000E+00  1.56557E-01
      21    -1     0     0   502   501  0.000000000E+00  0.000000000E+00  6.832856733E+02  6.832856733E+02  0.000000000E+00  0.00000E+00  9.000E+00
      21    -1     0     0   501   511  0.000000000E+00  0.000000000E+00 -3.271358409E+02  3.271358409E+02  0.000000000E+00  0.00000E+00  9.000E+00
      25     1     1     2     0     0  2.336237662E+02  1.599113387E+02  6.604013854E+01  3.164458884E+02  1.250000000E+02  0.00000E+00  9.000E+00
      25     1     1     2     0     0 -2.157409522E+02 -1.798328408E+02  4.427450761E+02  5.390104001E+02  1.250000000E+02  0.00000E+00  9.000E+00
      21     1     1     2   502   511 -1.788281396E+01  1.992150204E+01 -1.526353822E+02  1.549652257E+02  3.814697266E-06  0.00000E+00  9.000E+00
#rwgt            1           1   2.6883620527974252E-002           7      262685           0
</event>
<event>
      5   9999  3.19816E-02  4.01319E+02 -1.00000E+00  1.01642E-01
      -1    -1     0     0     0   501  0.000000000E+00  0.000000000E+00  3.922695990E+02  3.922695990E+02  0.000000000E+00  0.00000E+00  9.000E+00
      21    -1     0     0   501   502  0.000000000E+00  0.000000000E+00 -1.406451990E+03  1.406451990E+03  0.000000000E+00  0.00000E+00  9.000E+00
      25     1     1     2     0     0 -2.981638298E+02 -5.315885210E+02 -1.514024742E+02  6.403403269E+02  1.250000000E+02  0.00000E+00  9.000E+00
      25     1     1     2     0     0 -1.386577748E+01  2.792110217E+02 -1.514063788E+02  3.416137380E+02  1.250000000E+02  0.00000E+00  9.000E+00
      -1     1     1     2     0   502  3.120296073E+02  2.523774993E+02 -7.113735384E+02  8.167675245E+02  0.000000000E+00  0.00000E+00  9.000E+00
#rwgt            2           5   1.2306830487392305E-005           7      262838           0
</event>
<event>
      5   9999  3.19816E-02  3.09648E+01 -1.00000E+00  1.52091E-01
      21    -1     0     0   502   501  0.000000000E+00  0.000000000E+00  1.373346725E+03  1.373346725E+03  0.000000000E+00  0.00000E+00  9.000E+00
      21    -1     0     0   511   502  0.000000000E+00  0.000000000E+00 -1.861376985E+02  1.861376985E+02  0.000000000E+00  0.00000E+00  9.000E+00
      25     1     1     2     0     0  2.350665227E+02 -2.429965993E+02  1.316395293E+02  3.837415577E+02  1.250000000E+02  0.00000E+00  9.000E+00
      25     1     1     2     0     0 -2.583766122E+02  2.226138378E+02  1.077971024E+03  1.137524472E+03  1.250000000E+02  0.00000E+00  9.000E+00
      21     1     1     2   511   501  2.331008943E+01  2.038276157E+01 -2.240152701E+01  3.821839414E+01  9.536743164E-07  0.00000E+00  9.000E+00
#rwgt            1           1   2.3564355851909902E-002           7      262857           0
</event>
<event>
      5   9999  3.19816E-02  3.18765E+01 -1.00000E+00  1.51232E-01
      21    -1     0     0   502   501  0.000000000E+00  0.000000000E+00  1.588502850E+02  1.588502850E+02  0.000000000E+00  0.00000E+00  9.000E+00
      21    -1     0     0   501   512  0.000000000E+00  0.000000000E+00 -6.580304056E+02  6.580304056E+02  0.000000000E+00  0.00000E+00  9.000E+00
      25     1     1     2     0     0 -2.261648216E+02 -3.532814937E+01 -2.897694101E+02  3.898588408E+02  1.250000000E+02  0.00000E+00  9.000E+00
      25     1     1     2     0     0  2.372396713E+02  5.437411532E+00 -6.078048318E+01  2.750118074E+02  1.250000000E+02  0.00000E+00  9.000E+00
      21     1     1     2   502   512 -1.107484972E+01  2.989073784E+01 -1.486302273E+02  1.520100423E+02  0.000000000E+00  0.00000E+00  9.000E+00
#rwgt            1           1   3.0384765116702177E-002           7      263052           0
</event>
<event>
      5   9999  3.19816E-02  5.16242E+01 -1.00000E+00  1.38288E-01
      21    -1     0     0   502   511  0.000000000E+00  0.000000000E+00  4.792775410E+02  4.792775410E+02  0.000000000E+00  0.00000E+00  9.000E+00
      21    -1     0     0   501   502  0.000000000E+00  0.000000000E+00 -4.750344964E+02  4.750344964E+02  0.000000000E+00  0.00000E+00  9.000E+00
      25     1     1     2     0     0 -7.745358950E+00 -3.893982171E+02  8.256162004E+01  4.172917243E+02  1.250000000E+02  0.00000E+00  9.000E+00
      25     1     1     2     0     0  5.652178559E+01  4.063073632E+02 -1.449985585E+02  4.526919124E+02  1.250000000E+02  0.00000E+00  9.000E+00
      21     1     1     2   501   511 -4.877642664E+01 -1.690914613E+01  6.667998312E+01  8.432840072E+01  9.536743164E-07  0.00000E+00  9.000E+00
#rwgt            1           1   2.5399338400823118E-002           7      263171           0
</event>
<event>
      5   9999  3.19816E-02  2.03313E+02 -1.00000E+00  1.11389E-01
      21    -1     0     0   502   501  0.000000000E+00  0.000000000E+00  4.709141789E+02  4.709141789E+02  0.000000000E+00  0.00000E+00  9.000E+00
      21    -1     0     0   501   512  0.000000000E+00  0.000000000E+00 -6.025197795E+02  6.025197795E+02  0.000000000E+00  0.00000E+00  9.000E+00
      25     1     1     2     0     0 -8.416502357E+01 -2.323587175E+02  2.898741116E+02  4.009068787E+02  1.250000000E+02  0.00000E+00  9.000E+00
      25     1     1     2     0     0 -1.189563604E+02  2.235397427E+02 -1.153707909E+02  3.050509000E+02  1.250000000E+02  0.00000E+00  9.000E+00
      21     1     1     2   502   512  2.031213839E+02  8.818974859E+00 -3.061089213E+02  3.674761797E+02  3.814697266E-06  0.00000E+00  9.000E+00
#rwgt            2          11   3.0338811532458262E-003           7      263451           0
</event>
<event>
      5   9999  3.19816E-02  1.71186E+02 -1.00000E+00  1.14164E-01
      21    -1     0     0   502   501  0.000000000E+00  0.000000000E+00  3.209588513E+02  3.209588513E+02  0.000000000E+00  0.00000E+00  9.000E+00
      21    -1     0     0   511   502  0.000000000E+00  0.000000000E+00 -8.061747975E+02  8.061747975E+02  0.000000000E+00  0.00000E+00  9.000E+00
      25     1     1     2     0     0 -1.988000640E+02  3.632731487E+02 -1.609593569E+02  4.615428048E+02  1.250000000E+02  0.00000E+00  9.000E+00
      25     1     1     2     0     0  2.774734446E+01 -3.700208233E+02 -1.444955243E+02  4.173598943E+02  1.250000000E+02  0.00000E+00  9.000E+00
      21     1     1     2   511   501  1.710527195E+02  6.747674601E+00 -1.797610649E+02  2.482309498E+02  1.907348633E-06  0.00000E+00  9.000E+00
#rwgt            2          11   3.6927785311424966E-003           7      263516           0
</event>
<event>
      5   9999  3.19816E-02  3.59535E+02 -1.00000E+00  1.03099E-01
       1    -1     0     0   502     0  0.000000000E+00  0.000000000E+00  1.654353678E+03  1.654353678E+03  0.000000000E+00  0.00000E+00  9.000E+00
      21    -1     0     0   501   502  0.000000000E+00  0.000000000E+00 -2.943242852E+02  2.943242852E+02  0.000000000E+00  0.00000E+00  9.000E+00
      25     1     1     2     0     0 -4.550449693E+02  3.405464905E+02  4.518060024E+02  7.367438497E+02  1.250000000E+02  0.00000E+00  9.000E+00
      25     1     1     2     0     0  1.642147657E+02 -1.291623323E+02  8.003554537E+02  8.365663451E+02  1.250000000E+02  0.00000E+00  9.000E+00
       1     1     1     2   501     0  2.908302036E+02 -2.113841582E+02  1.078679363E+02  3.753677681E+02  7.509239077E-06  0.00000E+00  9.000E+00
#rwgt            1           1   2.9735612959719306E-002           7      263596           0
</event>
<event>
      5   9999  3.19816E-02  1.38883E+02 -1.00000E+00  1.17735E-01
      21    -1     0     0   502   501  0.000000000E+00  0.000000000E+00  8.418411100E+02  8.418411100E+02  0.000000000E+00  0.00000E+00  9.000E+00
      21    -1     0     0   511   502  0.000000000E+00  0.000000000E+00 -5.901961665E+02  5.901961665E+02  0.000000000E+00  0.00000E+00  9.000E+00
      25     1     1     2     0     0 -5.277429472E+02 -5.900577945E+00  5.197738764E+02  7.512238799E+02  1.250000000E+02  0.00000E+00  9.000E+00
      25     1     1     2     0     0  4.516719962E+02  1.220972042E+02 -1.818356406E+02  5.173050547E+02  1.250000000E+02  0.00000E+00  9.000E+00
      21     1     1     2   511   501  7.607095102E+01 -1.161966262E+02 -8.629329231E+01  1.635083418E+02  1.651812370E-06  0.00000E+00  9.000E+00
#rwgt            1           1   3.1088710217836414E-002           7      263646           0
</event>
<event>
      5   9999  3.24726E-02  7.66963E+01 -1.00000E+00  1.29242E-01
      21    -1     0     0   502   501  0.000000000E+00  0.000000000E+00  1.895575549E+03  1.895575549E+03  0.000000000E+00  0.00000E+00  9.000E+00
       2    -1     0     0   501     0  0.000000000E+00  0.000000000E+00 -9.592825261E+02  9.592825261E+02  0.000000000E+00  0.00000E+00  9.000E+00
      25     1     1     2     0     0  7.909764503E+02  6.580773013E+01 -7.375462168E+01  8.068699688E+02  1.250000000E+02  0.00000E+00  9.000E+00
      25     1     1     2     0     0 -8.357394005E+02 -1.280861342E+02  1.405608030E+03  1.645060892E+03  1.250000000E+02  0.00000E+00  9.000E+00
       2     1     1     2   502     0  4.476295020E+01  6.227840410E+01 -3.955603857E+02  4.029272144E+02  9.344061824E-06  0.00000E+00  9.000E+00
#rwgt            1           1   3.5299601330852359E-002           7      263695           0
</event>
<event>
      5   9999  3.19816E-02  6.23501E+01 -1.00000E+00  1.33818E-01
      21    -1     0     0   511   501  0.000000000E+00  0.000000000E+00  2.641589209E+02  2.641589209E+02  0.000000000E+00  0.00000E+00  9.000E+00
      21    -1     0     0   501   502  0.000000000E+00  0.000000000E+00 -3.814076067E+02  3.814076067E+02  0.000000000E+00  0.00000E+00  9.000E+00
      25     1     1     2     0     0 -1.772636530E+02  1.787994488E+02 -7.459266003E+01  2.908276302E+02  1.250000000E+02  0.00000E+00  9.000E+00
      25     1     1     2     0     0  2.122899684E+02 -1.272175195E+02 -7.105522881E+01  2.862257387E+02  1.250000000E+02  0.00000E+00  9.000E+00
      21     1     1     2   511   502 -3.502631535E+01 -5.158192927E+01  2.839920300E+01  6.851315877E+01  1.784161275E-06  0.00000E+00  9.000E+00
#rwgt            1           1   3.0970437451685259E-002           7      263815           0
</event>
<event>
      5   9999  3.19816E-02  5.52034E+01 -1.00000E+00  1.36666E-01
      21    -1     0     0   502   501  0.000000000E+00  0.000000000E+00  1.975891932E+02  1.975891932E+02  0.000000000E+00  0.00000E+00  9.000E+00
      21    -1     0     0   501   512  0.000000000E+00  0.000000000E+00 -8.241622807E+02  8.241622807E+02  0.000000000E+00  0.00000E+00  9.000E+00
      25     1     1     2     0     0  2.299387166E+02 -1.133713308E+02 -1.403179220E+02  3.178663104E+02  1.250000000E+02  0.00000E+00  9.000E+00
      25     1     1     2     0     0 -2.326873419E+02  5.823640720E+01 -6.388526538E+01  2.779230205E+02  1.250000000E+02  0.00000E+00  9.000E+00
      21     1     1     2   502   512  2.748625231E+00  5.513492356E+01 -4.223699001E+02  4.259621430E+02  0.000000000E+00  0.00000E+00  9.000E+00
#rwgt            1           1   2.8524721478671689E-002           7      263904           0
</event>
<event>
      5   9999  3.19816E-02  1.44443E+01 -1.00000E+00  1.78942E-01
      21    -1     0     0   502   501  0.000000000E+00  0.000000000E+00  1.801991300E+02  1.801991300E+02  0.000000000E+00  0.00000E+00  9.000E+00
       1    -1     0     0   501     0  0.000000000E+00  0.000000000E+00 -1.319756803E+03  1.319756803E+03  0.000000000E+00  0.00000E+00  9.000E+00
      25     1     1     2     0     0 -1.077175435E+02 -2.308423995E+02 -1.421021370E+01  2.841095084E+02  1.250000000E+02  0.00000E+00  9.000E+00
      25     1     1     2     0     0  9.328405621E+01  2.302829757E+02 -3.828778070E+02  4.732362825E+02  1.250000000E+02  0.00000E+00  9.000E+00
       1     1     1     2   502     0  1.443348726E+01  5.594237842E-01 -7.424696523E+02  7.426101421E+02  1.525878906E-05  0.00000E+00  9.000E+00
#rwgt            1           1   2.8700700620565293E-002           7      264000           0
</event>
<event>
      5   9999  3.19816E-02  1.24816E+02 -1.00000E+00  1.19647E-01
      21    -1     0     0   502   511  0.000000000E+00  0.000000000E+00  9.927839718E+01  9.927839718E+01  0.000000000E+00  0.00000E+00  9.000E+00
      21    -1     0     0   501   502  0.000000000E+00  0.000000000E+00 -4.052541131E+03  4.052541131E+03  0.000000000E+00  0.00000E+00  9.000E+00
      25     1     1     2     0     0 -1.879992061E+02  1.521961872E+02 -3.815573707E+03  3.825275820E+03  1.250000000E+02  0.00000E+00  9.000E+00
      25     1     1     2     0     0  9.148109213E+01 -7.305499547E+01 -8.136408425E+01  1.896073226E+02  1.250000000E+02  0.00000E+00  9.000E+00
      21     1     1     2   501   511  9.651811400E+01 -7.914119176E+01 -5.632494170E+01  1.369363853E+02  3.754619538E-06  0.00000E+00  9.000E+00
#rwgt            2          11   1.2526170087912480E-003           7      264133           0
</event>
<event>
      5   9999  3.19816E-02  1.07403E+02 -1.00000E+00  1.22449E-01
      21    -1     0     0   502   501  0.000000000E+00  0.000000000E+00  8.666243889E+02  8.666243889E+02  0.000000000E+00  0.00000E+00  9.000E+00
       2    -1     0     0   501     0  0.000000000E+00  0.000000000E+00 -1.247740012E+03  1.247740012E+03  0.000000000E+00  0.00000E+00  9.000E+00
      25     1     1     2     0     0 -1.428167951E+02 -3.193734279E+02  7.269479950E+02  8.163788403E+02  1.250000000E+02  0.00000E+00  9.000E+00
      25     1     1     2     0     0  3.947501596E+01  2.901188979E+02 -1.840111770E+02  3.677123401E+02  1.250000000E+02  0.00000E+00  9.000E+00
       2     1     1     2   502     0  1.033417791E+02  2.925452993E+01 -9.240524411E+02  9.302732205E+02  1.078959322E-05  0.00000E+00  9.000E+00
#rwgt            1           1   2.4780979553431511E-002           7      264153           0
</event>
<event>
      5   9999  3.19816E-02  6.06949E+01 -1.00000E+00  1.34437E-01
      21    -1     0     0   502   501  0.000000000E+00  0.000000000E+00  8.707983709E+01  8.707983709E+01  0.000000000E+00  0.00000E+00  9.000E+00
      21    -1     0     0   501   511  0.000000000E+00  0.000000000E+00 -1.595781100E+03  1.595781100E+03  0.000000000E+00  0.00000E+00  9.000E+00
      25     1     1     2     0     0 -1.841614782E+02 -2.005974408E+02 -8.921267772E+02  9.411004037E+02  1.250000000E+02  0.00000E+00  9.000E+00
      25     1     1     2     0     0  1.636786600E+02  2.577316762E+02 -4.088843706E+02  5.253834306E+02  1.250000000E+02  0.00000E+00  9.000E+00
      21     1     1     2   502   511  2.048281819E+01 -5.713423541E+01 -2.076901156E+02  2.163771032E+02  0.000000000E+00  0.00000E+00  9.000E+00
#rwgt            2          11   2.7347659181562950E-003           7      264332           0
</event>
<event>
      5   9999  3.19816E-02  1.10665E+02 -1.00000E+00  1.21880E-01
      21    -1     0     0   502   501  0.000000000E+00  0.000000000E+00  2.445559479E+02  2.445559479E+02  0.000000000E+00  0.00000E+00  9.000E+00
      21    -1     0     0   501   512  0.000000000E+00  0.000000000E+00 -3.330756231E+02  3.330756231E+02  0.000000000E+00  0.00000E+00  9.000E+00
      25     1     1     2     0     0 -7.593290627E+01  1.910707039E+02  7.197443154E+01  2.511556070E+02  1.250000000E+02  0.00000E+00  9.000E+00
      25     1     1     2     0     0  1.955247998E+00 -1.087666126E+02 -1.329128598E+02  2.124260514E+02  1.250000000E+02  0.00000E+00  9.000E+00
      21     1     1     2   502   512  7.397765828E+01 -8.230409133E+01 -2.758124700E+01  1.140499126E+02  1.846782373E-06  0.00000E+00  9.000E+00
#rwgt            1           1   3.0581969064882638E-002           7      264352           0
</event>
<event>
      5   9999  3.19816E-02  1.16119E+02 -1.00000E+00  1.20977E-01
      21    -1     0     0   502   511  0.000000000E+00  0.000000000E+00  2.086351400E+02  2.086351400E+02  0.000000000E+00  0.00000E+00  9.000E+00
      21    -1     0     0   501   502  0.000000000E+00  0.000000000E+00 -1.187416576E+03  1.187416576E+03  0.000000000E+00  0.00000E+00  9.000E+00
      25     1     1     2     0     0 -1.699959493E+02 -3.711039774E+02 -2.463631858E+02  4.928859951E+02  1.250000000E+02  0.00000E+00  9.000E+00
      25     1     1     2     0     0  5.394872924E+01  3.751845761E+02 -6.421863307E+02  7.561099225E+02  1.250000000E+02  0.00000E+00  9.000E+00
      21     1     1     2   501   511  1.160472201E+02 -4.080598634E+00 -9.023191983E+01  1.470557987E+02  2.132480600E-06  0.00000E+00  9.000E+00
#rwgt            1           1   2.9435103094904221E-002           7      264431           0
</event>
<event>
      5   9999  3.19816E-02  3.20075E+01 -1.00000E+00  1.51111E-01
      21    -1     0     0   502   501  0.000000000E+00  0.000000000E+00  1.045855315E+03  1.045855315E+03  0.000000000E+00  0.00000E+00  9.000E+00
      21    -1     0     0   512   502  0.000000000E+00  0.000000000E+00 -5.700538063E+01  5.700538063E+01  0.000000000E+00  0.00000E+00  9.000E+00
      25     1     1     2     0     0 -1.670728599E+02 -6.829810399E+01  4.269859494E+02  4.801249551E+02  1.250000000E+02  0.00000E+00  9.000E+00
      25     1     1     2     0     0  1.409964540E+02  4.973730621E+01  5.573161667E+02  5.904067321E+02  1.250000000E+02  0.00000E+00  9.000E+00
      21     1     1     2   512   501  2.607640586E+01  1.856079778E+01  4.547818661E+00  3.232900882E+01  1.233110479E-06  0.00000E+00  9.000E+00
#rwgt            1           1   3.6072578895445642E-002           7      264473           0
</event>
<event>
      5   9999  3.19816E-02  4.47643E+01 -1.00000E+00  1.41873E-01
      21    -1     0     0   502   511  0.000000000E+00  0.000000000E+00  5.340563401E+02  5.340563401E+02  0.000000000E+00  0.00000E+00  9.000E+00
      21    -1     0     0   501   502  0.000000000E+00  0.000000000E+00 -3.082308802E+02  3.082308802E+02  0.000000000E+00  0.00000E+00  9.000E+00
      25     1     1     2     0     0  1.866019583E+02  2.871167064E+02  1.202779607E+02  3.838594558E+02  1.250000000E+02  0.00000E+00  9.000E+00
      25     1     1     2     0     0 -2.262667492E+02 -2.663671772E+02  3.229485205E+01  3.725802898E+02  1.250000000E+02  0.00000E+00  9.000E+00
      21     1     1     2   501   511  3.966479097E+01 -2.074952922E+01  7.325264707E+01  8.584747468E+01  0.000000000E+00  0.00000E+00  9.000E+00
#rwgt            1           1   3.5908885647626405E-002           7      264574           0
</event>
<event>
      5   9999  3.19816E-02  1.91976E+02 -1.00000E+00  1.12299E-01
      21    -1     0     0   502   501  0.000000000E+00  0.000000000E+00  7.904154742E+02  7.904154742E+02  0.000000000E+00  0.00000E+00  9.000E+00
       2    -1     0     0   501     0  0.000000000E+00  0.000000000E+00 -1.212604681E+03  1.212604681E+03  0.000000000E+00  0.00000E+00  9.000E+00
      25     1     1     2     0     0  2.559744966E+00 -5.577449669E+01  7.542743767E+02  7.665977968E+02  1.250000000E+02  0.00000E+00  9.000E+00
      25     1     1     2     0     0  6.391679260E+01 -1.243242650E+02 -6.228145794E+02  6.504343776E+02  1.250000000E+02  0.00000E+00  9.000E+00
       2     1     1     2   502     0 -6.647653757E+01  1.800987617E+02 -5.536490037E+02  5.859879805E+02  7.629394531E-06  0.00000E+00  9.000E+00
#rwgt            1           1   2.9514543143973716E-002           7      264668           0
</event>
<event>
      5   9999  3.19816E-02  7.38498E+01 -1.00000E+00  1.30054E-01
      21    -1     0     0   502   501  0.000000000E+00  0.000000000E+00  6.962014886E+02  6.962014886E+02  0.000000000E+00  0.00000E+00  9.000E+00
      21    -1     0     0   511   502  0.000000000E+00  0.000000000E+00 -1.428036931E+02  1.428036931E+02  0.000000000E+00  0.00000E+00  9.000E+00
      25     1     1     2     0     0 -1.895654244E+02 -6.521821573E+01  4.431451474E+02  5.021863075E+02  1.250000000E+02  0.00000E+00  9.000E+00
      25     1     1     2     0     0  2.092567257E+02 -5.957921580E+00  9.319099860E+01  2.610238232E+02  1.250000000E+02  0.00000E+00  9.000E+00
      21     1     1     2   511   501 -1.969130124E+01  7.117613731E+01  1.706164947E+01  7.579505096E+01  1.685873940E-06  0.00000E+00  9.000E+00
#rwgt            1           1   3.3867704013611395E-002           7      264745           0
</event>
<event>
      5   9999  3.19816E-02  9.28310E+01 -1.00000E+00  1.25299E-01
      21    -1     0     0   502   512  0.000000000E+00  0.000000000E+00  1.764916810E+03  1.764916810E+03  0.000000000E+00  0.00000E+00  9.000E+00
      21    -1     0     0   501   502  0.000000000E+00  0.000000000E+00 -5.438438447E+02  5.438438447E+02  0.000000000E+00  0.00000E+00  9.000E+00
      25     1     1     2     0     0  2.352118373E+02 -6.295584101E+02 -1.132496131E+02  6.929061084E+02  1.250000000E+02  0.00000E+00  9.000E+00
      25     1     1     2     0     0 -2.139151858E+02  7.199135181E+02  9.344360653E+02  1.205334369E+03  1.250000000E+02  0.00000E+00  9.000E+00
      21     1     1     2   501   512 -2.129665155E+01 -9.035510798E+01  3.998865127E+02  4.105201772E+02  0.000000000E+00  0.00000E+00  9.000E+00
#rwgt            1           1   3.7064054281271790E-002           7      264793           0
</event>
<event>
      5   9999  3.19816E-02  3.57008E+01 -1.00000E+00  1.47971E-01
      21    -1     0     0   511   501  0.000000000E+00  0.000000000E+00  3.783807561E+02  3.783807561E+02  0.000000000E+00  0.00000E+00  9.000E+00
      21    -1     0     0   501   502  0.000000000E+00  0.000000000E+00 -1.514780354E+02  1.514780354E+02  0.000000000E+00  0.00000E+00  9.000E+00
      25     1     1     2     0     0  1.395847873E+02 -7.105080266E+01 -2.279283679E+01  2.016845131E+02  1.250000000E+02  0.00000E+00  9.000E+00
      25     1     1     2     0     0 -1.161454859E+02  4.412221937E+01  2.188592028E+02  2.809998128E+02  1.250000000E+02  0.00000E+00  9.000E+00
      21     1     1     2   511   502 -2.343930136E+01  2.692858328E+01  3.083635460E+01  4.717446567E+01  1.168007728E-06  0.00000E+00  9.000E+00
#rwgt            1           1   2.9744534884361865E-002           7      264951           0
</event>
<event>
      5   9999  3.19816E-02  1.15046E+02 -1.00000E+00  1.21151E-01
      21    -1     0     0   502   512  0.000000000E+00  0.000000000E+00  4.389966528E+02  4.389966528E+02  0.000000000E+00  0.00000E+00  9.000E+00
      21    -1     0     0   501   502  0.000000000E+00  0.000000000E+00 -8.279361941E+02  8.279361941E+02  0.000000000E+00  0.00000E+00  9.000E+00
      25     1     1     2     0     0 -3.387742521E+02  2.055316563E+02  1.334273557E+02  4.363933030E+02  1.250000000E+02  0.00000E+00  9.000E+00
      25     1     1     2     0     0  2.282417159E+02 -1.736250364E+02 -6.102535137E+02  6.857654739E+02  1.250000000E+02  0.00000E+00  9.000E+00
      21     1     1     2   501   512  1.105325362E+02 -3.190661989E+01  8.788661674E+01  1.447740700E+02  9.536743164E-07  0.00000E+00  9.000E+00
#rwgt            1           1   1.7959675857199903E-002           7      265047           0
</event>
<event>
      5   9999  3.19816E-02  7.75008E+01 -1.00000E+00  1.29020E-01
       2    -1     0     0   502     0  0.000000000E+00  0.000000000E+00  3.210787675E+03  3.210787675E+03  0.000000000E+00  0.00000E+00  9.000E+00
      21    -1     0     0   501   502  0.000000000E+00  0.000000000E+00 -1.162434981E+03  1.162434981E+03  0.000000000E+00  0.00000E+00  9.000E+00
      25     1     1     2     0     0 -1.374718882E+02  1.047636869E+02 -1.124208509E+03  1.144265582E+03  1.250000000E+02  0.00000E+00  9.000E+00
      25     1     1     2     0     0  1.679758280E+02 -3.351845620E+01  3.787334763E+02  4.340546184E+02  1.250000000E+02  0.00000E+00  9.000E+00
       2     1     1     2   501     0 -3.050393978E+01 -7.124523066E+01  2.793827726E+03  2.794902456E+03  0.000000000E+00  0.00000E+00  9.000E+00
#rwgt            2          18   5.1595057333562516E-003           7      265192           0
</event>
<event>
      5   9999  3.19816E-02  4.83779E+01 -1.00000E+00  1.39898E-01
      21    -1     0     0   502   511  0.000000000E+00  0.000000000E+00  3.230320382E+02  3.230320382E+02  0.000000000E+00  0.00000E+00  9.000E+00
      21    -1     0     0   501   502  0.000000000E+00  0.000000000E+00 -9.885344284E+02  9.885344284E+02  0.000000000E+00  0.00000E+00  9.000E+00
      25     1     1     2     0     0  4.530907097E+02  2.335060889E+02 -2.608183027E+02  5.860609796E+02  1.250000000E+02  0.00000E+00  9.000E+00
      25     1     1     2     0     0 -4.957261126E+02 -2.106446199E+02 -3.820929413E+02  6.721127512E+02  1.250000000E+02  0.00000E+00  9.000E+00
      21     1     1     2   501   511  4.263540288E+01 -2.286146901E+01 -2.259114627E+01  5.339273577E+01  7.152557373E-07  0.00000E+00  9.000E+00
#rwgt            1           1   3.0108580656899610E-002           7      265226           0
</event>
<event>
      5   9999  3.19816E-02  3.91860E+01 -1.00000E+00  1.45396E-01
       2    -1     0     0   502     0  0.000000000E+00  0.000000000E+00  1.759465892E+03  1.759465892E+03  0.000000000E+00  0.00000E+00  9.000E+00
      21    -1     0     0   501   502  0.000000000E+00  0.000000000E+00 -3.246206933E+01  3.246206933E+01  0.000000000E+00  0.00000E+00  9.000E+00
      25     1     1     2     0     0  9.224661915E+01 -5.380039432E+00  1.117815684E+03  1.128572234E+03  1.250000000E+02  0.00000E+00  9.000E+00
      25     1     1     2     0     0 -1.314324000E+02  5.499091418E+00  2.922582200E+02  3.440124749E+02  1.250000000E+02  0.00000E+00  9.000E+00
       2     1     1     2   501     0  3.918578084E+01 -1.190519860E-01  3.169299190E+02  3.193432529E+02  0.000000000E+00  0.00000E+00  9.000E+00
#rwgt            1           1   4.2669634682411611E-002           7      265348           0
</event>
<event>
      5   9999  3.19816E-02  1.59300E+02 -1.00000E+00  1.15368E-01
      21    -1     0     0   502   511  0.000000000E+00  0.000000000E+00  6.816109746E+01  6.816109746E+01  0.000000000E+00  0.00000E+00  9.000E+00
      21    -1     0     0   501   502  0.000000000E+00  0.000000000E+00 -1.258120923E+03  1.258120923E+03  0.000000000E+00  0.00000E+00  9.000E+00
      25     1     1     2     0     0 -6.442427424E+01  1.602438012E+02 -2.469513631E+02  3.262491971E+02  1.250000000E+02  0.00000E+00  9.000E+00
      25     1     1     2     0     0 -6.313378038E+00 -1.751050266E+01 -6.868593222E+02  6.983890069E+02  1.250000000E+02  0.00000E+00  9.000E+00
      21     1     1     2   501   511  7.073765227E+01 -1.427332985E+02 -2.561491405E+02  3.016438167E+02  3.814697266E-06  0.00000E+00  9.000E+00
#rwgt            1           1   2.8964358840779976E-002           7      265479           0
</event>
<event>
      5   9999  3.19816E-02  6.26829E+01 -1.00000E+00  1.33696E-01
      21    -1     0     0   502   501  0.000000000E+00  0.000000000E+00  6.774434912E+02  6.774434912E+02  0.000000000E+00  0.00000E+00  9.000E+00
      21    -1     0     0   512   502  0.000000000E+00  0.000000000E+00 -7.729800596E+02  7.729800596E+02  0.000000000E+00  0.00000E+00  9.000E+00
      25     1     1     2     0     0 -2.251168019E+02 -1.848849440E+02  5.875271714E+02  6.675875929E+02  1.250000000E+02  0.00000E+00  9.000E+00
      25     1     1     2     0     0  1.656756470E+02  1.649878431E+02 -6.675324254E+02  7.182575773E+02  1.250000000E+02  0.00000E+00  9.000E+00
      21     1     1     2   512   501  5.944115492E+01  1.989710098E+01 -1.553131437E+01  6.457838068E+01  4.460403188E-07  0.00000E+00  9.000E+00
#rwgt            1           1   3.0288423686809968E-002           7      265519           0
</event>
<event>
      5   9999  3.19816E-02  1.22260E+01 -1.00000E+00  1.86180E-01
      21    -1     0     0   502   501  0.000000000E+00  0.000000000E+00  6.755906013E+01  6.755906013E+01  0.000000000E+00  0.00000E+00  9.000E+00
      21    -1     0     0   511   502  0.000000000E+00  0.000000000E+00 -8.580591142E+02  8.580591142E+02  0.000000000E+00  0.00000E+00  9.000E+00
      25     1     1     2     0     0  3.171273237E+01  1.970472495E+02 -3.425265950E+02  4.156714860E+02  1.250000000E+02  0.00000E+00  9.000E+00
      25     1     1     2     0     0 -2.092168773E+01 -1.913002225E+02 -4.075293897E+02  4.676950883E+02  1.250000000E+02  0.00000E+00  9.000E+00
      21     1     1     2   511   501 -1.079104464E+01 -5.747027021E+00 -4.044406935E+01  4.225160008E+01  6.743495762E-07  0.00000E+00  9.000E+00
#rwgt            1           1   2.7496817971537354E-002           7      265685           0
</event>
<event>
      5   9999  3.19816E-02  1.56911E+02 -1.00000E+00  1.15624E-01
      21    -1     0     0   502   501  0.000000000E+00  0.000000000E+00  2.517509088E+02  2.517509088E+02  0.000000000E+00  0.00000E+00  9.000E+00
       1    -1     0     0   501     0  0.000000000E+00  0.000000000E+00 -1.292213085E+03  1.292213085E+03  0.000000000E+00  0.00000E+00  9.000E+00
      25     1     1     2     0     0  3.496838185E+02 -3.230535659E+02 -5.791167482E+02  7.600286754E+02  1.250000000E+02  0.00000E+00  9.000E+00
      25     1     1     2     0     0 -2.370946945E+02  2.137619760E+02 -5.145065523E+02  6.182637535E+02  1.250000000E+02  0.00000E+00  9.000E+00
       1     1     1     2   502     0 -1.125891240E+02  1.092915899E+02  5.316112379E+01  1.656715653E+02  2.336015456E-06  0.00000E+00  9.000E+00
#rwgt            1           1   2.9828872883987705E-002           7      265860           0
</event>
<event>
      5   9999  3.19816E-02  2.47652E+01 -1.00000E+00  1.59058E-01
      21    -1     0     0   511   501  0.000000000E+00  0.000000000E+00  1.501048801E+02  1.501048801E+02  0.000000000E+00  0.00000E+00  9.000E+00
      21    -1     0     0   501   502  0.000000000E+00  0.000000000E+00 -9.679691271E+02  9.679691271E+02  0.000000000E+00  0.00000E+00  9.000E+00
      25     1     1     2     0     0  2.361010318E+01 -3.342291068E+02 -2.416883208E+02  4.316303710E+02  1.250000000E+02  0.00000E+00  9.000E+00
      25     1     1     2     0     0 -3.352813627E+01  3.115366000E+02 -5.675101771E+02  6.602060210E+02  1.250000000E+02  0.00000E+00  9.000E+00
      21     1     1     2   511   502  9.918033089E+00  2.269250678E+01 -8.665749077E+00  2.623761520E+01  3.371747881E-07  0.00000E+00  9.000E+00
#rwgt            1           1   2.7203023487151246E-002           7      265893           0
</event>
<event>
      5   9999  3.19816E-02  2.10904E+01 -1.00000E+00  1.64489E-01
      21    -1     0     0   502   512  0.000000000E+00  0.000000000E+00  6.003712557E+02  6.003712557E+02  0.000000000E+00  0.00000E+00  9.000E+00
      21    -1     0     0   501   502  0.000000000E+00  0.000000000E+00 -9.989223699E+01  9.989223699E+01  0.000000000E+00  0.00000E+00  9.000E+00
      25     1     1     2     0     0  1.329681886E+02  9.010364885E+01  3.680938295E+02  4.206153516E+02  1.250000000E+02  0.00000E+00  9.000E+00
      25     1     1     2     0     0 -1.469185990E+02 -7.428623856E+01  7.734430478E+01  2.207049194E+02  1.250000000E+02  0.00000E+00  9.000E+00
      21     1     1     2   501   512  1.395041038E+01 -1.581741029E+01  5.504088450E+01  5.894322170E+01  6.743495762E-07  0.00000E+00  9.000E+00
#rwgt            1           1   3.0502427842689080E-002           7      266037           0
</event>
<event>
      5   9999  3.19816E-02  5.48188E+02 -1.00000E+00  9.77299E-02
      21    -1     0     0   511   501  0.000000000E+00  0.000000000E+00  5.842984067E+02  5.842984067E+02  0.000000000E+00  0.00000E+00  9.000E+00
      21    -1     0     0   501   502  0.000000000E+00  0.000000000E+00 -1.772732229E+03  1.772732229E+03  0.000000000E+00  0.00000E+00  9.000E+00
      25     1     1     2     0     0  3.124664384E+02  4.403623676E+02  8.548306598E+01  5.607910881E+02  1.250000000E+02  0.00000E+00  9.000E+00
      25     1     1     2     0     0 -3.009211306E+01  2.950478876E+01 -1.240006652E+03  1.247003434E+03  1.250000000E+02  0.00000E+00  9.000E+00
      21     1     1     2   511   502 -2.823743253E+02 -4.698671564E+02 -3.391023649E+01  5.492361135E+02  9.319696563E-06  0.00000E+00  9.000E+00
#rwgt            2          11   2.3764195400679004E-003           7      266331           0
</event>
<event>
      5   9999  3.19816E-02  2.51863E+01 -1.00000E+00  1.58510E-01
      21    -1     0     0   502   501  0.000000000E+00  0.000000000E+00  1.000855991E+03  1.000855991E+03  0.000000000E+00  0.00000E+00  9.000E+00
      21    -1     0     0   501   512  0.000000000E+00  0.000000000E+00 -1.596136129E+03  1.596136129E+03  0.000000000E+00  0.00000E+00  9.000E+00
      25     1     1     2     0     0 -6.676574138E+02  7.586609543E+02 -2.722725860E+02  1.054082647E+03  1.250000000E+02  0.00000E+00  9.000E+00
      25     1     1     2     0     0  6.493763185E+02 -7.413360921E+02  2.049543780E+02  1.014347131E+03  1.250000000E+02  0.00000E+00  9.000E+00
      21     1     1     2   502   512  1.828109526E+01 -1.732486224E+01 -5.279619300E+02  5.285623414E+02  7.629394531E-06  0.00000E+00  9.000E+00
#rwgt            1           1   3.5529066690353987E-002           7      266411           0
</event>
<event>
      5   9999  3.19816E-02  5.23979E+01 -1.00000E+00  1.37925E-01
      21    -1     0     0   502   511  0.000000000E+00  0.000000000E+00  6.871162617E+02  6.871162617E+02  0.000000000E+00  0.00000E+00  9.000E+00
      21    -1     0     0   501   502  0.000000000E+00  0.000000000E+00 -2.039750663E+03  2.039750663E+03  0.000000000E+00  0.00000E+00  9.000E+00
      25     1     1     2     0     0  3.550828361E+02  2.070676641E+02  5.213672430E+02  6.755809648E+02  1.250000000E+02  0.00000E+00  9.000E+00
      25     1     1     2     0     0 -3.819783057E+02 -2.520362008E+02 -1.922331105E+03  1.980002916E+03  1.250000000E+02  0.00000E+00  9.000E+00
      21     1     1     2   501   511  2.689546967E+01  4.496853673E+01  4.832946032E+01  7.128304370E+01  1.784161275E-06  0.00000E+00  9.000E+00
#rwgt            1           1   2.3640346966664869E-002           7      266706           0
</event>
<event>
      5   9999  3.19816E-02  3.72346E+01 -1.00000E+00  1.46797E-01
      21    -1     0     0   502   501  0.000000000E+00  0.000000000E+00  7.846785669E+01  7.846785669E+01  0.000000000E+00  0.00000E+00  9.000E+00
       2    -1     0     0   501     0  0.000000000E+00  0.000000000E+00 -3.243629629E+03  3.243629629E+03  0.000000000E+00  0.00000E+00  9.000E+00
      25     1     1     2     0     0 -6.001554375E+01 -2.337075128E+02 -2.080688452E+03  2.098359002E+03  1.250000000E+02  0.00000E+00  9.000E+00
      25     1     1     2     0     0  4.620554141E+01  2.682863801E+02 -2.549111657E+02  3.933411194E+02  1.250000000E+02  0.00000E+00  9.000E+00
       2     1     1     2   502     0  1.381000234E+01 -3.457886730E+01 -8.295621543E+02  8.303973640E+02  1.078959322E-05  0.00000E+00  9.000E+00
#rwgt            1           1   9.6293280663220557E-002           7      266900           0
</event>
<event>
      5   9999  3.19816E-02  9.11608E+01 -1.00000E+00  1.25663E-01
      21    -1     0     0   502   511  0.000000000E+00  0.000000000E+00  2.770988845E+03  2.770988845E+03  0.000000000E+00  0.00000E+00  9.000E+00
      21    -1     0     0   501   502  0.000000000E+00  0.000000000E+00 -1.115891305E+03  1.115891305E+03  0.000000000E+00  0.00000E+00  9.000E+00
      25     1     1     2     0     0 -1.595189414E+02 -1.393897320E+03  1.767341455E+03  2.259981604E+03  1.250000000E+02  0.00000E+00  9.000E+00
      25     1     1     2     0     0  9.393040934E+01  1.457209482E+03 -2.240907402E+02  1.482607182E+03  1.250000000E+02  0.00000E+00  9.000E+00
      21     1     1     2   501   511  6.558853206E+01 -6.331216222E+01  1.118468247E+02  1.442913637E+02  0.000000000E+00  0.00000E+00  9.000E+00
#rwgt            1           1   2.5070555981020735E-002           7      267021           0
</event>
<event>
      5   9999  3.19816E-02  7.99058E+01 -1.00000E+00  1.28374E-01
      21    -1     0     0   502   501  0.000000000E+00  0.000000000E+00  6.466797160E+02  6.466797160E+02  0.000000000E+00  0.00000E+00  9.000E+00
      21    -1     0     0   501   512  0.000000000E+00  0.000000000E+00 -1.671753909E+02  1.671753909E+02  0.000000000E+00  0.00000E+00  9.000E+00
      25     1     1     2     0     0 -2.018165330E+02 -6.543190975E+01  4.541620981E+02  5.166231307E+02  1.250000000E+02  0.00000E+00  9.000E+00
      25     1     1     2     0     0  1.343268883E+02  1.082114884E+02 -1.223863533E+00  2.130256721E+02  1.250000000E+02  0.00000E+00  9.000E+00
      21     1     1     2   502   512  6.748964465E+01 -4.277957864E+01  2.656609057E+01  8.420630411E+01  1.936921693E-06  0.00000E+00  9.000E+00
#rwgt            1           1   2.7185363170640811E-002           7      267186           0
</event>
<event>
      5   9999  3.19816E-02  9.07945E+01 -1.00000E+00  1.25744E-01
      21    -1     0     0   502   501  0.000000000E+00  0.000000000E+00  4.422604732E+02  4.422604732E+02  0.000000000E+00  0.00000E+00  9.000E+00
      21    -1     0     0   511   502  0.000000000E+00  0.000000000E+00 -8.685147933E+02  8.685147933E+02  0.000000000E+00  0.00000E+00  9.000E+00
      25     1     1     2     0     0  1.156766038E+02  4.186820009E+02 -3.230239259E+02  5.555584139E+02  1.250000000E+02  0.00000E+00  9.000E+00
      25     1     1     2     0     0 -2.711444578E+01 -4.386914985E+02  1.541765587E+02  4.822663531E+02  1.250000000E+02  0.00000E+00  9.000E+00
      21     1     1     2   511   501 -8.856215803E+01  2.000949766E+01 -2.574069529E+02  2.729504996E+02  3.814697266E-06  0.00000E+00  9.000E+00
#rwgt            1           1   3.0822352109693679E-002           7      267254           0
</event>
<event>
      5   9999  3.19816E-02  3.88673E+01 -1.00000E+00  1.45618E-01
      21    -1     0     0   502   501  0.000000000E+00  0.000000000E+00  3.366170017E+02  3.366170017E+02  0.000000000E+00  0.00000E+00  9.000E+00
       1    -1     0     0   501     0  0.000000000E+00  0.000000000E+00 -1.882130007E+03  1.882130007E+03  0.000000000E+00  0.00000E+00  9.000E+00
      25     1     1     2     0     0  1.264881254E+02  3.769617073E+02 -2.532278815E+02  4.876973801E+02  1.250000000E+02  0.00000E+00  9.000E+00
      25     1     1     2     0     0 -9.590565765E+01 -4.009488040E+02  7.327849305E+00  4.308555860E+02  1.250000000E+02  0.00000E+00  9.000E+00
       1     1     1     2   502     0 -3.058246773E+01  2.398709674E+01 -1.299612973E+03  1.300194043E+03  1.525878906E-05  0.00000E+00  9.000E+00
#rwgt            1           1   2.9268352044143287E-002           7      267346           0
</event>
<event>
      5   9999  3.19816E-02  7.65851E+01 -1.00000E+00  1.29273E-01
      21    -1     0     0   511   501  0.000000000E+00  0.000000000E+00  3.375211215E+01  3.375211215E+01  0.000000000E+00  0.00000E+00  9.000E+00
      21    -1     0     0   501   502  0.000000000E+00  0.000000000E+00 -1.616313300E+03  1.616313300E+03  0.000000000E+00  0.00000E+00  9.000E+00
      25     1     1     2     0     0  4.083471185E+01 -1.306431935E+02 -5.563720107E+02  5.864383446E+02  1.250000000E+02  0.00000E+00  9.000E+00
      25     1     1     2     0     0  1.526080594E+01  7.850322364E+01 -9.244503100E+02  9.362846917E+02  1.250000000E+02  0.00000E+00  9.000E+00
      21     1     1     2   511   502 -5.609551779E+01  5.213996990E+01 -1.017388668E+02  1.273423755E+02  2.336015456E-06  0.00000E+00  9.000E+00
#rwgt            2          11   1.0022537567499084E-002           7      267550           0
</event>
<event>
      5   9999  3.19816E-02  1.06045E+02 -1.00000E+00  1.22692E-01
      21    -1     0     0   502   501  0.000000000E+00  0.000000000E+00  7.195492226E+02  7.195492226E+02  0.000000000E+00  0.00000E+00  9.000E+00
      21    -1     0     0   501   512  0.000000000E+00  0.000000000E+00 -9.607312678E+02  9.607312678E+02  0.000000000E+00  0.00000E+00  9.000E+00
      25     1     1     2     0     0  1.828937422E+02 -2.524334978E+02  5.775450157E+02  6.680988227E+02  1.250000000E+02  0.00000E+00  9.000E+00
      25     1     1     2     0     0 -1.887891961E+02  3.583141466E+02 -7.987899355E+02  9.042791324E+02  1.250000000E+02  0.00000E+00  9.000E+00
      21     1     1     2   502   512  5.895453924E+00 -1.058806488E+02 -1.993712536E+01  1.079025353E+02  4.129530925E-07  0.00000E+00  9.000E+00
#rwgt            1           1   3.7577421981296870E-002           7      267570           0
</event>
<event>
      5   9999  3.19816E-02  5.81136E+01 -1.00000E+00  1.35449E-01
      21    -1     0     0   502   511  0.000000000E+00  0.000000000E+00  2.245068439E+02  2.245068439E+02  0.000000000E+00  0.00000E+00  9.000E+00
      21    -1     0     0   501   502  0.000000000E+00  0.000000000E+00 -1.489900901E+03  1.489900901E+03  0.000000000E+00  0.00000E+00  9.000E+00
      25     1     1     2     0     0  5.019591745E+02  2.418563213E+01 -4.199076411E+02  6.667048708E+02  1.250000000E+02  0.00000E+00  9.000E+00
      25     1     1     2     0     0 -5.251610201E+02  2.909531532E+01 -8.244637529E+02  9.859037043E+02  1.250000000E+02  0.00000E+00  9.000E+00
      21     1     1     2   501   511  2.320184559E+01 -5.328094745E+01 -2.102266285E+01  6.179916952E+01  3.371747881E-07  0.00000E+00  9.000E+00
#rwgt            2          11   6.5959916978040314E-003           7      267743           0
</event>
<event>
      5   9999  3.19816E-02  5.75524E+02 -1.00000E+00  9.71469E-02
      21    -1     0     0   502   501  0.000000000E+00  0.000000000E+00  7.294965045E+02  7.294965045E+02  0.000000000E+00  0.00000E+00  9.000E+00
       2    -1     0     0   501     0  0.000000000E+00  0.000000000E+00 -2.988624713E+03  2.988624713E+03  0.000000000E+00  0.00000E+00  9.000E+00
      25     1     1     2     0     0 -1.202709454E+02 -4.256949081E+02  5.763563801E+02  7.372197311E+02  1.250000000E+02  0.00000E+00  9.000E+00
      25     1     1     2     0     0  2.885471780E+02 -1.246780873E+02 -8.918072890E+02  9.538078109E+02  1.250000000E+02  0.00000E+00  9.000E+00
       2     1     1     2   502     0 -1.682762325E+02  5.503729954E+02 -1.943677299E+03  2.027093675E+03  2.157918644E-05  0.00000E+00  9.000E+00
#rwgt            2          13   1.4210474708441867E-003           7      267853           0
</event>
<event>
      5   9999  3.19816E-02  9.24486E+00 -1.00000E+00  1.99783E-01
      21    -1     0     0   502   501  0.000000000E+00  0.000000000E+00  5.470463043E+02  5.470463043E+02  0.000000000E+00  0.00000E+00  9.000E+00
      21    -1     0     0   501   511  0.000000000E+00  0.000000000E+00 -5.910110401E+02  5.910110401E+02  0.000000000E+00  0.00000E+00  9.000E+00
      25     1     1     2     0     0  2.505816213E+02 -4.191411047E+02 -2.499163081E+02  5.626309409E+02  1.250000000E+02  0.00000E+00  9.000E+00
      25     1     1     2     0     0 -2.569213384E+02  4.258698045E+02  2.204683079E+02  5.582158537E+02  1.250000000E+02  0.00000E+00  9.000E+00
      21     1     1     2   502   511  6.339717171E+00 -6.728699798E+00 -1.451673552E+01  1.721054982E+01  2.384185791E-07  0.00000E+00  9.000E+00
#rwgt            1           1   2.3555701863383561E-002           7      267872           0
</event>
<event>
      5   9999  3.19816E-02  6.75790E+01 -1.00000E+00  1.32000E-01
      21    -1     0     0   502   501  0.000000000E+00  0.000000000E+00  4.070255460E+02  4.070255460E+02  0.000000000E+00  0.00000E+00  9.000E+00
      21    -1     0     0   501   512  0.000000000E+00  0.000000000E+00 -5.071386178E+02  5.071386178E+02  0.000000000E+00  0.00000E+00  9.000E+00
      25     1     1     2     0     0 -2.540290899E+02  2.711306848E+02  1.219180851E+02  4.105260604E+02  1.250000000E+02  0.00000E+00  9.000E+00
      25     1     1     2     0     0  1.961942087E+02 -3.060885145E+02 -1.872050898E+02  4.276132503E+02  1.250000000E+02  0.00000E+00  9.000E+00
      21     1     1     2   502   512  5.783488127E+01  3.495782961E+01 -3.482606704E+01  7.602485309E+01  1.348699152E-06  0.00000E+00  9.000E+00
#rwgt            1           1   2.8657804373472345E-002           7      268142           0
</event>
<event>
      5   9999  3.19816E-02  4.33625E+02 -1.00000E+00  1.00642E-01
      21    -1     0     0   502   501  0.000000000E+00  0.000000000E+00  4.724692883E+03  4.724692883E+03  0.000000000E+00  0.00000E+00  9.000E+00
      21    -1     0     0   511   502  0.000000000E+00  0.000000000E+00 -1.156623705E+02  1.156623705E+02  0.000000000E+00  0.00000E+00  9.000E+00
      25     1     1     2     0     0 -3.726302157E+01 -1.460247418E+02  4.393397972E+02  4.809950263E+02  1.250000000E+02  0.00000E+00  9.000E+00
      25     1     1     2     0     0  2.404641121E+02 -2.370423395E+02  3.709966731E+03  3.727397242E+03  1.250000000E+02  0.00000E+00  9.000E+00
      21     1     1     2   511   501 -2.032010906E+02  3.830670813E+02  4.597239849E+02  6.319629849E+02  9.344061824E-06  0.00000E+00  9.000E+00
#rwgt            1           1   1.4716121934558079E-002           7      268231           0
</event>
<event>
      5   9999  3.19816E-02  2.07395E+02 -1.00000E+00  1.11077E-01
      21    -1     0     0   512   501  0.000000000E+00  0.000000000E+00  1.541741557E+02  1.541741557E+02  0.000000000E+00  0.00000E+00  9.000E+00
      21    -1     0     0   501   502  0.000000000E+00  0.000000000E+00 -1.474249378E+03  1.474249378E+03  0.000000000E+00  0.00000E+00  9.000E+00
      25     1     1     2     0     0  1.053295774E+02  1.369633103E+02 -4.316338787E+01  2.175806662E+02  1.250000000E+02  0.00000E+00  9.000E+00
      25     1     1     2     0     0 -3.022710366E+02 -7.194922364E+01 -1.055978075E+03  1.107817298E+03  1.250000000E+02  0.00000E+00  9.000E+00
      21     1     1     2   512   502  1.969414592E+02 -6.501408667E+01 -2.209337593E+02  3.030255696E+02  3.814697266E-06  0.00000E+00  9.000E+00
#rwgt            2          11   4.0280708226372039E-003           7      268259           0
</event>
<event>
      5   9999  3.19816E-02  6.77836E+01 -1.00000E+00  1.31932E-01
      21    -1     0     0   502   501  0.000000000E+00  0.000000000E+00  1.107920783E+03  1.107920783E+03  0.000000000E+00  0.00000E+00  9.000E+00
      21    -1     0     0   501   511  0.000000000E+00  0.000000000E+00 -1.132375254E+03  1.132375254E+03  0.000000000E+00  0.00000E+00  9.000E+00
      25     1     1     2     0     0  2.347690714E+02 -2.900494752E+02  7.432601711E+02  8.410148018E+02  1.250000000E+02  0.00000E+00  9.000E+00
      25     1     1     2     0     0 -2.709299918E+02  3.473818683E+02  1.478516236E+02  4.812092325E+02  1.250000000E+02  0.00000E+00  9.000E+00
      21     1     1     2   502   511  3.616092037E+01 -5.733239314E+01 -9.155662658E+02  9.180720030E+02  1.525878906E-05  0.00000E+00  9.000E+00
#rwgt            1           1   1.2403275438217762E-002           7      268279           0
</event>
<event>
      5   9999  3.19816E-02  4.76483E+01 -1.00000E+00  1.40280E-01
      21    -1     0     0   512   501  0.000000000E+00  0.000000000E+00  7.646875207E+02  7.646875207E+02  0.000000000E+00  0.00000E+00  9.000E+00
      21    -1     0     0   501   502  0.000000000E+00  0.000000000E+00 -4.262410517E+02  4.262410517E+02  0.000000000E+00  0.00000E+00  9.000E+00
      25     1     1     2     0     0 -2.454013321E+02  2.411828364E+02 -2.556616222E+02  4.465185768E+02  1.250000000E+02  0.00000E+00  9.000E+00
      25     1     1     2     0     0  2.930495713E+02 -2.412450007E+02  5.122487139E+02  6.496929633E+02  1.250000000E+02  0.00000E+00  9.000E+00
      21     1     1     2   512   502 -4.764823922E+01  6.216431357E-02  8.185937726E+01  9.471703231E+01  1.348699152E-06  0.00000E+00  9.000E+00
#rwgt            1           1   3.0795639792174891E-002           7      268424           0
</event>
<event>
      5   9999  3.19816E-02  1.76809E+02 -1.00000E+00  1.13632E-01
      21    -1     0     0   502   501  0.000000000E+00  0.000000000E+00  1.847355315E+03  1.847355315E+03  0.000000000E+00  0.00000E+00  9.000E+00
      21    -1     0     0   511   502  0.000000000E+00  0.000000000E+00 -7.944813158E+02  7.944813158E+02  0.000000000E+00  0.00000E+00  9.000E+00
      25     1     1     2     0     0  3.921281933E+02 -2.240883423E+02  5.880655440E+02  7.519482623E+02  1.250000000E+02  0.00000E+00  9.000E+00
      25     1     1     2     0     0 -5.639291741E+02  1.823056013E+02  1.086290068E+03  1.243745375E+03  1.250000000E+02  0.00000E+00  9.000E+00
      21     1     1     2   511   501  1.718009807E+02  4.178274095E+01 -6.214816122E+02  6.461429941E+02  7.629394531E-06  0.00000E+00  9.000E+00
#rwgt            2          11   8.0117309784131750E-003           7      268562           0
</event>
<event>
      5   9999  3.19816E-02  1.13100E+02 -1.00000E+00  1.21470E-01
       2    -1     0     0   502     0  0.000000000E+00  0.000000000E+00  1.857874233E+03  1.857874233E+03  0.000000000E+00  0.00000E+00  9.000E+00
      21    -1     0     0   501   502  0.000000000E+00  0.000000000E+00 -1.700934596E+02  1.700934596E+02  0.000000000E+00  0.00000E+00  9.000E+00
      25     1     1     2     0     0  3.240466937E+02  1.878975674E+01  8.939256237E+02  9.592118303E+02  1.250000000E+02  0.00000E+00  9.000E+00
      25     1     1     2     0     0 -4.129902017E+02  5.107223435E+01  2.260354530E+02  4.897818962E+02  1.250000000E+02  0.00000E+00  9.000E+00
       2     1     1     2   501     0  8.894350796E+01 -6.986199109E+01  5.678196967E+02  5.789739660E+02  0.000000000E+00  0.00000E+00  9.000E+00
#rwgt            1           1   2.8887235855091141E-002           7      268582           0
</event>
<event>
      5   9999  3.19816E-02  3.45172E+01 -1.00000E+00  1.48926E-01
      21    -1     0     0   502   501  0.000000000E+00  0.000000000E+00  1.110693704E+03  1.110693704E+03  0.000000000E+00  0.00000E+00  9.000E+00
      21    -1     0     0   501   511  0.000000000E+00  0.000000000E+00 -9.415170394E+01  9.415170394E+01  0.000000000E+00  0.00000E+00  9.000E+00
      25     1     1     2     0     0 -1.497393412E+02 -8.471136254E+01  8.807007746E+02  9.060114457E+02  1.250000000E+02  0.00000E+00  9.000E+00
      25     1     1     2     0     0  1.766194720E+02  6.305732002E+01  1.379612043E+02  2.642516933E+02  1.250000000E+02  0.00000E+00  9.000E+00
      21     1     1     2   502   511 -2.688013082E+01  2.165404252E+01 -2.119979257E+00  3.458226861E+01  1.301102635E-06  0.00000E+00  9.000E+00
#rwgt            1           1   2.9560912236327574E-002           7      268682           0
</event>
<event>
      5   9999  3.19816E-02  7.58963E+01 -1.00000E+00  1.29466E-01
      -4    -1     0     0     0   501  0.000000000E+00  0.000000000E+00  1.465135040E+02  1.465135040E+02  0.000000000E+00  0.00000E+00  9.000E+00
      21    -1     0     0   501   502  0.000000000E+00  0.000000000E+00 -7.214376196E+02  7.214376196E+02  0.000000000E+00  0.00000E+00  9.000E+00
      25     1     1     2     0     0  6.912958961E+01 -1.711007095E+02 -4.079333416E+02  4.648537018E+02  1.250000000E+02  0.00000E+00  9.000E+00
      25     1     1     2     0     0 -1.117760385E+02  1.083191032E+02 -2.299301044E+02  3.044992017E+02  1.250000000E+02  0.00000E+00  9.000E+00
      -4     1     1     2     0   502  4.264644889E+01  6.278160628E+01  6.293933040E+01  9.859822007E+01  2.431401974E-06  0.00000E+00  9.000E+00
#rwgt            1           1   2.7277899091677230E-002           7      268788           0
</event>
<event>
      5   9999  3.32576E-02  8.15921E+00 -1.00000E+00  2.06558E-01
      21    -1     0     0   502   501  0.000000000E+00  0.000000000E+00  6.858213353E+02  6.858213353E+02  0.000000000E+00  0.00000E+00  9.000E+00
      21    -1     0     0   511   502  0.000000000E+00  0.000000000E+00 -2.170258265E+02  2.170258265E+02  0.000000000E+00  0.00000E+00  9.000E+00
      25     1     1     2     0     0 -3.088245790E+02 -4.248445597E+00  2.506297662E+01  3.341314452E+02  1.250000000E+02  0.00000E+00  9.000E+00
      25     1     1     2     0     0  3.166704545E+02  2.009052924E+00  4.451674182E+02  5.604313011E+02  1.250000000E+02  0.00000E+00  9.000E+00
      21     1     1     2   511   501 -7.845875487E+00  2.239392673E+00 -1.434886057E+00  8.284415471E+00  1.548574097E-07  0.00000E+00  9.000E+00
#rwgt            1           1   3.2733040445567935E-002           7      268835           0
</event>
<event>
      5   9999  3.19816E-02  1.60418E+02 -1.00000E+00  1.15249E-01
       2    -1     0     0   502     0  0.000000000E+00  0.000000000E+00  1.643164611E+03  1.643164611E+03  0.000000000E+00  0.00000E+00  9.000E+00
      21    -1     0     0   501   502  0.000000000E+00  0.000000000E+00 -4.742752035E+02  4.742752035E+02  0.000000000E+00  0.00000E+00  9.000E+00
      25     1     1     2     0     0 -1.611024176E+02 -1.541164974E+02 -3.014181012E+02  3.952009051E+02  1.250000000E+02  0.00000E+00  9.000E+00
      25     1     1     2     0     0  5.001998573E+01  2.698522005E+02  6.588925074E+01  3.086885201E+02  1.250000000E+02  0.00000E+00  9.000E+00
       2     1     1     2   501     0  1.110824318E+02 -1.157357031E+02  1.404418258E+03  1.413550390E+03  1.525878906E-05  0.00000E+00  9.000E+00
#rwgt            1           1   2.7897925552045743E-002           7      269134           0
</event>
<event>
      5   9999  3.19816E-02  2.76731E+01 -1.00000E+00  1.55516E-01
       2    -1     0     0   502     0  0.000000000E+00  0.000000000E+00  9.221930640E+02  9.221930640E+02  0.000000000E+00  0.00000E+00  9.000E+00
      21    -1     0     0   501   502  0.000000000E+00  0.000000000E+00 -1.416020041E+02  1.416020041E+02  0.000000000E+00  0.00000E+00  9.000E+00
      25     1     1     2     0     0 -2.373115569E+02 -1.494008541E+02  6.088292378E+02  6.818617389E+02  1.250000000E+02  0.00000E+00  9.000E+00
      25     1     1     2     0     0  2.549924440E+02  1.281126102E+02  1.457366014E+02  3.439449729E+02  1.250000000E+02  0.00000E+00  9.000E+00
       2     1     1     2   501     0 -1.768088705E+01  2.128824390E+01  2.602522080E+01  3.798835628E+01  5.840038640E-07  0.00000E+00  9.000E+00
#rwgt            1           1   2.9213056345992802E-002           7      269181           0
</event>
<event>
      5   9999  3.19816E-02  1.20569E+02 -1.00000E+00  1.20281E-01
       2    -1     0     0   502     0  0.000000000E+00  0.000000000E+00  1.702794021E+03  1.702794021E+03  0.000000000E+00  0.00000E+00  9.000E+00
      21    -1     0     0   501   502  0.000000000E+00  0.000000000E+00 -1.413532659E+02  1.413532659E+02  0.000000000E+00  0.00000E+00  9.000E+00
      25     1     1     2     0     0  1.802795441E+02 -1.826153858E+02  1.997786174E+02  3.484043472E+02  1.250000000E+02  0.00000E+00  9.000E+00
      25     1     1     2     0     0 -3.007379054E+02  1.774476623E+02  4.836242958E+02  6.094656841E+02  1.250000000E+02  0.00000E+00  9.000E+00
       2     1     1     2   501     0  1.204583612E+02  5.167723487E+00  8.780378421E+02  8.862772559E+02  1.078959322E-05  0.00000E+00  9.000E+00
#rwgt            1           1   2.5923401431675611E-002           7      269269           0
</event>
<event>
      5   9999  3.19816E-02  5.37041E+01 -1.00000E+00  1.37327E-01
      21    -1     0     0   502   511  0.000000000E+00  0.000000000E+00  1.361964384E+02  1.361964384E+02  0.000000000E+00  0.00000E+00  9.000E+00
      21    -1     0     0   501   502  0.000000000E+00  0.000000000E+00 -1.304197878E+03  1.304197878E+03  0.000000000E+00  0.00000E+00  9.000E+00
      25     1     1     2     0     0  3.461209079E+02  2.317051996E+01 -4.026621952E+02  5.459838819E+02  1.250000000E+02  0.00000E+00  9.000E+00
      25     1     1     2     0     0 -3.147364619E+02 -6.674974457E+01 -7.665663528E+02  8.406922993E+02  1.250000000E+02  0.00000E+00  9.000E+00
      21     1     1     2   501   511 -3.138444606E+01  4.357922461E+01  1.227108279E+00  5.371813536E+01  1.132586280E-06  0.00000E+00  9.000E+00
#rwgt            1           1   2.9424355171266365E-002           7      269327           0
</event>
<event>
      5   9999  3.19816E-02  3.61852E+01 -1.00000E+00  1.47592E-01
      21    -1     0     0   502   512  0.000000000E+00  0.000000000E+00  1.009464729E+02  1.009464729E+02  0.000000000E+00  0.00000E+00  9.000E+00
      21    -1     0     0   501   502  0.000000000E+00  0.000000000E+00 -9.754930178E+02  9.754930178E+02  0.000000000E+00  0.00000E+00  9.000E+00
      25     1     1     2     0     0 -4.483294304E+01  2.291623769E+02 -2.284306699E+02  3.497584291E+02  1.250000000E+02  0.00000E+00  9.000E+00
      25     1     1     2     0     0  9.979712260E+00 -2.194349141E+02 -6.423717419E+02  6.903026373E+02  1.250000000E+02  0.00000E+00  9.000E+00
      21     1     1     2   501   512  3.485323078E+01 -9.727462799E+00 -3.744133028E+00  3.637842438E+01  6.419616708E-07  0.00000E+00  9.000E+00
#rwgt            1           1   2.8582176234502810E-002           7      269508           0
</event>
<event>
      5   9999  3.19816E-02  1.18072E+01 -1.00000E+00  1.87771E-01
      21    -1     0     0   502   501  0.000000000E+00  0.000000000E+00  1.400516378E+03  1.400516378E+03  0.000000000E+00  0.00000E+00  9.000E+00
      21    -1     0     0   511   502  0.000000000E+00  0.000000000E+00 -1.503407013E+02  1.503407013E+02  0.000000000E+00  0.00000E+00  9.000E+00
      25     1     1     2     0     0  3.848357883E+02  4.673315225E+01  3.065300476E+02  5.097727352E+02  1.250000000E+02  0.00000E+00  9.000E+00
      25     1     1     2     0     0 -3.783981877E+02 -5.663095545E+01  9.468460166E+02  1.028851123E+03  1.250000000E+02  0.00000E+00  9.000E+00
      21     1     1     2   511   501 -6.437600600E+00  9.897803202E+00 -3.200387867E+00  1.223322084E+01  4.519745972E-07  0.00000E+00  9.000E+00
#rwgt            1           1   3.1032481263739677E-002           7      269627           0
</event>
<event>
      5   9999  3.19816E-02  6.78356E+01 -1.00000E+00  1.31915E-01
       2    -1     0     0   502     0  0.000000000E+00  0.000000000E+00  2.507155547E+03  2.507155547E+03  0.000000000E+00  0.00000E+00  9.000E+00
      21    -1     0     0   501   502  0.000000000E+00  0.000000000E+00 -6.384671001E+02  6.384671001E+02  0.000000000E+00  0.00000E+00  9.000E+00
      25     1     1     2     0     0  8.459111722E+01  1.596425685E+02  1.891410627E+01  2.205088438E+02  1.250000000E+02  0.00000E+00  9.000E+00
      25     1     1     2     0     0 -1.493921572E+02 -1.797048144E+02 -5.044934959E+02  5.698688659E+02  1.250000000E+02  0.00000E+00  9.000E+00
       2     1     1     2   501     0  6.480103999E+01  2.006224588E+01  2.354267837E+03  2.355244938E+03  3.051757812E-05  0.00000E+00  9.000E+00
#rwgt            1           1   2.9174488908583481E-002           7      269872           0
</event>
<event>
      5   9999  3.19816E-02  2.48851E+02 -1.00000E+00  1.08299E-01
      21    -1     0     0   502   501  0.000000000E+00  0.000000000E+00  1.114390548E+03  1.114390548E+03  0.000000000E+00  0.00000E+00  9.000E+00
      21    -1     0     0   501   511  0.000000000E+00  0.000000000E+00 -1.962204546E+02  1.962204546E+02  0.000000000E+00  0.00000E+00  9.000E+00
      25     1     1     2     0     0 -1.255140436E+02 -7.678948766E+01  3.569840643E+02  4.058485219E+02  1.250000000E+02  0.00000E+00  9.000E+00
      25     1     1     2     0     0  2.443933142E+02  2.954094175E+02  5.109103121E+02  6.508833713E+02  1.250000000E+02  0.00000E+00  9.000E+00
      21     1     1     2   502   511 -1.188792706E+02 -2.186199298E+02  5.027571740E+01  2.538791099E+02  5.135693366E-06  0.00000E+00  9.000E+00
#rwgt            2          11   4.0869249252534655E-003           7      269999           0
</event>
<event>
      5   9999  3.19816E-02  4.42049E+01 -1.00000E+00  1.42198E-01
      21    -1     0     0   502   501  0.000000000E+00  0.000000000E+00  1.167321464E+02  1.167321464E+02  0.000000000E+00  0.00000E+00  9.000E+00
      21    -1     0     0   512   502  0.000000000E+00  0.000000000E+00 -7.447607951E+02  7.447607951E+02  0.000000000E+00  0.00000E+00  9.000E+00
      25     1     1     2     0     0 -1.052695224E+02 -6.484754438E+01 -3.805502494E+02  4.192020618E+02  1.250000000E+02  0.00000E+00  9.000E+00
      25     1     1     2     0     0  1.444243242E+02  8.536520754E+01 -1.956152136E+01  2.101267646E+02  1.250000000E+02  0.00000E+00  9.000E+00
      21     1     1     2   512   501 -3.915480189E+01 -2.051766317E+01 -2.279168780E+02  2.321641150E+02  0.000000000E+00  0.00000E+00  9.000E+00
#rwgt            1           1   2.6897846301999113E-002           7      270034           0
</event>
<event>
      5   9999  3.19816E-02  7.22306E+01 -1.00000E+00  1.30534E-01
      21    -1     0     0   502   511  0.000000000E+00  0.000000000E+00  4.985309763E+02  4.985309763E+02  0.000000000E+00  0.00000E+00  9.000E+00
      21    -1     0     0   501   502  0.000000000E+00  0.000000000E+00 -3.622173892E+02  3.622173892E+02  0.000000000E+00  0.00000E+00  9.000E+00
      25     1     1     2     0     0 -3.012789396E+02 -1.137477544E+01  2.084252594E+02  3.872524676E+02  1.250000000E+02  0.00000E+00  9.000E+00
      25     1     1     2     0     0  2.403796630E+02  5.021462466E+01 -1.903743840E+02  3.349198366E+02  1.250000000E+02  0.00000E+00  9.000E+00
      21     1     1     2   501   511  6.089927663E+01 -3.883984922E+01  1.182627117E+02  1.385760613E+02  1.907348633E-06  0.00000E+00  9.000E+00
#rwgt            1           1   2.8145284435744610E-002           7      270200           0
</event>
<event>
      5   9999  3.19816E-02  8.39573E+01 -1.00000E+00  1.27343E-01
      21    -1     0     0   512   501  0.000000000E+00  0.000000000E+00  4.479184250E+02  4.479184250E+02  0.000000000E+00  0.00000E+00  9.000E+00
      21    -1     0     0   501   502  0.000000000E+00  0.000000000E+00 -4.351980890E+02  4.351980890E+02  0.000000000E+00  0.00000E+00  9.000E+00
      25     1     1     2     0     0 -1.927512098E+02 -1.258064859E+02 -2.673386626E+02  3.742662973E+02  1.250000000E+02  0.00000E+00  9.000E+00
      25     1     1     2     0     0  2.724571160E+02  1.521845728E+02  1.918435050E+02  3.870684108E+02  1.250000000E+02  0.00000E+00  9.000E+00
      21     1     1     2   512   502 -7.970590619E+01 -2.637808692E+01  8.821549349E+01  1.217818059E+02  0.000000000E+00  0.00000E+00  9.000E+00
#rwgt            1           1   2.7434919180427692E-002           7      270290           0
</event>
<event>
      5   9999  3.19816E-02  2.21848E+02 -1.00000E+00  1.10033E-01
      21    -1     0     0   502   501  0.000000000E+00  0.000000000E+00  7.881727552E+02  7.881727552E+02  0.000000000E+00  0.00000E+00  9.000E+00
      21    -1     0     0   501   511  0.000000000E+00  0.000000000E+00 -1.932199334E+03  1.932199334E+03  0.000000000E+00  0.00000E+00  9.000E+00
      25     1     1     2     0     0 -3.232641746E+02 -5.778860215E+02 -1.614783959E+02  6.929301933E+02  1.250000000E+02  0.00000E+00  9.000E+00
      25     1     1     2     0     0  1.394709836E+02  4.536415550E+02  3.963312822E+02  6.308298510E+02  1.250000000E+02  0.00000E+00  9.000E+00
      21     1     1     2   502   511  1.837931910E+02  1.242444665E+02 -1.378879465E+03  1.396612044E+03  1.525878906E-05  0.00000E+00  9.000E+00
#rwgt            1           1   2.9291765364225699E-002           7      270362           0
</event>
<event>
      5   9999  3.19816E-02  5.90080E+01 -1.00000E+00  1.35091E-01
      21    -1     0     0   512   501  0.000000000E+00  0.000000000E+00  5.392289493E+02  5.392289493E+02  0.000000000E+00  0.00000E+00  9.000E+00
      21    -1     0     0   501   502  0.000000000E+00  0.000000000E+00 -5.885474306E+02  5.885474306E+02  0.000000000E+00  0.00000E+00  9.000E+00
      25     1     1     2     0     0  3.045091420E+02 -1.537307404E+02 -3.784861271E+02  5.246291133E+02  1.250000000E+02  0.00000E+00  9.000E+00
      25     1     1     2     0     0 -3.560130380E+02  1.825282594E+02  2.070062895E+02  4.674809650E+02  1.250000000E+02  0.00000E+00  9.000E+00
      21     1     1     2   512   502  5.150389604E+01 -2.879751902E+01  1.221613564E+02  1.356663017E+02  3.015782986E-06  0.00000E+00  9.000E+00
#rwgt            1           1   2.5435774918967639E-002           7      270425           0
</event>
<event>
      5   9999  3.19816E-02  2.87441E+01 -1.00000E+00  1.54341E-01
      21    -1     0     0   502   501  0.000000000E+00  0.000000000E+00  2.920958770E+02  2.920958770E+02  0.000000000E+00  0.00000E+00  9.000E+00
      21    -1     0     0   501   511  0.000000000E+00  0.000000000E+00 -1.698251909E+02  1.698251909E+02  0.000000000E+00  0.00000E+00  9.000E+00
      25     1     1     2     0     0 -5.664287187E+01 -8.503973959E+01  1.692930877E+02  2.339344390E+02  1.250000000E+02  0.00000E+00  9.000E+00
      25     1     1     2     0     0  3.551563728E+01  1.045297898E+02  6.864185300E+00  1.669130147E+02  1.250000000E+02  0.00000E+00  9.000E+00
      21     1     1     2   502   511  2.112723459E+01 -1.949005017E+01 -5.388658688E+01  6.107361413E+01  6.743495762E-07  0.00000E+00  9.000E+00
#rwgt            1           1   2.8176491917916366E-002           7      270540           0
</event>
<event>
      5   9999  3.19816E-02  3.53630E+02 -1.00000E+00  1.03322E-01
       2    -1     0     0   502     0  0.000000000E+00  0.000000000E+00  1.461605795E+03  1.461605795E+03  0.000000000E+00  0.00000E+00  9.000E+00
      21    -1     0     0   501   502  0.000000000E+00  0.000000000E+00 -6.081065310E+02  6.081065310E+02  0.000000000E+00  0.00000E+00  9.000E+00
      25     1     1     2     0     0 -1.314372812E+02 -2.188955240E+02 -1.953561761E+02  3.449348414E+02  1.250000000E+02  0.00000E+00  9.000E+00
      25     1     1     2     0     0 -1.751116515E+02  3.951958378E+02 -1.504274281E+02  4.744441504E+02  1.250000000E+02  0.00000E+00  9.000E+00
       2     1     1     2   501     0  3.065489327E+02 -1.763003138E+02  1.199282868E+03  1.250333334E+03  1.525878906E-05  0.00000E+00  9.000E+00
#rwgt            1           1   2.8017356759358829E-002           7      270638           0
</event>
<event>
      5   9999  3.19816E-02  2.62457E+02 -1.00000E+00  1.07514E-01
      21    -1     0     0   502   501  0.000000000E+00  0.000000000E+00  3.512867201E+02  3.512867201E+02  0.000000000E+00  0.00000E+00  9.000E+00
       1    -1     0     0   501     0  0.000000000E+00  0.000000000E+00 -5.006974353E+02  5.006974353E+02  0.000000000E+00  0.00000E+00  9.000E+00
      25     1     1     2     0     0  1.451327062E+01 -2.001856101E+02 -3.608216656E+01  2.391899585E+02  1.250000000E+02  0.00000E+00  9.000E+00
      25     1     1     2     0     0 -1.221592574E+02 -3.918056293E+01  1.554216718E+02  2.371474156E+02  1.250000000E+02  0.00000E+00  9.000E+00
       1     1     1     2   502     0  1.076459868E+02  2.393661730E+02 -2.687502204E+02  3.756467812E+02  0.000000000E+00  0.00000E+00  9.000E+00
#rwgt            2          12   4.1859677613056344E-004           7      270793           0
</event>
<event>
      5   9999  3.19816E-02  4.20012E+01 -1.00000E+00  1.43537E-01
      21    -1     0     0   502   511  0.000000000E+00  0.000000000E+00  7.302326395E+02  7.302326395E+02  0.000000000E+00  0.00000E+00  9.000E+00
      21    -1     0     0   501   502  0.000000000E+00  0.000000000E+00 -2.032475840E+02  2.032475840E+02  0.000000000E+00  0.00000E+00  9.000E+00
      25     1     1     2     0     0  1.963039587E+02  1.504515340E+02  3.121451716E+02  4.174092912E+02  1.250000000E+02  0.00000E+00  9.000E+00
      25     1     1     2     0     0 -1.872411111E+02 -1.914633323E+02 -1.652227955E+00  2.955421648E+02  1.250000000E+02  0.00000E+00  9.000E+00
      21     1     1     2   501   511 -9.062847572E+00  4.101179826E+01  2.164921119E+02  2.205287675E+02  2.697398305E-06  0.00000E+00  9.000E+00
#rwgt            1           1   2.8972835403530333E-002           7      270812           0
</event>
<event>
      5   9999  3.19816E-02  1.25540E+01 -1.00000E+00  1.84990E-01
       1    -1     0     0   502     0  0.000000000E+00  0.000000000E+00  7.919643340E+02  7.919643340E+02  0.000000000E+00  0.00000E+00  9.000E+00
      21    -1     0     0   501   502  0.000000000E+00  0.000000000E+00 -1.102275546E+02  1.102275546E+02  0.000000000E+00  0.00000E+00  9.000E+00
      25     1     1     2     0     0 -2.281907898E+02  5.601081162E+01  1.509749407E+02  3.059847714E+02  1.250000000E+02  0.00000E+00  9.000E+00
      25     1     1     2     0     0  2.169935503E+02 -6.168750148E+01  4.925745213E+02  5.560091796E+02  1.250000000E+02  0.00000E+00  9.000E+00
       1     1     1     2   501     0  1.119723954E+01  5.676689856E+00  3.818731737E+01  4.019793762E+01  4.768371582E-07  0.00000E+00  9.000E+00
#rwgt            1           1   2.8444506653329857E-002           7      270927           0
</event>
<event>
      5   9999  3.41441E-02  1.69398E+02 -1.00000E+00  1.14338E-01
      21    -1     0     0   502   511  0.000000000E+00  0.000000000E+00  1.444024555E+03  1.444024555E+03  0.000000000E+00  0.00000E+00  9.000E+00
      21    -1     0     0   501   502  0.000000000E+00  0.000000000E+00 -1.094014454E+03  1.094014454E+03  0.000000000E+00  0.00000E+00  9.000E+00
      25     1     1     2     0     0  6.399532517E+02 -1.043579029E+02 -7.976454148E+02  1.035516269E+03  1.250000000E+02  0.00000E+00  9.000E+00
      25     1     1     2     0     0 -7.477953320E+02  2.349936830E+02  1.007809938E+03  1.282858434E+03  1.250000000E+02  0.00000E+00  9.000E+00
      21     1     1     2   501   511  1.078420803E+02 -1.306357801E+02  1.398455775E+02  2.196643050E+02  4.264961200E-06  0.00000E+00  9.000E+00
#rwgt            1           1   8.0701034594078208E-002           7      271145           0
</event>
<event>
      5   9999  3.19816E-02  1.51297E+02 -1.00000E+00  1.16246E-01
       5    -1     0     0   502     0  0.000000000E+00  0.000000000E+00  1.030616010E+03  1.030616010E+03  0.000000000E+00  0.00000E+00  9.000E+00
      21    -1     0     0   501   502  0.000000000E+00  0.000000000E+00 -6.625230405E+02  6.625230405E+02  0.000000000E+00  0.00000E+00  9.000E+00
      25     1     1     2     0     0  4.945938406E+01  2.776675399E+02  7.535687911E+01  3.175675560E+02  1.250000000E+02  0.00000E+00  9.000E+00
      25     1     1     2     0     0  8.614064104E+01 -3.447740642E+02 -4.675196516E+02  6.004073534E+02  1.250000000E+02  0.00000E+00  9.000E+00
       5     1     1     2   501     0 -1.356000251E+02  6.710652421E+01  7.602557416E+02  7.751641407E+02  1.078959322E-05  0.00000E+00  9.000E+00
#rwgt            1           1   2.4321797130206015E-002           7      271233           0
</event>
<event>
      5   9999  3.19816E-02  2.40498E+01 -1.00000E+00  1.60022E-01
      21    -1     0     0   511   501  0.000000000E+00  0.000000000E+00  7.287099194E+02  7.287099194E+02  0.000000000E+00  0.00000E+00  9.000E+00
      21    -1     0     0   501   502  0.000000000E+00  0.000000000E+00 -2.147475381E+02  2.147475381E+02  0.000000000E+00  0.00000E+00  9.000E+00
      25     1     1     2     0     0 -2.894172751E+02 -1.717451449E+02  1.475250465E+02  3.881332159E+02  1.250000000E+02  0.00000E+00  9.000E+00
      25     1     1     2     0     0  3.131056773E+02  1.758987692E+02  2.990315475E+02  4.837565592E+02  1.250000000E+02  0.00000E+00  9.000E+00
      21     1     1     2   511   502 -2.368840221E+01 -4.153624279E+00  6.740578737E+01  7.156768240E+01  1.348699152E-06  0.00000E+00  9.000E+00
#rwgt            1           1   2.5845601524601608E-002           7      271286           0
</event>
<event>
      5   9999  3.19816E-02  1.88575E+02 -1.00000E+00  1.12586E-01
      21    -1     0     0   502   501  0.000000000E+00  0.000000000E+00  8.026994666E+02  8.026994666E+02  0.000000000E+00  0.00000E+00  9.000E+00
      -2    -1     0     0     0   502  0.000000000E+00  0.000000000E+00 -5.566031127E+02  5.566031127E+02  0.000000000E+00  0.00000E+00  9.000E+00
      25     1     1     2     0     0  8.905523613E+01 -1.715904599E+01  7.306592616E+01  1.708475856E+02  1.250000000E+02  0.00000E+00  9.000E+00
      25     1     1     2     0     0 -4.900269791E+01  2.014310825E+02  6.403194803E+02  6.845507887E+02  1.250000000E+02  0.00000E+00  9.000E+00
      -2     1     1     2     0   501 -4.005253823E+01 -1.842720365E+02 -4.672890525E+02  5.039042051E+02  5.394796609E-06  0.00000E+00  9.000E+00
#rwgt            2           9   4.8464956825962363E-004           7      271586           0
</event>
<event>
      5   9999  3.19816E-02  1.40450E+02 -1.00000E+00  1.17537E-01
      21    -1     0     0   511   501  0.000000000E+00  0.000000000E+00  2.957654298E+02  2.957654298E+02  0.000000000E+00  0.00000E+00  9.000E+00
      21    -1     0     0   501   502  0.000000000E+00  0.000000000E+00 -1.017355471E+03  1.017355471E+03  0.000000000E+00  0.00000E+00  9.000E+00
      25     1     1     2     0     0 -2.420455264E+02  3.262112804E+02 -2.213887594E+02  4.792054039E+02  1.250000000E+02  0.00000E+00  9.000E+00
      25     1     1     2     0     0  2.020225952E+02 -4.608379783E+02 -4.441294798E+02  6.826864332E+02  1.250000000E+02  0.00000E+00  9.000E+00
      21     1     1     2   511   502  4.002293123E+01  1.346266979E+02 -5.607180242E+01  1.512290641E+02  3.234066955E-06  0.00000E+00  9.000E+00
#rwgt            1           1   3.0769849144786195E-002           7      271605           0
</event>
<event>
      5   9999  3.19816E-02  2.61172E+01 -1.00000E+00  1.57342E-01
      21    -1     0     0   512   501  0.000000000E+00  0.000000000E+00  4.000724476E+02  4.000724476E+02  0.000000000E+00  0.00000E+00  9.000E+00
      21    -1     0     0   501   502  0.000000000E+00  0.000000000E+00 -1.299653217E+02  1.299653217E+02  0.000000000E+00  0.00000E+00  9.000E+00
      25     1     1     2     0     0  7.522104698E+01  5.806458358E+01  1.701028432E+02  2.314944471E+02  1.250000000E+02  0.00000E+00  9.000E+00
      25     1     1     2     0     0 -5.106619064E+01 -6.799690616E+01 -3.978890680E+01  1.563313538E+02  1.250000000E+02  0.00000E+00  9.000E+00
      21     1     1     2   512   502 -2.415485635E+01  9.932322573E+00  1.397931895E+02  1.422119684E+02  2.697398305E-06  0.00000E+00  9.000E+00
#rwgt            1           1   2.3226139498036168E-002           7      271682           0
</event>
<event>
      5   9999  3.19816E-02  8.37914E+01 -1.00000E+00  1.27384E-01
       2    -1     0     0   502     0  0.000000000E+00  0.000000000E+00  1.372197242E+03  1.372197242E+03  0.000000000E+00  0.00000E+00  9.000E+00
      21    -1     0     0   501   502  0.000000000E+00  0.000000000E+00 -1.104121679E+02  1.104121679E+02  0.000000000E+00  0.00000E+00  9.000E+00
      25     1     1     2     0     0  8.061498996E+01  2.087740300E+02  8.527374946E+02  8.904333815E+02  1.250000000E+02  0.00000E+00  9.000E+00
      25     1     1     2     0     0 -7.192886022E+01 -2.921140232E+02  2.438059672E+02  4.069038131E+02  1.250000000E+02  0.00000E+00  9.000E+00
       2     1     1     2   501     0 -8.686129748E+00  8.333999320E+01  1.652416126E+02  1.852722155E+02  2.697398305E-06  0.00000E+00  9.000E+00
#rwgt            1           1   2.8919447138736259E-002           7      271768           0
</event>
<event>
      5   9999  3.19816E-02  5.66364E+01 -1.00000E+00  1.36056E-01
      21    -1     0     0   502   501  0.000000000E+00  0.000000000E+00  5.034747434E+02  5.034747434E+02  0.000000000E+00  0.00000E+00  9.000E+00
      21    -1     0     0   501   511  0.000000000E+00  0.000000000E+00 -7.481178100E+01  7.481178100E+01  0.000000000E+00  0.00000E+00  9.000E+00
      25     1     1     2     0     0 -9.464108794E+00 -6.257475981E+01  5.013677767E+01  1.488081530E+02  1.250000000E+02  0.00000E+00  9.000E+00
      25     1     1     2     0     0 -4.091822918E+01  3.670379506E+01  3.205802834E+02  3.484511274E+02  1.250000000E+02  0.00000E+00  9.000E+00
      21     1     1     2   502   511  5.038233798E+01  2.587096475E+01  5.794590129E+01  8.102724402E+01  1.168007728E-06  0.00000E+00  9.000E+00
#rwgt            2          11   5.1113760198945755E-003           7      271884           0
</event>
<event>
      5   9999  3.19816E-02  8.51435E+01 -1.00000E+00  1.27053E-01
      21    -1     0     0   502   501  0.000000000E+00  0.000000000E+00  1.352350316E+02  1.352350316E+02  0.000000000E+00  0.00000E+00  9.000E+00
       2    -1     0     0   501     0  0.000000000E+00  0.000000000E+00 -1.890961816E+03  1.890961816E+03  0.000000000E+00  0.00000E+00  9.000E+00
      25     1     1     2     0     0  2.531627699E+02  7.177196782E+01 -1.366462986E+02  3.217760313E+02  1.250000000E+02  0.00000E+00  9.000E+00
      25     1     1     2     0     0 -1.813558301E+02 -2.602070519E+01 -2.561301702E+02  3.388136336E+02  1.250000000E+02  0.00000E+00  9.000E+00
       2     1     1     2   502     0 -7.180693984E+01 -4.575126263E+01 -1.362950316E+03  1.365607183E+03  2.642899792E-05  0.00000E+00  9.000E+00
#rwgt            1           1   2.3240020032427273E-002           7      271904           0
</event>
<event>
      5   9999  3.19816E-02  7.84570E+01 -1.00000E+00  1.28760E-01
      21    -1     0     0   502   511  0.000000000E+00  0.000000000E+00  1.151055904E+03  1.151055904E+03  0.000000000E+00  0.00000E+00  9.000E+00
      21    -1     0     0   501   502  0.000000000E+00  0.000000000E+00 -1.224114826E+02  1.224114826E+02  0.000000000E+00  0.00000E+00  9.000E+00
      25     1     1     2     0     0 -4.811377493E+01 -3.852186441E+00  7.381784173E+02  7.502413948E+02  1.250000000E+02  0.00000E+00  9.000E+00
      25     1     1     2     0     0  8.580681666E+01 -6.495726548E+01 -5.116677394E+01  1.727000141E+02  1.250000000E+02  0.00000E+00  9.000E+00
      21     1     1     2   501   511 -3.769304173E+01  6.880945192E+01  3.416327783E+02  3.505259780E+02  3.814697266E-06  0.00000E+00  9.000E+00
#rwgt            2          11   1.6651557576518301E-003           7      272061           0
</event>
<event>
      5   9999  3.19816E-02  2.33437E+01 -1.00000E+00  1.61014E-01
      21    -1     0     0   512   501  0.000000000E+00  0.000000000E+00  4.615582353E+02  4.615582353E+02  0.000000000E+00  0.00000E+00  9.000E+00
      21    -1     0     0   501   502  0.000000000E+00  0.000000000E+00 -3.099872364E+02  3.099872364E+02  0.000000000E+00  0.00000E+00  9.000E+00
      25     1     1     2     0     0 -8.038532735E+01  2.809974375E+01 -2.725391255E+02  3.116953182E+02  1.250000000E+02  0.00000E+00  9.000E+00
      25     1     1     2     0     0  5.796348197E+01 -2.160455160E+01  4.087935627E+02  4.319302013E+02  1.250000000E+02  0.00000E+00  9.000E+00
      21     1     1     2   512   502  2.242184538E+01 -6.495192149E+00  1.531656161E+01  2.791995220E+01  6.078504936E-07  0.00000E+00  9.000E+00
#rwgt            1           1   2.9133139803381607E-002           7      272081           0
</event>
<event>
      5   9999  3.19816E-02  1.26914E+02 -1.00000E+00  1.19345E-01
      21    -1     0     0   511   501  0.000000000E+00  0.000000000E+00  1.648244866E+03  1.648244866E+03  0.000000000E+00  0.00000E+00  9.000E+00
      21    -1     0     0   501   502  0.000000000E+00  0.000000000E+00 -4.420593045E+02  4.420593045E+02  0.000000000E+00  0.00000E+00  9.000E+00
      25     1     1     2     0     0  2.168851275E+02 -6.893950899E+02  6.186931789E+02  9.595368665E+02  1.250000000E+02  0.00000E+00  9.000E+00
      25     1     1     2     0     0 -3.214893391E+02  7.612632018E+02  4.758385135E+02  9.617298730E+02  1.250000000E+02  0.00000E+00  9.000E+00
      21     1     1     2   511   502  1.046042116E+02 -7.186811194E+01  1.116538691E+02  1.690374310E+02  1.348699152E-06  0.00000E+00  9.000E+00
#rwgt            1           1   2.7372299773925059E-002           7      272203           0
</event>
<event>
      5   9999  3.19816E-02  2.04891E+02 -1.00000E+00  1.11267E-01
      21    -1     0     0   502   501  0.000000000E+00  0.000000000E+00  1.129257817E+03  1.129257817E+03  0.000000000E+00  0.00000E+00  9.000E+00
      21    -1     0     0   512   502  0.000000000E+00  0.000000000E+00 -1.398261230E+03  1.398261230E+03  0.000000000E+00  0.00000E+00  9.000E+00
      25     1     1     2     0     0  9.762244940E+02  8.953261415E+01 -8.128296164E+02  1.279588737E+03  1.250000000E+02  0.00000E+00  9.000E+00
      25     1     1     2     0     0 -7.713393044E+02 -9.100986258E+01  6.469639056E+02  1.018545243E+03  1.250000000E+02  0.00000E+00  9.000E+00
      21     1     1     2   512   501 -2.048851896E+02  1.477248425E+00 -1.031377013E+02  2.293850662E+02  4.473129043E-06  0.00000E+00  9.000E+00
#rwgt            1           1   2.8992397216922934E-002           7      272309           0
</event>
<event>
      5   9999  3.49919E-02  6.29128E+01 -1.00000E+00  1.33612E-01
       1    -1     0     0   502     0  0.000000000E+00  0.000000000E+00  2.412044921E+03  2.412044921E+03  0.000000000E+00  0.00000E+00  9.000E+00
      21    -1     0     0   501   502  0.000000000E+00  0.000000000E+00 -2.142149041E+03  2.142149041E+03  0.000000000E+00  0.00000E+00  9.000E+00
      25     1     1     2     0     0  2.675680448E+02 -2.200005448E+01 -1.302000744E+03  1.335255630E+03  1.250000000E+02  0.00000E+00  9.000E+00
      25     1     1     2     0     0 -2.491548360E+02 -3.815788761E+01 -7.990606921E+02  8.471464728E+02  1.250000000E+02  0.00000E+00  9.000E+00
       1     1     1     2   501     0 -1.841320881E+01  6.015794209E+01  2.370957316E+03  2.371791858E+03  3.051757812E-05  0.00000E+00  9.000E+00
#rwgt            1           1  0.10723188631860742                7      272421           0
</event>
<event>
      5   9999  3.19816E-02  8.49621E+00 -1.00000E+00  2.04311E-01
      21    -1     0     0   502   511  0.000000000E+00  0.000000000E+00  4.145244084E+02  4.145244084E+02  0.000000000E+00  0.00000E+00  9.000E+00
      21    -1     0     0   501   502  0.000000000E+00  0.000000000E+00 -1.253541747E+03  1.253541747E+03  0.000000000E+00  0.00000E+00  9.000E+00
      25     1     1     2     0     0  6.321283452E+02  2.798135890E+01 -7.002050053E+02  9.519880518E+02  1.250000000E+02  0.00000E+00  9.000E+00
      25     1     1     2     0     0 -6.372180695E+02 -3.478431561E+01 -1.794199129E+02  6.745912258E+02  1.250000000E+02  0.00000E+00  9.000E+00
      21     1     1     2   501   511  5.089724321E+00  6.802956708E+00  4.060757956E+01  4.148687782E+01  9.536743164E-07  0.00000E+00  9.000E+00
#rwgt            1           1   3.2122851863418907E-002           7      272511           0
</event>
<event>
      5   9999  3.19816E-02  3.46769E+01 -1.00000E+00  1.48794E-01
      21    -1     0     0   502   501  0.000000000E+00  0.000000000E+00  5.439181473E+02  5.439181473E+02  0.000000000E+00  0.00000E+00  9.000E+00
      21    -1     0     0   512   502  0.000000000E+00  0.000000000E+00 -2.016010454E+02  2.016010454E+02  0.000000000E+00  0.00000E+00  9.000E+00
      25     1     1     2     0     0  1.598085812E+02  5.589054766E+01  4.122073183E+02  4.628200614E+02  1.250000000E+02  0.00000E+00  9.000E+00
      25     1     1     2     0     0 -1.920847981E+02 -6.856858297E+01 -5.957612190E+01  2.465208602E+02  1.250000000E+02  0.00000E+00  9.000E+00
      21     1     1     2   512   501  3.227621693E+01  1.267803531E+01 -1.031409441E+01  3.617827113E+01  5.840038640E-07  0.00000E+00  9.000E+00
#rwgt            1           1   2.4505773144564549E-002           7      272884           0
</event>
<event>
      5   9999  3.19816E-02  1.41834E+01 -1.00000E+00  1.79705E-01
      21    -1     0     0   502   501  0.000000000E+00  0.000000000E+00  6.200722477E+02  6.200722477E+02  0.000000000E+00  0.00000E+00  9.000E+00
       2    -1     0     0   501     0  0.000000000E+00  0.000000000E+00 -1.949897157E+03  1.949897157E+03  0.000000000E+00  0.00000E+00  9.000E+00
      25     1     1     2     0     0 -7.166257427E+01 -2.384978126E+01 -7.463805325E+00  1.462362643E+02  1.250000000E+02  0.00000E+00  9.000E+00
      25     1     1     2     0     0  6.917692253E+01  3.781371846E+01  5.407434858E+02  5.605745636E+02  1.250000000E+02  0.00000E+00  9.000E+00
       2     1     1     2   502     0  2.485651745E+00 -1.396393720E+01 -1.863104590E+03  1.863158577E+03  0.000000000E+00  0.00000E+00  9.000E+00
#rwgt            1           1   2.6852478609535796E-002           7      273046           0
</event>
<event>
      5   9999  3.19816E-02  5.88012E+01 -1.00000E+00  1.35173E-01
      21    -1     0     0   511   501  0.000000000E+00  0.000000000E+00  1.208189922E+03  1.208189922E+03  0.000000000E+00  0.00000E+00  9.000E+00
      21    -1     0     0   501   502  0.000000000E+00  0.000000000E+00 -6.049626030E+01  6.049626030E+01  0.000000000E+00  0.00000E+00  9.000E+00
      25     1     1     2     0     0  3.021766510E+01 -2.351032373E+01  6.468841772E+02  6.599621060E+02  1.250000000E+02  0.00000E+00  9.000E+00
      25     1     1     2     0     0 -4.208098828E+01  8.110231278E+01  6.328733011E+01  1.672682901E+02  1.250000000E+02  0.00000E+00  9.000E+00
      21     1     1     2   511   502  1.186332318E+01 -5.759198905E+01  4.375221547E+02  4.414557865E+02  0.000000000E+00  0.00000E+00  9.000E+00
#rwgt            1           1   2.8114616540742172E-002           7      273197           0
</event>
<event>
      5   9999  3.19816E-02  3.40668E+01 -1.00000E+00  1.49302E-01
      21    -1     0     0   502   501  0.000000000E+00  0.000000000E+00  2.836318520E+02  2.836318520E+02  0.000000000E+00  0.00000E+00  9.000E+00
      21    -1     0     0   501   512  0.000000000E+00  0.000000000E+00 -8.209615900E+02  8.209615900E+02  0.000000000E+00  0.00000E+00  9.000E+00
      25     1     1     2     0     0 -2.224070638E+02  4.025148831E+01 -4.459059371E+02  5.153078585E+02  1.250000000E+02  0.00000E+00  9.000E+00
      25     1     1     2     0     0  2.562822597E+02 -3.664328165E+01  1.644203644E+02  3.311833072E+02  1.250000000E+02  0.00000E+00  9.000E+00
      21     1     1     2   502   512 -3.387519590E+01 -3.608206667E+00 -2.558441654E+02  2.581022763E+02  5.394796609E-06  0.00000E+00  9.000E+00
#rwgt            1           1   2.8629098697035931E-002           7      273310           0
</event>
<event>
      5   9999  3.19816E-02  2.06606E+02 -1.00000E+00  1.11137E-01
      21    -1     0     0   511   501  0.000000000E+00  0.000000000E+00  3.145584150E+02  3.145584150E+02  0.000000000E+00  0.00000E+00  9.000E+00
      21    -1     0     0   501   502  0.000000000E+00  0.000000000E+00 -8.132112103E+02  8.132112103E+02  0.000000000E+00  0.00000E+00  9.000E+00
      25     1     1     2     0     0  2.370908529E+02 -3.089418862E+02 -2.522430868E+02  4.805296416E+02  1.250000000E+02  0.00000E+00  9.000E+00
      25     1     1     2     0     0 -6.993056095E+01  1.875187913E+02 -3.452709209E+02  4.181992220E+02  1.250000000E+02  0.00000E+00  9.000E+00
      21     1     1     2   511   502 -1.671602919E+02  1.214230949E+02  9.886121243E+01  2.290407617E+02  0.000000000E+00  0.00000E+00  9.000E+00
#rwgt            2          11   3.9141687032407191E-003           7      273531           0
</event>
<event>
      5   9999  3.19816E-02  1.32019E+02 -1.00000E+00  1.18635E-01
      21    -1     0     0   502   501  0.000000000E+00  0.000000000E+00  5.033091675E+02  5.033091675E+02  0.000000000E+00  0.00000E+00  9.000E+00
      21    -1     0     0   512   502  0.000000000E+00  0.000000000E+00 -2.377400889E+02  2.377400889E+02  0.000000000E+00  0.00000E+00  9.000E+00
      25     1     1     2     0     0  1.845591536E+02 -1.813029338E+01  1.018518368E+02  2.457429254E+02  1.250000000E+02  0.00000E+00  9.000E+00
      25     1     1     2     0     0 -2.413752348E+02  1.372985546E+02  1.923877093E+02  3.602095609E+02  1.250000000E+02  0.00000E+00  9.000E+00
      21     1     1     2   512   501  5.681608121E+01 -1.191682613E+02 -2.867046751E+01  1.350967701E+02  1.305872339E-06  0.00000E+00  9.000E+00
#rwgt            1           1   2.7473842676033190E-002           7      273581           0
</event>
<event>
      5   9999  3.19816E-02  6.71380E+01 -1.00000E+00  1.32145E-01
       2    -1     0     0   502     0  0.000000000E+00  0.000000000E+00  9.387970026E+02  9.387970026E+02  0.000000000E+00  0.00000E+00  9.000E+00
      21    -1     0     0   501   502  0.000000000E+00  0.000000000E+00 -1.370146882E+02  1.370146882E+02  0.000000000E+00  0.00000E+00  9.000E+00
      25     1     1     2     0     0 -1.038710923E+02 -2.483668167E+02  1.166051921E+02  3.188997496E+02  1.250000000E+02  0.00000E+00  9.000E+00
      25     1     1     2     0     0  5.914793919E+01  1.982933908E+02  4.326298139E+02  4.955928807E+02  1.250000000E+02  0.00000E+00  9.000E+00
       2     1     1     2   501     0  4.472315308E+01  5.007342597E+01  2.525473083E+02  2.613190605E+02  4.672030912E-06  0.00000E+00  9.000E+00
#rwgt            2          18   2.0003755644764032E-004           7      273677           0
</event>
<event>
      5   9999  3.19816E-02  1.20969E+02 -1.00000E+00  1.20220E-01
      21    -1     0     0   502   511  0.000000000E+00  0.000000000E+00  7.192660808E+01  7.192660808E+01  0.000000000E+00  0.00000E+00  9.000E+00
      21    -1     0     0   501   502  0.000000000E+00  0.000000000E+00 -1.920570497E+03  1.920570497E+03  0.000000000E+00  0.00000E+00  9.000E+00
      25     1     1     2     0     0  8.491280195E+01 -8.148641715E+00 -1.681912470E+03  1.688706944E+03  1.250000000E+02  0.00000E+00  9.000E+00
      25     1     1     2     0     0  3.465652893E+01  2.649483533E+01 -9.740023077E+01  1.643619672E+02  1.250000000E+02  0.00000E+00  9.000E+00
      21     1     1     2   501   511 -1.195693309E+02 -1.834619361E+01 -6.933118786E+01  1.394281941E+02  4.573661350E-06  0.00000E+00  9.000E+00
#rwgt            1           1   2.5701797590491238E-002           7      273696           0
</event>
<event>
      5   9999  3.19816E-02  5.37505E+01 -1.00000E+00  1.37307E-01
      21    -1     0     0   502   501  0.000000000E+00  0.000000000E+00  1.455379946E+03  1.455379946E+03  0.000000000E+00  0.00000E+00  9.000E+00
      21    -1     0     0   512   502  0.000000000E+00  0.000000000E+00 -5.558375242E+02  5.558375242E+02  0.000000000E+00  0.00000E+00  9.000E+00
      25     1     1     2     0     0 -3.226558285E+02 -7.113021449E+02  5.447935716E+02  9.604595570E+02  1.250000000E+02  0.00000E+00  9.000E+00
      25     1     1     2     0     0  3.645670787E+02  7.449557562E+02  4.421505525E+02  9.481510136E+02  1.250000000E+02  0.00000E+00  9.000E+00
      21     1     1     2   512   501 -4.191125015E+01 -3.365361133E+01 -8.740170178E+01  1.026069000E+02  1.907348633E-06  0.00000E+00  9.000E+00
#rwgt            1           1   2.7930681450883055E-002           7      273756           0
</event>
<event>
      5   9999  3.19816E-02  1.64462E+01 -1.00000E+00  1.73699E-01
      21    -1     0     0   502   501  0.000000000E+00  0.000000000E+00  2.689646031E+02  2.689646031E+02  0.000000000E+00  0.00000E+00  9.000E+00
       2    -1     0     0   501     0  0.000000000E+00  0.000000000E+00 -1.498037668E+03  1.498037668E+03  0.000000000E+00  0.00000E+00  9.000E+00
      25     1     1     2     0     0 -1.996283655E+02 -4.288976553E+02 -4.372443944E+02  6.562105938E+02  1.250000000E+02  0.00000E+00  9.000E+00
      25     1     1     2     0     0  2.128583645E+02  4.386671763E+02 -2.381109537E+02  5.568297776E+02  1.250000000E+02  0.00000E+00  9.000E+00
       2     1     1     2   502     0 -1.322999901E+01 -9.769521039E+00 -5.537177168E+02  5.539618997E+02  1.078959322E-05  0.00000E+00  9.000E+00
#rwgt            1           1   2.9823415357227993E-002           7      273907           0
</event>
<event>
      5   9999  3.19816E-02  6.39094E+01 -1.00000E+00  1.33255E-01
      21    -1     0     0   502   501  0.000000000E+00  0.000000000E+00  5.236009197E+02  5.236009197E+02  0.000000000E+00  0.00000E+00  9.000E+00
      -1    -1     0     0     0   502  0.000000000E+00  0.000000000E+00 -6.692244926E+02  6.692244926E+02  0.000000000E+00  0.00000E+00  9.000E+00
      25     1     1     2     0     0  3.848295451E+02  7.711800513E+01 -3.740462281E+02  5.563960336E+02  1.250000000E+02  0.00000E+00  9.000E+00
      25     1     1     2     0     0 -3.790967971E+02 -1.346621334E+01  3.288700583E+02  5.173743671E+02  1.250000000E+02  0.00000E+00  9.000E+00
      -1     1     1     2     0   501 -5.732747983E+00 -6.365179179E+01 -1.004474031E+02  1.190550116E+02  1.907348633E-06  0.00000E+00  9.000E+00
#rwgt            1           1   2.3172889491799995E-002           7      274120           0
</event>
<event>
      5   9999  3.19816E-02  3.00490E+02 -1.00000E+00  1.05569E-01
      21    -1     0     0   502   511  0.000000000E+00  0.000000000E+00  9.511364407E+02  9.511364407E+02  0.000000000E+00  0.00000E+00  9.000E+00
      21    -1     0     0   501   502  0.000000000E+00  0.000000000E+00 -7.287630881E+02  7.287630881E+02  0.000000000E+00  0.00000E+00  9.000E+00
      25     1     1     2     0     0  2.866573003E+02  4.765656204E+02 -2.162411438E+02  6.096494325E+02  1.250000000E+02  0.00000E+00  9.000E+00
      25     1     1     2     0     0 -4.748668701E+01 -6.584772915E+02  3.462508111E+02  7.558848808E+02  1.250000000E+02  0.00000E+00  9.000E+00
      21     1     1     2   501   511 -2.391706133E+02  1.819116711E+02  9.236368525E+01  3.143652155E+02  2.336015456E-06  0.00000E+00  9.000E+00
#rwgt            1           1   2.0692850232852424E-002           7      274230           0
</event>
<event>
      5   9999  3.19816E-02  1.27196E+02 -1.00000E+00  1.19305E-01
       2    -1     0     0   502     0  0.000000000E+00  0.000000000E+00  2.107875747E+03  2.107875747E+03  0.000000000E+00  0.00000E+00  9.000E+00
      21    -1     0     0   501   502  0.000000000E+00  0.000000000E+00 -1.315781160E+02  1.315781160E+02  0.000000000E+00  0.00000E+00  9.000E+00
      25     1     1     2     0     0  3.156017247E+02 -1.495974217E+02  3.395519978E+02  5.028960096E+02  1.250000000E+02  0.00000E+00  9.000E+00
      25     1     1     2     0     0 -3.456904216E+02  2.601194680E+01  6.986947986E+02  7.899227244E+02  1.250000000E+02  0.00000E+00  9.000E+00
       2     1     1     2   501     0  3.008869691E+01  1.235854749E+02  9.380508341E+02  9.466351286E+02  1.525878906E-05  0.00000E+00  9.000E+00
#rwgt            1           1   2.5708847360374546E-002           7      274348           0
</event>
<event>
      5   9999  3.19816E-02  1.37899E+01 -1.00000E+00  1.80896E-01
      21    -1     0     0   502   501  0.000000000E+00  0.000000000E+00  3.698310525E+02  3.698310525E+02  0.000000000E+00  0.00000E+00  9.000E+00
      21    -1     0     0   511   502  0.000000000E+00  0.000000000E+00 -1.860523559E+02  1.860523559E+02  0.000000000E+00  0.00000E+00  9.000E+00
      25     1     1     2     0     0 -1.548958425E+02 -5.533596571E+01 -7.533722558E+01  2.198988146E+02  1.250000000E+02  0.00000E+00  9.000E+00
      25     1     1     2     0     0  1.411143405E+02  5.485533091E+01  2.545254555E+02  3.214507302E+02  1.250000000E+02  0.00000E+00  9.000E+00
      21     1     1     2   511   501  1.378150197E+01  4.806348050E-01  4.590466714E+00  1.453386360E+01  1.192092896E-07  0.00000E+00  9.000E+00
#rwgt            1           1   2.5928003563241115E-002           7      274425           0
</event>
<event>
      5   9999  3.19816E-02  1.49704E+02 -1.00000E+00  1.16428E-01
      21    -1     0     0   512   501  0.000000000E+00  0.000000000E+00  5.384927017E+02  5.384927017E+02  0.000000000E+00  0.00000E+00  9.000E+00
      21    -1     0     0   501   502  0.000000000E+00  0.000000000E+00 -3.320488095E+03  3.320488095E+03  0.000000000E+00  0.00000E+00  9.000E+00
      25     1     1     2     0     0  6.728061041E+02  3.636153742E+02 -2.960861458E+03  3.060589774E+03  1.250000000E+02  0.00000E+00  9.000E+00
      25     1     1     2     0     0 -5.414958838E+02 -2.917196949E+02  1.580865064E+02  6.472515091E+02  1.250000000E+02  0.00000E+00  9.000E+00
      21     1     1     2   512   502 -1.313102203E+02 -7.189567935E+01  2.077955760E+01  1.511395139E+02  2.466220959E-06  0.00000E+00  9.000E+00
#rwgt            1           1   4.8524771353240889E-002           7      274639           0
</event>
<event>
      5   9999  3.19816E-02  2.42436E+02 -1.00000E+00  1.08688E-01
      21    -1     0     0   502   501  0.000000000E+00  0.000000000E+00  6.534623866E+02  6.534623866E+02  0.000000000E+00  0.00000E+00  9.000E+00
      21    -1     0     0   511   502  0.000000000E+00  0.000000000E+00 -8.142574457E+02  8.142574457E+02  0.000000000E+00  0.00000E+00  9.000E+00
      25     1     1     2     0     0 -2.260622200E+02  6.275654023E+01  4.303327620E+02  5.058199251E+02  1.250000000E+02  0.00000E+00  9.000E+00
      25     1     1     2     0     0  7.342730692E+01  1.255991804E+02  1.092545911E+02  2.207448509E+02  1.250000000E+02  0.00000E+00  9.000E+00
      21     1     1     2   511   501  1.526349130E+02 -1.883557206E+02 -7.003824122E+02  7.411550563E+02  7.629394531E-06  0.00000E+00  9.000E+00
#rwgt            1           1   2.5214104157515675E-002           7      274756           0
</event>
<event>
      5   9999  3.19816E-02  1.37670E+02 -1.00000E+00  1.17889E-01
      21    -1     0     0   502   501  0.000000000E+00  0.000000000E+00  1.430733178E+03  1.430733178E+03  0.000000000E+00  0.00000E+00  9.000E+00
      21    -1     0     0   512   502  0.000000000E+00  0.000000000E+00 -6.947654252E+02  6.947654252E+02  0.000000000E+00  0.00000E+00  9.000E+00
      25     1     1     2     0     0  2.538877149E+02  4.430618228E+01  1.278456713E+03  1.310152119E+03  1.250000000E+02  0.00000E+00  9.000E+00
      25     1     1     2     0     0 -2.074917468E+02 -1.739228855E+02 -4.799234151E+01  3.020434736E+02  1.250000000E+02  0.00000E+00  9.000E+00
      21     1     1     2   512   501 -4.639596805E+01  1.296167032E+02 -4.944966180E+02  5.133030107E+02  7.629394531E-06  0.00000E+00  9.000E+00
#rwgt            1           1   2.9458511734888688E-002           7      274796           0
</event>
<event>
      5   9999  3.19816E-02  1.55906E+01 -1.00000E+00  1.75818E-01
      21    -1     0     0   502   511  0.000000000E+00  0.000000000E+00  1.365212209E+03  1.365212209E+03  0.000000000E+00  0.00000E+00  9.000E+00
      21    -1     0     0   501   502  0.000000000E+00  0.000000000E+00 -9.231977362E+01  9.231977362E+01  0.000000000E+00  0.00000E+00  9.000E+00
      25     1     1     2     0     0  3.017227246E+02 -1.281833692E+02  6.524807004E+02  7.408263245E+02  1.250000000E+02  0.00000E+00  9.000E+00
      25     1     1     2     0     0 -2.882664000E+02  1.360569834E+02  5.819399461E+02  6.751948763E+02  1.250000000E+02  0.00000E+00  9.000E+00
      21     1     1     2   501   511 -1.345632461E+01 -7.873614257E+00  3.847178907E+01  4.151078207E+01  0.000000000E+00  0.00000E+00  9.000E+00
#rwgt            1           1   3.1061541597457411E-002           7      274890           0
</event>
<event>
      5   9999  3.19816E-02  1.44516E+02 -1.00000E+00  1.17038E-01
       1    -1     0     0   502     0  0.000000000E+00  0.000000000E+00  1.456073327E+03  1.456073327E+03  0.000000000E+00  0.00000E+00  9.000E+00
      21    -1     0     0   501   502  0.000000000E+00  0.000000000E+00 -5.021234114E+02  5.021234114E+02  0.000000000E+00  0.00000E+00  9.000E+00
      25     1     1     2     0     0 -1.483597202E+02  4.684946214E+02 -3.096532456E+02  5.941447209E+02  1.250000000E+02  0.00000E+00  9.000E+00
      25     1     1     2     0     0  9.592883484E+01 -3.338254392E+02  9.198936812E+02  9.911968270E+02  1.250000000E+02  0.00000E+00  9.000E+00
       1     1     1     2   501     0  5.243088534E+01 -1.346691822E+02  3.437094798E+02  3.728551902E+02  0.000000000E+00  0.00000E+00  9.000E+00
#rwgt            1           1   3.5915526287053745E-002           7      275169           0
</event>
<event>
      5   9999  3.19816E-02  1.08734E+02 -1.00000E+00  1.22214E-01
      21    -1     0     0   502   501  0.000000000E+00  0.000000000E+00  3.150872728E+03  3.150872728E+03  0.000000000E+00  0.00000E+00  9.000E+00
      21    -1     0     0   511   502  0.000000000E+00  0.000000000E+00 -1.407378658E+02  1.407378658E+02  0.000000000E+00  0.00000E+00  9.000E+00
      25     1     1     2     0     0  2.582001467E+02 -2.125369205E+02  1.571211895E+02  3.900657977E+02  1.250000000E+02  0.00000E+00  9.000E+00
      25     1     1     2     0     0 -2.688146403E+02  1.043220421E+02  2.671740151E+03  2.690160745E+03  1.250000000E+02  0.00000E+00  9.000E+00
      21     1     1     2   511   501  1.061449359E+01  1.082148784E+02  1.812735216E+02  2.113840510E+02  2.697398305E-06  0.00000E+00  9.000E+00
#rwgt            2          11   1.1731333241290606E-002           7      275239           0
</event>
<event>
      5   9999  3.19816E-02  6.05182E+02 -1.00000E+00  9.65522E-02
      21    -1     0     0   502   501  0.000000000E+00  0.000000000E+00  8.157776211E+02  8.157776211E+02  0.000000000E+00  0.00000E+00  9.000E+00
      -1    -1     0     0     0   502  0.000000000E+00  0.000000000E+00 -7.737242016E+02  7.737242016E+02  0.000000000E+00  0.00000E+00  9.000E+00
      25     1     1     2     0     0 -2.586782873E+02  1.509624320E+01  1.238645726E+02  3.132248158E+02  1.250000000E+02  0.00000E+00  9.000E+00
      25     1     1     2     0     0  2.192558593E+02 -6.189930820E+02 -4.379812535E+01  6.699021146E+02  1.250000000E+02  0.00000E+00  9.000E+00
      -1     1     1     2     0   501  3.942242802E+01  6.038968388E+02 -3.801302774E+01  6.063748923E+02  9.572439146E-06  0.00000E+00  9.000E+00
#rwgt            1           1   3.1374792803217581E-002           7      275259           0
</event>
<event>
      5   9999  3.19816E-02  1.02483E+02 -1.00000E+00  1.23351E-01
      21    -1     0     0   502   501  0.000000000E+00  0.000000000E+00  1.602566144E+03  1.602566144E+03  0.000000000E+00  0.00000E+00  9.000E+00
      21    -1     0     0   511   502  0.000000000E+00  0.000000000E+00 -2.948200057E+02  2.948200057E+02  0.000000000E+00  0.00000E+00  9.000E+00
      25     1     1     2     0     0 -1.126307459E+02 -3.084263983E+02 -5.419266815E+01  3.554917346E+02  1.250000000E+02  0.00000E+00  9.000E+00
      25     1     1     2     0     0  7.736136087E+01  2.122037878E+02  1.406607715E+03  1.430099819E+03  1.250000000E+02  0.00000E+00  9.000E+00
      21     1     1     2   511   501  3.526938501E+01  9.622261054E+01 -4.466890883E+01  1.117945961E+02  1.261592536E-06  0.00000E+00  9.000E+00
#rwgt            1           1   3.2382567990949601E-002           7      275302           0
</event>
<event>
      5   9999  3.19816E-02  4.82597E+01 -1.00000E+00  1.39959E-01
      21    -1     0     0   512   501  0.000000000E+00  0.000000000E+00  7.427521495E+02  7.427521495E+02  0.000000000E+00  0.00000E+00  9.000E+00
      21    -1     0     0   501   502  0.000000000E+00  0.000000000E+00 -1.115133494E+02  1.115133494E+02  0.000000000E+00  0.00000E+00  9.000E+00
      25     1     1     2     0     0 -1.046692053E+01  1.399226793E+01 -5.927880267E+01  1.394428787E+02  1.250000000E+02  0.00000E+00  9.000E+00
      25     1     1     2     0     0 -3.770891271E+01 -1.683664271E+01  5.699340475E+02  5.849403843E+02  1.250000000E+02  0.00000E+00  9.000E+00
      21     1     1     2   512   502  4.817583324E+01  2.844374784E+00  1.205835553E+02  1.298822358E+02  2.697398305E-06  0.00000E+00  9.000E+00
#rwgt            1           1   2.8622507910312765E-002           7      275389           0
</event>
<event>
      5   9999  3.19816E-02  5.38204E+01 -1.00000E+00  1.37275E-01
      21    -1     0     0   502   501  0.000000000E+00  0.000000000E+00  2.660148834E+02  2.660148834E+02  0.000000000E+00  0.00000E+00  9.000E+00
      21    -1     0     0   511   502  0.000000000E+00  0.000000000E+00 -5.466075372E+02  5.466075372E+02  0.000000000E+00  0.00000E+00  9.000E+00
      25     1     1     2     0     0  1.810390148E+02 -1.966851284E+02  5.208658248E+01  2.996634390E+02  1.250000000E+02  0.00000E+00  9.000E+00
      25     1     1     2     0     0 -1.867168659E+02  2.502051832E+02 -2.791831067E+02  4.370743973E+02  1.250000000E+02  0.00000E+00  9.000E+00
      21     1     1     2   511   501  5.677851117E+00 -5.352005480E+01 -5.349612962E+01  7.588458436E+01  1.168007728E-06  0.00000E+00  9.000E+00
#rwgt            1           1   2.7554451445696827E-002           7      275478           0
</event>
<event>
      5   9999  3.19816E-02  1.82356E+01 -1.00000E+00  1.69748E-01
      21    -1     0     0   512   501  0.000000000E+00  0.000000000E+00  1.163872870E+03  1.163872870E+03  0.000000000E+00  0.00000E+00  9.000E+00
      21    -1     0     0   501   502  0.000000000E+00  0.000000000E+00 -4.216616784E+01  4.216616784E+01  0.000000000E+00  0.00000E+00  9.000E+00
      25     1     1     2     0     0  4.507720138E+01 -1.463232269E+02  4.241616960E+02  4.679536143E+02  1.250000000E+02  0.00000E+00  9.000E+00
      25     1     1     2     0     0 -6.026845871E+01  1.362354771E+02  4.544808993E+02  4.943382245E+02  1.250000000E+02  0.00000E+00  9.000E+00
      21     1     1     2   512   502  1.519125732E+01  1.008774975E+01  2.430641073E+02  2.437471994E+02  4.672030912E-06  0.00000E+00  9.000E+00
#rwgt            1           1   2.9490133197112932E-002           7      275608           0
</event>
<event>
      5   9999  3.19816E-02  1.43363E+02 -1.00000E+00  1.17178E-01
      21    -1     0     0   502   501  0.000000000E+00  0.000000000E+00  6.311172275E+02  6.311172275E+02  0.000000000E+00  0.00000E+00  9.000E+00
       1    -1     0     0   501     0  0.000000000E+00  0.000000000E+00 -5.382071235E+02  5.382071235E+02  0.000000000E+00  0.00000E+00  9.000E+00
      25     1     1     2     0     0  3.250015777E+02  3.463729419E+02  2.132822634E+02  5.354573412E+02  1.250000000E+02  0.00000E+00  9.000E+00
      25     1     1     2     0     0 -2.548867480E+02 -2.213252053E+02  9.760871936E+01  3.729672411E+02  1.250000000E+02  0.00000E+00  9.000E+00
       1     1     1     2   502     0 -7.011482969E+01 -1.250477366E+02 -2.179808787E+02  2.608997686E+02  0.000000000E+00  0.00000E+00  9.000E+00
#rwgt            1           1   3.0179753494688839E-002           7      275740           0
</event>
<event>
      5   9999  3.19816E-02  4.22688E+01 -1.00000E+00  1.43370E-01
      21    -1     0     0   502   501  0.000000000E+00  0.000000000E+00  5.552625177E+02  5.552625177E+02  0.000000000E+00  0.00000E+00  9.000E+00
      21    -1     0     0   511   502  0.000000000E+00  0.000000000E+00 -1.362459439E+02  1.362459439E+02  0.000000000E+00  0.00000E+00  9.000E+00
      25     1     1     2     0     0 -1.340962588E+02 -1.527114686E+02  1.531300091E+02  2.835073173E+02  1.250000000E+02  0.00000E+00  9.000E+00
      25     1     1     2     0     0  1.316221963E+02  1.949078277E+02  2.393863470E+02  3.581121151E+02  1.250000000E+02  0.00000E+00  9.000E+00
      21     1     1     2   511   501  2.474062484E+00 -4.219635908E+01  2.650021768E+01  4.988902928E+01  3.371747881E-07  0.00000E+00  9.000E+00
#rwgt            1           1   3.0295555418595445E-002           7      275807           0
</event>
<event>
      5   9999  3.19816E-02  2.58023E+01 -1.00000E+00  1.57730E-01
      21    -1     0     0   502   501  0.000000000E+00  0.000000000E+00  3.010817907E+02  3.010817907E+02  0.000000000E+00  0.00000E+00  9.000E+00
      21    -1     0     0   501   512  0.000000000E+00  0.000000000E+00 -1.837806760E+02  1.837806760E+02  0.000000000E+00  0.00000E+00  9.000E+00
      25     1     1     2     0     0  2.035977330E+01  1.359688386E+02  1.500430547E+02  2.388304078E+02  1.250000000E+02  0.00000E+00  9.000E+00
      25     1     1     2     0     0 -4.348612037E+01 -1.245262646E+02  2.438279352E+01  1.833503582E+02  1.250000000E+02  0.00000E+00  9.000E+00
      21     1     1     2   502   512  2.312634706E+01 -1.144257401E+01 -5.712473341E+01  6.268170065E+01  0.000000000E+00  0.00000E+00  9.000E+00
#rwgt            1           1   2.4867980392513655E-002           7      275912           0
</event>
<event>
      5   9999  3.19816E-02  6.48708E+02 -1.00000E+00  9.57423E-02
      21    -1     0     0   502   501  0.000000000E+00  0.000000000E+00  2.166649323E+03  2.166649323E+03  0.000000000E+00  0.00000E+00  9.000E+00
       1    -1     0     0   501     0  0.000000000E+00  0.000000000E+00 -4.315836133E+02  4.315836133E+02  0.000000000E+00  0.00000E+00  9.000E+00
      25     1     1     2     0     0  6.276691986E+01  4.821259048E+02  1.609809203E+03  1.686266807E+03  1.250000000E+02  0.00000E+00  9.000E+00
      25     1     1     2     0     0 -4.394299024E+01  1.663093975E+02  1.541179169E+02  2.626159447E+02  1.250000000E+02  0.00000E+00  9.000E+00
       1     1     1     2   502     0 -1.882392962E+01 -6.484353023E+02 -2.886140984E+01  6.493501849E+02  9.153534804E-06  0.00000E+00  9.000E+00
#rwgt            2          12   4.9643380423448663E-004           7      276049           0
</event>
<event>
      5   9999  3.19816E-02  1.47148E+01 -1.00000E+00  1.78173E-01
      21    -1     0     0   502   501  0.000000000E+00  0.000000000E+00  1.945859712E+02  1.945859712E+02  0.000000000E+00  0.00000E+00  9.000E+00
      21    -1     0     0   511   502  0.000000000E+00  0.000000000E+00 -2.677384694E+02  2.677384694E+02  0.000000000E+00  0.00000E+00  9.000E+00
      25     1     1     2     0     0  1.591869029E+02 -8.753727437E+00  6.051738198E+01  2.114342719E+02  1.250000000E+02  0.00000E+00  9.000E+00
      25     1     1     2     0     0 -1.456990530E+02  2.871285885E+00 -1.054049690E+02  2.190243498E+02  1.250000000E+02  0.00000E+00  9.000E+00
      21     1     1     2   511   501 -1.348784987E+01  5.882441552E+00 -2.826491115E+01  3.186581891E+01  4.768371582E-07  0.00000E+00  9.000E+00
#rwgt            1           1   2.9720787840053373E-002           7      276113           0
</event>
<event>
      5   9999  3.19816E-02  4.38913E+02 -1.00000E+00  1.00487E-01
      21    -1     0     0   502   501  0.000000000E+00  0.000000000E+00  1.408386651E+03  1.408386651E+03  0.000000000E+00  0.00000E+00  9.000E+00
       2    -1     0     0   501     0  0.000000000E+00  0.000000000E+00 -2.139920065E+03  2.139920065E+03  0.000000000E+00  0.00000E+00  9.000E+00
      25     1     1     2     0     0  1.020698491E+02  5.234237748E+02  1.091836654E+03  1.221524859E+03  1.250000000E+02  0.00000E+00  9.000E+00
      25     1     1     2     0     0 -3.251060140E+02 -9.014447190E+02 -1.488552349E+03  1.774742121E+03  1.250000000E+02  0.00000E+00  9.000E+00
       2     1     1     2   502     0  2.230361649E+02  3.780209442E+02 -3.348177187E+02  5.520397358E+02  3.814697266E-06  0.00000E+00  9.000E+00
#rwgt            1           1   3.8881487463381589E-002           7      276248           0
</event>
<event>
      5   9999  3.19816E-02  9.60843E+01 -1.00000E+00  1.24613E-01
      21    -1     0     0   502   501  0.000000000E+00  0.000000000E+00  4.180193310E+03  4.180193310E+03  0.000000000E+00  0.00000E+00  9.000E+00
      21    -1     0     0   501   511  0.000000000E+00  0.000000000E+00 -2.744844728E+02  2.744844728E+02  0.000000000E+00  0.00000E+00  9.000E+00
      25     1     1     2     0     0 -1.374781935E+02  5.859421675E+02  1.963065042E+03  2.057055623E+03  1.250000000E+02  0.00000E+00  9.000E+00
      25     1     1     2     0     0  1.312327415E+02 -4.900610261E+02  2.126727037E+03  2.189971399E+03  1.250000000E+02  0.00000E+00  9.000E+00
      21     1     1     2   502   511  6.245451953E+00 -9.588114133E+01 -1.840832408E+02  2.076507609E+02  8.529922400E-06  0.00000E+00  9.000E+00
#rwgt            1           1   6.9016425727289723E-003           7      276303           0
</event>
<event>
      5   9999  3.19816E-02  5.05108E+01 -1.00000E+00  1.38824E-01
      21    -1     0     0   502   512  0.000000000E+00  0.000000000E+00  2.099889902E+03  2.099889902E+03  0.000000000E+00  0.00000E+00  9.000E+00
      21    -1     0     0   501   502  0.000000000E+00  0.000000000E+00 -6.456267679E+01  6.456267679E+01  0.000000000E+00  0.00000E+00  9.000E+00
      25     1     1     2     0     0  2.079765778E+02  2.184228597E+02  9.025609264E+02  9.597937426E+02  1.250000000E+02  0.00000E+00  9.000E+00
      25     1     1     2     0     0 -1.584955661E+02 -2.285705331E+02  6.359562501E+02  7.052876612E+02  1.250000000E+02  0.00000E+00  9.000E+00
      21     1     1     2   501   512 -4.948101172E+01  1.014767347E+01  4.968100485E+02  4.993711747E+02  5.394796609E-06  0.00000E+00  9.000E+00
#rwgt            1           1   2.5554279906776969E-002           7      276363           0
</event>
<event>
      5   9999  3.19816E-02  7.46914E+01 -1.00000E+00  1.29810E-01
       2    -1     0     0   502     0  0.000000000E+00  0.000000000E+00  3.098749375E+03  3.098749375E+03  0.000000000E+00  0.00000E+00  9.000E+00
      21    -1     0     0   501   502  0.000000000E+00  0.000000000E+00 -1.607453506E+02  1.607453506E+02  0.000000000E+00  0.00000E+00  9.000E+00
      25     1     1     2     0     0  3.621509137E+02 -2.542356692E+02  1.116699298E+03  1.207655325E+03  1.250000000E+02  0.00000E+00  9.000E+00
      25     1     1     2     0     0 -2.991529842E+02  2.943612412E+02  3.049110494E+02  5.336073428E+02  1.250000000E+02  0.00000E+00  9.000E+00
       2     1     1     2   501     0 -6.299792948E+01 -4.012557194E+01  1.516393676E+03  1.518232058E+03  2.157918644E-05  0.00000E+00  9.000E+00
#rwgt            1           1   2.5516855210110944E-002           7      276460           0
</event>
<event>
      5   9999  3.19816E-02  5.52098E+01 -1.00000E+00  1.36663E-01
       1    -1     0     0   502     0  0.000000000E+00  0.000000000E+00  1.842529243E+03  1.842529243E+03  0.000000000E+00  0.00000E+00  9.000E+00
      21    -1     0     0   501   502  0.000000000E+00  0.000000000E+00 -1.205625356E+02  1.205625356E+02  0.000000000E+00  0.00000E+00  9.000E+00
      25     1     1     2     0     0  1.034531261E+02 -3.171352973E+02  1.264015682E+03  1.313254732E+03  1.250000000E+02  0.00000E+00  9.000E+00
      25     1     1     2     0     0 -1.418234494E+02  3.568322096E+02  3.814368217E+02  5.554837221E+02  1.250000000E+02  0.00000E+00  9.000E+00
       1     1     1     2   501     0  3.837032328E+01 -3.969691230E+01  7.651420419E+01  9.435332531E+01  9.536743164E-07  0.00000E+00  9.000E+00
#rwgt            1           1   2.6690117270593068E-002           7      276616           0
</event>
<event>
      5   9999  3.19816E-02  6.79022E+01 -1.00000E+00  1.31893E-01
      21    -1     0     0   502   501  0.000000000E+00  0.000000000E+00  8.939358142E+02  8.939358142E+02  0.000000000E+00  0.00000E+00  9.000E+00
      21    -1     0     0   511   502  0.000000000E+00  0.000000000E+00 -5.998191707E+02  5.998191707E+02  0.000000000E+00  0.00000E+00  9.000E+00
      25     1     1     2     0     0 -2.352891689E+02  4.758391321E+01  2.899050825E+02  3.966045621E+02  1.250000000E+02  0.00000E+00  9.000E+00
      25     1     1     2     0     0  2.090576061E+02 -1.102146739E+02  5.158556928E+02  5.810201828E+02  1.250000000E+02  0.00000E+00  9.000E+00
      21     1     1     2   511   501  2.623156279E+01  6.263076066E+01 -5.116441318E+02  5.161302400E+02  1.206313194E-05  0.00000E+00  9.000E+00
#rwgt            1           1   2.8289355897109830E-002           7      276713           0
</event>
<event>
      5   9999  3.19816E-02  8.82043E+01 -1.00000E+00  1.26330E-01
      -4    -1     0     0     0   501  0.000000000E+00  0.000000000E+00  2.730396046E+02  2.730396046E+02  0.000000000E+00  0.00000E+00  9.000E+00
      21    -1     0     0   501   502  0.000000000E+00  0.000000000E+00 -1.282733137E+03  1.282733137E+03  0.000000000E+00  0.00000E+00  9.000E+00
      25     1     1     2     0     0 -3.455598325E+02  2.397670971E+02 -9.437370423E+02  1.040751874E+03  1.250000000E+02  0.00000E+00  9.000E+00
      25     1     1     2     0     0  2.585419257E+02 -2.541852589E+02 -1.311768854E+02  4.053226474E+02  1.250000000E+02  0.00000E+00  9.000E+00
      -4     1     1     2     0   502  8.701790678E+01  1.441816184E+01  6.522039540E+01  1.096982200E+02  9.536743164E-07  0.00000E+00  9.000E+00
#rwgt            1           1   2.9039688773087442E-002           7      276804           0
</event>
<event>
      5   9999  3.19816E-02  1.63558E+01 -1.00000E+00  1.73915E-01
      21    -1     0     0   502   511  0.000000000E+00  0.000000000E+00  8.904310223E+02  8.904310223E+02  0.000000000E+00  0.00000E+00  9.000E+00
      21    -1     0     0   501   502  0.000000000E+00  0.000000000E+00 -2.866571084E+02  2.866571084E+02  0.000000000E+00  0.00000E+00  9.000E+00
      25     1     1     2     0     0 -9.674386441E+01  2.109424534E+02 -1.841010886E+02  3.215187471E+02  1.250000000E+02  0.00000E+00  9.000E+00
      25     1     1     2     0     0  8.552652830E+01 -1.990393154E+02  4.309613385E+02  4.982811570E+02  1.250000000E+02  0.00000E+00  9.000E+00
      21     1     1     2   501   511  1.121733611E+01 -1.190313802E+01  3.569136640E+02  3.572882266E+02  3.814697266E-06  0.00000E+00  9.000E+00
#rwgt            1           1   2.9830055274661621E-002           7      276971           0
</event>
<event>
      5   9999  3.19816E-02  1.32503E+01 -1.00000E+00  1.82613E-01
      21    -1     0     0   502   501  0.000000000E+00  0.000000000E+00  1.643832518E+02  1.643832518E+02  0.000000000E+00  0.00000E+00  9.000E+00
      21    -1     0     0   501   512  0.000000000E+00  0.000000000E+00 -9.419752972E+02  9.419752972E+02  0.000000000E+00  0.00000E+00  9.000E+00
      25     1     1     2     0     0  1.696016216E+02  1.027207546E+02 -4.050736021E+01  2.378699428E+02  1.250000000E+02  0.00000E+00  9.000E+00
      25     1     1     2     0     0 -1.724800839E+02 -8.978687356E+01 -1.379257238E+02  2.691831482E+02  1.250000000E+02  0.00000E+00  9.000E+00
      21     1     1     2   502   512  2.878462352E+00 -1.293388100E+01 -5.991589615E+02  5.993054580E+02  0.000000000E+00  0.00000E+00  9.000E+00
#rwgt            1           1   3.1261939885926841E-002           7      277156           0
</event>
<event>
      5   9999  3.19816E-02  1.68880E+01 -1.00000E+00  1.72667E-01
      21    -1     0     0   502   501  0.000000000E+00  0.000000000E+00  1.152081889E+03  1.152081889E+03  0.000000000E+00  0.00000E+00  9.000E+00
      21    -1     0     0   511   502  0.000000000E+00  0.000000000E+00 -6.791330437E+01  6.791330437E+01  0.000000000E+00  0.00000E+00  9.000E+00
      25     1     1     2     0     0  9.071179125E+01  1.082266958E+02  9.588877919E+02  9.772576141E+02  1.250000000E+02  0.00000E+00  9.000E+00
      25     1     1     2     0     0 -7.575694234E+01 -1.160725764E+02  1.270088267E+02  2.257613771E+02  1.250000000E+02  0.00000E+00  9.000E+00
      21     1     1     2   511   501 -1.495484891E+01  7.845880620E+00 -1.728033780E+00  1.697620244E+01  2.572339252E-07  0.00000E+00  9.000E+00
#rwgt            1           1   2.8265745303011420E-002           7      277338           0
</event>
<event>
      5   9999  3.19816E-02  1.28480E+02 -1.00000E+00  1.19123E-01
      -3    -1     0     0     0   501  0.000000000E+00  0.000000000E+00  3.431613461E+02  3.431613461E+02  0.000000000E+00  0.00000E+00  9.000E+00
      21    -1     0     0   501   502  0.000000000E+00  0.000000000E+00 -9.427924448E+02  9.427924448E+02  0.000000000E+00  0.00000E+00  9.000E+00
      25     1     1     2     0     0  1.395246190E+02  1.768949266E+02 -8.157954212E+02  8.555151101E+02  1.250000000E+02  0.00000E+00  9.000E+00
      25     1     1     2     0     0 -1.260633190E+02 -4.912216471E+01  6.225751660E+00  1.843060158E+02  1.250000000E+02  0.00000E+00  9.000E+00
      -3     1     1     2     0   502 -1.346130001E+01 -1.277727619E+02  2.099385708E+02  2.461326650E+02  3.814697266E-06  0.00000E+00  9.000E+00
#rwgt            1           1   3.1340267608173496E-002           7      277609           0
</event>
<event>
      5   9999  3.19816E-02  7.53753E+01 -1.00000E+00  1.29614E-01
      21    -1     0     0   502   511  0.000000000E+00  0.000000000E+00  6.442296399E+02  6.442296399E+02  0.000000000E+00  0.00000E+00  9.000E+00
      21    -1     0     0   501   502  0.000000000E+00  0.000000000E+00 -2.865353324E+02  2.865353324E+02  0.000000000E+00  0.00000E+00  9.000E+00
      25     1     1     2     0     0 -1.611450014E+02  1.031630601E+02 -1.672353274E+02  2.832013121E+02  1.250000000E+02  0.00000E+00  9.000E+00
      25     1     1     2     0     0  2.354669384E+02 -9.060584833E+01  4.885238448E+02  5.638569373E+02  1.250000000E+02  0.00000E+00  9.000E+00
      21     1     1     2   501   511 -7.432193705E+01 -1.255721182E+01  3.640579015E+01  8.370672286E+01  1.168007728E-06  0.00000E+00  9.000E+00
#rwgt            1           1   2.8043068263336524E-002           7      277682           0
</event>
<event>
      5   9999  3.19816E-02  7.43169E+01 -1.00000E+00  1.29918E-01
      21    -1     0     0   512   501  0.000000000E+00  0.000000000E+00  1.555842539E+02  1.555842539E+02  0.000000000E+00  0.00000E+00  9.000E+00
      21    -1     0     0   501   502  0.000000000E+00  0.000000000E+00 -5.205349817E+02  5.205349817E+02  0.000000000E+00  0.00000E+00  9.000E+00
      25     1     1     2     0     0 -1.745703413E+02  1.189969763E+02 -3.229839048E+02  4.056829885E+02  1.250000000E+02  0.00000E+00  9.000E+00
      25     1     1     2     0     0  1.241995618E+02 -6.435464232E+01 -5.385900157E+01  1.951738793E+02  1.250000000E+02  0.00000E+00  9.000E+00
      21     1     1     2   512   502  5.037077951E+01 -5.464233398E+01  1.189217851E+01  7.526236776E+01  1.039242493E-06  0.00000E+00  9.000E+00
#rwgt            1           1   2.6088597484114070E-002           7      277735           0
</event>
<event>
      5   9999  3.19816E-02  1.20149E+02 -1.00000E+00  1.20345E-01
      21    -1     0     0   511   501  0.000000000E+00  0.000000000E+00  3.301964961E+02  3.301964961E+02  0.000000000E+00  0.00000E+00  9.000E+00
      21    -1     0     0   501   502  0.000000000E+00  0.000000000E+00 -1.858153537E+03  1.858153537E+03  0.000000000E+00  0.00000E+00  9.000E+00
      25     1     1     2     0     0  2.383468756E+01 -3.326916818E+02 -1.529948055E+03  1.570865335E+03  1.250000000E+02  0.00000E+00  9.000E+00
      25     1     1     2     0     0  1.161714587E+00  4.502115714E+02 -7.720982136E+01  4.735801571E+02  1.250000000E+02  0.00000E+00  9.000E+00
      21     1     1     2   511   502 -2.499640215E+01 -1.175198897E+02  7.920083590E+01  1.439045413E+02  9.536743164E-07  0.00000E+00  9.000E+00
#rwgt            1           1   3.7043932040037093E-002           7      277779           0
</event>
<event>
      5   9999  3.19816E-02  1.53375E+02 -1.00000E+00  1.16012E-01
       1    -1     0     0   502     0  0.000000000E+00  0.000000000E+00  1.181399373E+03  1.181399373E+03  0.000000000E+00  0.00000E+00  9.000E+00
      21    -1     0     0   501   502  0.000000000E+00  0.000000000E+00 -6.669543934E+02  6.669543934E+02  0.000000000E+00  0.00000E+00  9.000E+00
      25     1     1     2     0     0  1.397984126E+02 -3.868658360E+02 -2.522235852E+01  4.306622094E+02  1.250000000E+02  0.00000E+00  9.000E+00
      25     1     1     2     0     0  1.178412621E+01  4.102427366E+02 -3.258182106E+02  5.387211477E+02  1.250000000E+02  0.00000E+00  9.000E+00
       1     1     1     2   501     0 -1.515825388E+02 -2.337690060E+01  8.654855490E+02  8.789704097E+02  1.525878906E-05  0.00000E+00  9.000E+00
#rwgt            1           1   3.2681418945112096E-002           7      277949           0
</event>
<event>
      5   9999  3.19816E-02  1.13307E+02 -1.00000E+00  1.21436E-01
       1    -1     0     0   502     0  0.000000000E+00  0.000000000E+00  1.107067621E+03  1.107067621E+03  0.000000000E+00  0.00000E+00  9.000E+00
      21    -1     0     0   501   502  0.000000000E+00  0.000000000E+00 -8.033132639E+01  8.033132639E+01  0.000000000E+00  0.00000E+00  9.000E+00
      25     1     1     2     0     0  1.600195730E+02  1.699802375E+02  3.764811524E+02  4.602853496E+02  1.250000000E+02  0.00000E+00  9.000E+00
      25     1     1     2     0     0 -4.687422484E+01 -1.639336122E+02  4.447523297E+02  4.924439632E+02  1.250000000E+02  0.00000E+00  9.000E+00
       1     1     1     2   501     0 -1.131453482E+02 -6.046625290E+00  2.055028126E+02  2.346696348E+02  2.697398305E-06  0.00000E+00  9.000E+00
#rwgt            1           1   3.0039949289846064E-002           7      278022           0
</event>
<event>
      5   9999  3.19816E-02  2.47530E+02 -1.00000E+00  1.08378E-01
      21    -1     0     0   502   501  0.000000000E+00  0.000000000E+00  2.516655670E+03  2.516655670E+03  0.000000000E+00  0.00000E+00  9.000E+00
      21    -1     0     0   501   511  0.000000000E+00  0.000000000E+00 -3.459696559E+02  3.459696559E+02  0.000000000E+00  0.00000E+00  9.000E+00
      25     1     1     2     0     0 -3.734515309E+02  4.955229499E+01 -1.196459971E+02  4.145619863E+02  1.250000000E+02  0.00000E+00  9.000E+00
      25     1     1     2     0     0  1.952849420E+02 -2.213881155E+02  2.128090175E+03  2.152101694E+03  1.250000000E+02  0.00000E+00  9.000E+00
      21     1     1     2   502   511  1.781665889E+02  1.718358205E+02  1.622418363E+02  2.959616463E+02  6.031565972E-06  0.00000E+00  9.000E+00
#rwgt            1           1   2.9355422825484107E-002           7      278065           0
</event>
<event>
      5   9999  3.19816E-02  2.29226E+02 -1.00000E+00  1.09533E-01
      21    -1     0     0   502   512  0.000000000E+00  0.000000000E+00  2.684270688E+02  2.684270688E+02  0.000000000E+00  0.00000E+00  9.000E+00
      21    -1     0     0   501   502  0.000000000E+00  0.000000000E+00 -9.022948698E+02  9.022948698E+02  0.000000000E+00  0.00000E+00  9.000E+00
      25     1     1     2     0     0 -2.353671480E+02 -2.702920636E+02 -5.565559089E+02  6.736727497E+02  1.250000000E+02  0.00000E+00  9.000E+00
      25     1     1     2     0     0  1.999833286E+02  4.381362897E+01 -1.128398697E+02  2.650864048E+02  1.250000000E+02  0.00000E+00  9.000E+00
      21     1     1     2   501   512  3.538381939E+01  2.264784347E+02  3.552797757E+01  2.319627842E+02  3.126830351E-06  0.00000E+00  9.000E+00
#rwgt            2          11   3.4805127175725290E-003           7      278142           0
</event>
<event>
      5   9999  3.19816E-02  6.89291E+01 -1.00000E+00  1.31561E-01
      21    -1     0     0   502   501  0.000000000E+00  0.000000000E+00  3.338531625E+02  3.338531625E+02  0.000000000E+00  0.00000E+00  9.000E+00
      21    -1     0     0   511   502  0.000000000E+00  0.000000000E+00 -8.572253174E+02  8.572253174E+02  0.000000000E+00  0.00000E+00  9.000E+00
      25     1     1     2     0     0  1.032291355E+02  3.484383631E+02 -2.815412403E+02  4.763990106E+02  1.250000000E+02  0.00000E+00  9.000E+00
      25     1     1     2     0     0 -3.481821200E+01 -3.568742720E+02  7.786831260E+01  3.876338840E+02  1.250000000E+02  0.00000E+00  9.000E+00
      21     1     1     2   511   501 -6.841092352E+01  8.435908891E+00 -3.196992272E+02  3.270455853E+02  3.814697266E-06  0.00000E+00  9.000E+00
#rwgt            1           1   3.0252820055220925E-002           7      278162           0
</event>
<event>
      5   9999  3.19816E-02  4.14486E+02 -1.00000E+00  1.01223E-01
       2    -1     0     0   502     0  0.000000000E+00  0.000000000E+00  9.500917263E+02  9.500917263E+02  0.000000000E+00  0.00000E+00  9.000E+00
      21    -1     0     0   501   502  0.000000000E+00  0.000000000E+00 -1.513176349E+03  1.513176349E+03  0.000000000E+00  0.00000E+00  9.000E+00
      25     1     1     2     0     0 -4.471986106E+02 -2.395020582E+02 -4.037955915E+02  6.603209166E+02  1.250000000E+02  0.00000E+00  9.000E+00
      25     1     1     2     0     0  7.201495084E+02 -7.242212312E+01 -7.704693398E+02  1.064475590E+03  1.250000000E+02  0.00000E+00  9.000E+00
       2     1     1     2   501     0 -2.729508978E+02  3.119241813E+02  6.111803088E+02  7.384715685E+02  0.000000000E+00  0.00000E+00  9.000E+00
#rwgt            1           1   2.5492751164338405E-002           7      278275           0
</event>
<event>
      5   9999  3.19816E-02  2.28841E+01 -1.00000E+00  1.61682E-01
      21    -1     0     0   502   501  0.000000000E+00  0.000000000E+00  1.809273135E+03  1.809273135E+03  0.000000000E+00  0.00000E+00  9.000E+00
      21    -1     0     0   511   502  0.000000000E+00  0.000000000E+00 -7.488377107E+01  7.488377107E+01  0.000000000E+00  0.00000E+00  9.000E+00
      25     1     1     2     0     0 -4.145301203E+00 -2.441210443E+02  1.309789866E+03  1.338202810E+03  1.250000000E+02  0.00000E+00  9.000E+00
      25     1     1     2     0     0  2.520527861E+01  2.530741418E+02  4.362984679E+02  5.202529965E+02  1.250000000E+02  0.00000E+00  9.000E+00
      21     1     1     2   511   501 -2.105997741E+01 -8.953097482E+00 -1.169897014E+01  2.570109930E+01  4.460403188E-07  0.00000E+00  9.000E+00
#rwgt            1           1   3.9077267457236255E-002           7      278320           0
</event>
<event>
      5   9999  3.19816E-02  1.44486E+02 -1.00000E+00  1.17042E-01
      21    -1     0     0   502   501  0.000000000E+00  0.000000000E+00  1.566096561E+03  1.566096561E+03  0.000000000E+00  0.00000E+00  9.000E+00
      21    -1     0     0   512   502  0.000000000E+00  0.000000000E+00 -6.674360172E+02  6.674360172E+02  0.000000000E+00  0.00000E+00  9.000E+00
      25     1     1     2     0     0 -2.133414521E+02  2.714379889E+02  1.336944942E+03  1.386448678E+03  1.250000000E+02  0.00000E+00  9.000E+00
      25     1     1     2     0     0  7.976103998E+01 -2.163689860E+02  1.067729859E+02  2.832010454E+02  1.250000000E+02  0.00000E+00  9.000E+00
      21     1     1     2   512   501  1.335804121E+02 -5.506900283E+01 -5.450573846E+02  5.638828549E+02  0.000000000E+00  0.00000E+00  9.000E+00
#rwgt            1           1   2.7216277696166500E-002           7      278443           0
</event>
<event>
      5   9999  3.19816E-02  2.93311E+01 -1.00000E+00  1.53723E-01
      21    -1     0     0   502   501  0.000000000E+00  0.000000000E+00  9.266573945E+02  9.266573945E+02  0.000000000E+00  0.00000E+00  9.000E+00
      21    -1     0     0   501   511  0.000000000E+00  0.000000000E+00 -3.916284605E+02  3.916284605E+02  0.000000000E+00  0.00000E+00  9.000E+00
      25     1     1     2     0     0  3.203497483E+01  1.580713154E+02 -3.031557430E+02  3.654328733E+02  1.250000000E+02  0.00000E+00  9.000E+00
      25     1     1     2     0     0 -2.779033687E+01 -1.290490015E+02  8.817706324E+02  9.003168308E+02  1.250000000E+02  0.00000E+00  9.000E+00
      21     1     1     2   502   511 -4.244637961E+00 -2.902231390E+01 -4.358595539E+01  5.253615100E+01  8.259061849E-07  0.00000E+00  9.000E+00
#rwgt            1           1   3.1638304289390920E-002           7      278547           0
</event>
<event>
      5   9999  3.19816E-02  2.52058E+01 -1.00000E+00  1.58485E-01
      21    -1     0     0   512   501  0.000000000E+00  0.000000000E+00  4.550386467E+02  4.550386467E+02  0.000000000E+00  0.00000E+00  9.000E+00
      21    -1     0     0   501   502  0.000000000E+00  0.000000000E+00 -1.882803589E+02  1.882803589E+02  0.000000000E+00  0.00000E+00  9.000E+00
      25     1     1     2     0     0 -2.158545795E+02  1.004930415E+02  1.087366985E+02  2.900701993E+02  1.250000000E+02  0.00000E+00  9.000E+00
      25     1     1     2     0     0  2.349170947E+02 -1.169840892E+02  1.437768825E+02  3.242963312E+02  1.250000000E+02  0.00000E+00  9.000E+00
      21     1     1     2   512   502 -1.906251523E+01  1.649104766E+01  1.424470679E+01  2.895247505E+01  3.769728732E-07  0.00000E+00  9.000E+00
#rwgt            1           1   3.0185292170032612E-002           7      278699           0
</event>
<event>
      5   9999  3.92736E-02  1.87782E+02 -1.00000E+00  1.12654E-01
      21    -1     0     0   502   501  0.000000000E+00  0.000000000E+00  4.184502520E+01  4.184502520E+01  0.000000000E+00  0.00000E+00  9.000E+00
       2    -1     0     0   501     0  0.000000000E+00  0.000000000E+00 -2.543650315E+03  2.543650315E+03  0.000000000E+00  0.00000E+00  9.000E+00
      25     1     1     2     0     0  2.197919684E+02 -2.304507064E+01 -1.654783841E+03  1.674148783E+03  1.250000000E+02  0.00000E+00  9.000E+00
      25     1     1     2     0     0 -3.746747143E+01 -2.189902834E+01 -2.191749762E+02  2.560196263E+02  1.250000000E+02  0.00000E+00  9.000E+00
       2     1     1     2   502     0 -1.823244969E+02  4.494409898E+01 -6.278464724E+02  6.553269315E+02  0.000000000E+00  0.00000E+00  9.000E+00
#rwgt            1           1  0.12423488557820370                7      278876           0
</event>
<event>
      5   9999  3.19816E-02  5.56088E+01 -1.00000E+00  1.36491E-01
      -4    -1     0     0     0   501  0.000000000E+00  0.000000000E+00  4.176792418E+02  4.176792418E+02  0.000000000E+00  0.00000E+00  9.000E+00
      21    -1     0     0   501   502  0.000000000E+00  0.000000000E+00 -3.378289911E+02  3.378289911E+02  0.000000000E+00  0.00000E+00  9.000E+00
      25     1     1     2     0     0 -2.787840309E+02  1.104376120E+02  1.257463123E+01  3.251155539E+02  1.250000000E+02  0.00000E+00  9.000E+00
      25     1     1     2     0     0  3.085841296E+02 -1.573874579E+02  4.723560382E+01  3.712831523E+02  1.250000000E+02  0.00000E+00  9.000E+00
      -4     1     1     2     0   502 -2.980009862E+01  4.694984595E+01  2.004001565E+01  5.910952664E+01  4.768371582E-07  0.00000E+00  9.000E+00
#rwgt            1           1   2.9791710275051366E-002           7      278917           0
</event>
<event>
      5   9999  3.19816E-02  1.18847E+02 -1.00000E+00  1.20547E-01
      21    -1     0     0   502   501  0.000000000E+00  0.000000000E+00  1.425679200E+03  1.425679200E+03  0.000000000E+00  0.00000E+00  9.000E+00
      21    -1     0     0   501   511  0.000000000E+00  0.000000000E+00 -2.740735242E+02  2.740735242E+02  0.000000000E+00  0.00000E+00  9.000E+00
      25     1     1     2     0     0 -5.767379213E+02 -1.564049020E+02  6.354101266E+02  8.811697635E+02  1.250000000E+02  0.00000E+00  9.000E+00
      25     1     1     2     0     0  4.622670133E+02  1.883574996E+02  4.430217105E+02  6.790158873E+02  1.250000000E+02  0.00000E+00  9.000E+00
      21     1     1     2   502   511  1.144709079E+02 -3.195259767E+01  7.317383831E+01  1.395670730E+02  2.697398305E-06  0.00000E+00  9.000E+00
#rwgt            1           1   3.0186048314887869E-002           7      279014           0
</event>
<event>
      5   9999  3.19816E-02  9.88834E+01 -1.00000E+00  1.24048E-01
      21    -1     0     0   502   512  0.000000000E+00  0.000000000E+00  6.157322994E+02  6.157322994E+02  0.000000000E+00  0.00000E+00  9.000E+00
      21    -1     0     0   501   502  0.000000000E+00  0.000000000E+00 -8.265166032E+02  8.265166032E+02  0.000000000E+00  0.00000E+00  9.000E+00
      25     1     1     2     0     0  1.734741875E+02  7.061556570E+01 -3.758092232E+02  4.381066355E+02  1.250000000E+02  0.00000E+00  9.000E+00
      25     1     1     2     0     0 -2.421903645E+02  4.901497427E-01 -3.702859517E+02  4.597750525E+02  1.250000000E+02  0.00000E+00  9.000E+00
      21     1     1     2   501   512  6.871617708E+01 -7.110571545E+01  5.353108710E+02  5.443672147E+02  0.000000000E+00  0.00000E+00  9.000E+00
#rwgt            1           1   2.8233023535531657E-002           7      279070           0
</event>
<event>
      5   9999  3.19816E-02  2.17639E+01 -1.00000E+00  1.63396E-01
      21    -1     0     0   502   501  0.000000000E+00  0.000000000E+00  3.229846751E+02  3.229846751E+02  0.000000000E+00  0.00000E+00  9.000E+00
      21    -1     0     0   511   502  0.000000000E+00  0.000000000E+00 -3.968101355E+02  3.968101355E+02  0.000000000E+00  0.00000E+00  9.000E+00
      25     1     1     2     0     0 -3.080147795E+02 -6.003376694E+01 -7.303153175E+00  3.378690480E+02  1.250000000E+02  0.00000E+00  9.000E+00
      25     1     1     2     0     0  3.274718588E+02  5.028246854E+01 -5.959430348E+01  3.590858197E+02  1.250000000E+02  0.00000E+00  9.000E+00
      21     1     1     2   511   501 -1.945707927E+01  9.751298402E+00 -6.928003756E+00  2.283994287E+01  2.920019320E-07  0.00000E+00  9.000E+00
#rwgt            1           1   2.8423852283282102E-002           7      279135           0
</event>
<event>
      5   9999  3.19816E-02  1.65344E+02 -1.00000E+00  1.14742E-01
       5    -1     0     0   502     0  0.000000000E+00  0.000000000E+00  9.986712602E+01  9.986712602E+01  0.000000000E+00  0.00000E+00  9.000E+00
      21    -1     0     0   501   502  0.000000000E+00  0.000000000E+00 -1.069666830E+03  1.069666830E+03  0.000000000E+00  0.00000E+00  9.000E+00
      25     1     1     2     0     0 -2.214248980E+02 -5.080997218E+01 -6.746762837E+02  7.227888534E+02  1.250000000E+02  0.00000E+00  9.000E+00
      25     1     1     2     0     0  6.220164213E+01  9.538059484E+01 -1.660166437E+02  2.369663017E+02  1.250000000E+02  0.00000E+00  9.000E+00
       5     1     1     2   501     0  1.592232559E+02 -4.457062265E+01 -1.291067768E+02  2.097788012E+02  0.000000000E+00  0.00000E+00  9.000E+00
#rwgt            1           1   2.8563961505982720E-002           7      279333           0
</event>
<event>
      5   9999  3.19816E-02  1.04821E+02 -1.00000E+00  1.22915E-01
      21    -1     0     0   502   501  0.000000000E+00  0.000000000E+00  8.209771052E+02  8.209771052E+02  0.000000000E+00  0.00000E+00  9.000E+00
      21    -1     0     0   501   511  0.000000000E+00  0.000000000E+00 -6.616669715E+01  6.616669715E+01  0.000000000E+00  0.00000E+00  9.000E+00
      25     1     1     2     0     0  2.531459850E+01  2.850842530E+01  1.588579045E+02  2.057046257E+02  1.250000000E+02  0.00000E+00  9.000E+00
      25     1     1     2     0     0  7.947072783E+01 -3.126195239E+01  5.435710684E+02  5.642582854E+02  1.250000000E+02  0.00000E+00  9.000E+00
      21     1     1     2   502   511 -1.047853263E+02  2.753527083E+00  5.238143515E+01  1.171808913E+02  2.132480600E-06  0.00000E+00  9.000E+00
#rwgt            1           1   4.0611820031984498E-002           7      279380           0
</event>
<event>
      5   9999  3.19816E-02  1.58501E+02 -1.00000E+00  1.15453E-01
      21    -1     0     0   502   501  0.000000000E+00  0.000000000E+00  6.112812400E+02  6.112812400E+02  0.000000000E+00  0.00000E+00  9.000E+00
      21    -1     0     0   501   512  0.000000000E+00  0.000000000E+00 -6.430344276E+02  6.430344276E+02  0.000000000E+00  0.00000E+00  9.000E+00
      25     1     1     2     0     0  4.595614518E+02  1.728311554E+01 -1.800882540E+02  5.094626712E+02  1.250000000E+02  0.00000E+00  9.000E+00
      25     1     1     2     0     0 -3.889947377E+02  1.246421480E+02  3.027423835E+02  5.235747528E+02  1.250000000E+02  0.00000E+00  9.000E+00
      21     1     1     2   502   512 -7.056671409E+01 -1.419252635E+02 -1.544073170E+02  2.212782436E+02  4.264961200E-06  0.00000E+00  9.000E+00
#rwgt            1           1   2.5982908736778842E-002           7      279412           0
</event>
<event>
      5   9999  3.19816E-02  2.24008E+01 -1.00000E+00  1.62407E-01
      21    -1     0     0   502   501  0.000000000E+00  0.000000000E+00  1.309767693E+02  1.309767693E+02  0.000000000E+00  0.00000E+00  9.000E+00
      21    -1     0     0   511   502  0.000000000E+00  0.000000000E+00 -8.824096458E+02  8.824096458E+02  0.000000000E+00  0.00000E+00  9.000E+00
      25     1     1     2     0     0  2.744485970E+01  6.672114786E+01 -2.033358435E+02  2.493499492E+02  1.250000000E+02  0.00000E+00  9.000E+00
      25     1     1     2     0     0 -5.059016048E+00 -6.590190829E+01  6.138097146E+01  1.541469390E+02  1.250000000E+02  0.00000E+00  9.000E+00
      21     1     1     2   511   501 -2.238584365E+01 -8.192395760E-01 -6.094780045E+02  6.098895270E+02  0.000000000E+00  0.00000E+00  9.000E+00
#rwgt            1           1   2.1374085846157995E-002           7      279501           0
</event>
<event>
      5   9999  3.19816E-02  6.98468E+01 -1.00000E+00  1.31269E-01
      21    -1     0     0   502   501  0.000000000E+00  0.000000000E+00  7.804466516E+02  7.804466516E+02  0.000000000E+00  0.00000E+00  9.000E+00
      21    -1     0     0   512   502  0.000000000E+00  0.000000000E+00 -3.018267319E+02  3.018267319E+02  0.000000000E+00  0.00000E+00  9.000E+00
      25     1     1     2     0     0 -2.908523879E+02  3.070534929E+02  6.288547489E+01  4.454846148E+02  1.250000000E+02  0.00000E+00  9.000E+00
      25     1     1     2     0     0  2.240360554E+02 -2.867026468E+02  4.164178346E+02  5.669385988E+02  1.250000000E+02  0.00000E+00  9.000E+00
      21     1     1     2   512   501  6.681633249E+01 -2.035084609E+01 -6.833897555E-01  6.985016998E+01  1.349666043E-06  0.00000E+00  9.000E+00
#rwgt            1           1   3.1861695238420008E-002           7      279662           0
</event>
<event>
      5   9999  3.19816E-02  4.68345E+01 -1.00000E+00  1.40716E-01
      21    -1     0     0   511   501  0.000000000E+00  0.000000000E+00  1.727342201E+02  1.727342201E+02  0.000000000E+00  0.00000E+00  9.000E+00
      21    -1     0     0   501   502  0.000000000E+00  0.000000000E+00 -1.838223995E+03  1.838223995E+03  0.000000000E+00  0.00000E+00  9.000E+00
      25     1     1     2     0     0 -2.770858242E+02  4.622955330E+02 -6.788268690E+02  8.757423319E+02  1.250000000E+02  0.00000E+00  9.000E+00
      25     1     1     2     0     0  2.605049532E+02 -4.184943747E+02 -9.419489702E+02  1.070464028E+03  1.250000000E+02  0.00000E+00  9.000E+00
      21     1     1     2   511   502  1.658087102E+01 -4.380115831E+01 -4.471393611E+01  6.475185585E+01  1.507891493E-06  0.00000E+00  9.000E+00
#rwgt            1           1   3.1667841542533631E-002           7      279724           0
</event>
<event>
      5   9999  3.19816E-02  6.05490E+01 -1.00000E+00  1.34492E-01
      21    -1     0     0   502   501  0.000000000E+00  0.000000000E+00  2.450031820E+03  2.450031820E+03  0.000000000E+00  0.00000E+00  9.000E+00
      21    -1     0     0   501   512  0.000000000E+00  0.000000000E+00 -1.630513694E+02  1.630513694E+02  0.000000000E+00  0.00000E+00  9.000E+00
      25     1     1     2     0     0 -2.727248036E+02 -4.357432633E+02  5.932881584E+02  7.949005277E+02  1.250000000E+02  0.00000E+00  9.000E+00
      25     1     1     2     0     0  3.139684903E+02  4.800731005E+02  1.618207559E+03  1.721414273E+03  1.250000000E+02  0.00000E+00  9.000E+00
      21     1     1     2   502   512 -4.124368673E+01 -4.432983720E+01  7.548473336E+01  9.676838911E+01  9.536743164E-07  0.00000E+00  9.000E+00
#rwgt            1           1   3.2237382423679982E-002           7      279869           0
</event>
<event>
      5   9999  3.19816E-02  2.45516E+01 -1.00000E+00  1.59342E-01
      21    -1     0     0   502   501  0.000000000E+00  0.000000000E+00  1.657547118E+03  1.657547118E+03  0.000000000E+00  0.00000E+00  9.000E+00
      21    -1     0     0   511   502  0.000000000E+00  0.000000000E+00 -3.253006443E+02  3.253006443E+02  0.000000000E+00  0.00000E+00  9.000E+00
      25     1     1     2     0     0  1.375065867E+02  2.152330809E+02  1.355527256E+03  1.385031582E+03  1.250000000E+02  0.00000E+00  9.000E+00
      25     1     1     2     0     0 -1.129728235E+02 -2.142967793E+02  2.218456306E+02  3.514633015E+02  1.250000000E+02  0.00000E+00  9.000E+00
      21     1     1     2   511   501 -2.453376326E+01 -9.363016058E-01 -2.451264135E+02  2.463528786E+02  5.394796609E-06  0.00000E+00  9.000E+00
#rwgt            1           1   2.7083625386512364E-002           7      279948           0
</event>
<event>
      5   9999  3.19816E-02  2.88058E+01 -1.00000E+00  1.54275E-01
      21    -1     0     0   512   501  0.000000000E+00  0.000000000E+00  8.898399325E+01  8.898399325E+01  0.000000000E+00  0.00000E+00  9.000E+00
      21    -1     0     0   501   502  0.000000000E+00  0.000000000E+00 -4.119625833E+02  4.119625833E+02  0.000000000E+00  0.00000E+00  9.000E+00
      25     1     1     2     0     0  8.748035143E+01  7.140077619E+01 -2.142429198E+02  2.725360736E+02  1.250000000E+02  0.00000E+00  9.000E+00
      25     1     1     2     0     0 -6.139785018E+01 -8.362687158E+01 -1.148742461E+02  1.989578902E+02  1.250000000E+02  0.00000E+00  9.000E+00
      21     1     1     2   512   502 -2.608250125E+01  1.222609540E+01  6.138575924E+00  2.945261269E+01  8.429369702E-07  0.00000E+00  9.000E+00
#rwgt            1           1   2.8506594071897033E-002           7      280148           0
</event>
<event>
      5   9999  3.19816E-02  3.03581E+02 -1.00000E+00  1.05425E-01
       1    -1     0     0   502     0  0.000000000E+00  0.000000000E+00  1.732815549E+03  1.732815549E+03  0.000000000E+00  0.00000E+00  9.000E+00
      21    -1     0     0   501   502  0.000000000E+00  0.000000000E+00 -1.398402013E+03  1.398402013E+03  0.000000000E+00  0.00000E+00  9.000E+00
      25     1     1     2     0     0  6.363997927E+02 -3.487075249E+02 -1.094930515E+03  1.319507282E+03  1.250000000E+02  0.00000E+00  9.000E+00
      25     1     1     2     0     0 -7.928814826E+02  8.856381517E+01  9.880245991E+02  1.276057288E+03  1.250000000E+02  0.00000E+00  9.000E+00
       1     1     1     2   501     0  1.564816898E+02  2.601437097E+02  4.413194517E+02  5.356529916E+02  9.344061824E-06  0.00000E+00  9.000E+00
#rwgt            1           1   6.6418230806762624E-002           7      280263           0
</event>
<event>
      5   9999  3.19816E-02  1.66582E+01 -1.00000E+00  1.73199E-01
      21    -1     0     0   502   501  0.000000000E+00  0.000000000E+00  6.947519402E+02  6.947519402E+02  0.000000000E+00  0.00000E+00  9.000E+00
      21    -1     0     0   501   511  0.000000000E+00  0.000000000E+00 -4.544056844E+02  4.544056844E+02  0.000000000E+00  0.00000E+00  9.000E+00
      25     1     1     2     0     0 -5.128769797E+02 -9.995573242E+01  2.437965611E+01  5.378227518E+02  1.250000000E+02  0.00000E+00  9.000E+00
      25     1     1     2     0     0  5.282754082E+02  1.063104788E+02  2.179438132E+02  5.945597788E+02  1.250000000E+02  0.00000E+00  9.000E+00
      21     1     1     2   502   511 -1.539842858E+01 -6.354746362E+00 -1.977213527E+00  1.677509396E+01  2.706930358E-07  0.00000E+00  9.000E+00
#rwgt            1           1   2.6693558539281216E-002           7      280331           0
</event>
<event>
      5   9999  3.19816E-02  2.47510E+01 -1.00000E+00  1.59077E-01
      21    -1     0     0   502   501  0.000000000E+00  0.000000000E+00  1.465593524E+03  1.465593524E+03  0.000000000E+00  0.00000E+00  9.000E+00
      21    -1     0     0   501   512  0.000000000E+00  0.000000000E+00 -1.098738837E+02  1.098738837E+02  0.000000000E+00  0.00000E+00  9.000E+00
      25     1     1     2     0     0  2.936928379E+02 -1.439545452E+02  8.606463418E+02  9.291477384E+02  1.250000000E+02  0.00000E+00  9.000E+00
      25     1     1     2     0     0 -3.146661707E+02  1.570973338E+02  4.969321428E+02  6.214989347E+02  1.250000000E+02  0.00000E+00  9.000E+00
      21     1     1     2   502   512  2.097333281E+01 -1.314278860E+01 -1.858843955E+00  2.482073493E+01  3.551356580E-07  0.00000E+00  9.000E+00
#rwgt            1           1   2.8778483222532996E-002           7      280556           0
</event>
<event>
      5   9999  3.19816E-02  3.35746E+01 -1.00000E+00  1.49720E-01
      21    -1     0     0   511   501  0.000000000E+00  0.000000000E+00  5.230906252E+02  5.230906252E+02  0.000000000E+00  0.00000E+00  9.000E+00
      21    -1     0     0   501   502  0.000000000E+00  0.000000000E+00 -4.902291293E+02  4.902291293E+02  0.000000000E+00  0.00000E+00  9.000E+00
      25     1     1     2     0     0  7.872594442E+01 -1.527211905E+02 -9.332178743E+01  2.320678616E+02  1.250000000E+02  0.00000E+00  9.000E+00
      25     1     1     2     0     0 -4.693791283E+01  1.635272913E+02 -2.927739976E+02  3.609514598E+02  1.250000000E+02  0.00000E+00  9.000E+00
      21     1     1     2   511   502 -3.178803159E+01 -1.080610075E+01  4.189572809E+02  4.203004330E+02  5.394796609E-06  0.00000E+00  9.000E+00
#rwgt            1           1   2.5148082209790978E-002           7      280687           0
</event>
<event>
      5   9999  3.19816E-02  5.10498E+01 -1.00000E+00  1.38563E-01
       4    -1     0     0   502     0  0.000000000E+00  0.000000000E+00  5.158563825E+02  5.158563825E+02  0.000000000E+00  0.00000E+00  9.000E+00
      21    -1     0     0   501   502  0.000000000E+00  0.000000000E+00 -2.341703889E+02  2.341703889E+02  0.000000000E+00  0.00000E+00  9.000E+00
      25     1     1     2     0     0 -2.340425040E+02 -1.132886217E+02  7.623837980E+01  2.984082707E+02  1.250000000E+02  0.00000E+00  9.000E+00
      25     1     1     2     0     0  1.911846656E+02  1.410247277E+02  3.144737289E+01  2.702840865E+02  1.250000000E+02  0.00000E+00  9.000E+00
       4     1     1     2   501     0  4.285783841E+01 -2.773610596E+01  1.740002409E+02  1.813344141E+02  0.000000000E+00  0.00000E+00  9.000E+00
#rwgt            1           1   2.8704300757608953E-002           7      280759           0
</event>
<event>
      5   9999  3.19816E-02  3.01982E+02 -1.00000E+00  1.05499E-01
      21    -1     0     0   502   511  0.000000000E+00  0.000000000E+00  2.046307235E+03  2.046307235E+03  0.000000000E+00  0.00000E+00  9.000E+00
      21    -1     0     0   501   502  0.000000000E+00  0.000000000E+00 -8.812312039E+02  8.812312039E+02  0.000000000E+00  0.00000E+00  9.000E+00
      25     1     1     2     0     0 -8.624851208E+02  1.656511524E+02 -4.675075120E+02  1.002750797E+03  1.250000000E+02  0.00000E+00  9.000E+00
      25     1     1     2     0     0  6.587649098E+02  5.726403499E+01  8.380655632E+02  1.074815921E+03  1.250000000E+02  0.00000E+00  9.000E+00
      21     1     1     2   501   511  2.037202110E+02 -2.229151874E+02  7.945179804E+02  8.499717209E+02  1.078959322E-05  0.00000E+00  9.000E+00
#rwgt            2          11   2.3757489392665443E-003           7      280836           0
</event>
<event>
      5   9999  3.19816E-02  1.05552E+01 -1.00000E+00  1.93083E-01
      21    -1     0     0   512   501  0.000000000E+00  0.000000000E+00  2.929969409E+01  2.929969409E+01  0.000000000E+00  0.00000E+00  9.000E+00
      21    -1     0     0   501   502  0.000000000E+00  0.000000000E+00 -1.948219471E+03  1.948219471E+03  0.000000000E+00  0.00000E+00  9.000E+00
      25     1     1     2     0     0  5.099456248E+01  1.047307422E+02 -2.852810302E+02  3.325345696E+02  1.250000000E+02  0.00000E+00  9.000E+00
      25     1     1     2     0     0 -5.268220546E+01 -1.151501756E+02 -1.596189952E+03  1.606076692E+03  1.250000000E+02  0.00000E+00  9.000E+00
      21     1     1     2   512   502  1.687642974E+00  1.041943341E+01 -3.744879448E+01  3.890790330E+01  6.743495762E-07  0.00000E+00  9.000E+00
#rwgt            1           1   9.4468441260921243E-002           7      280871           0
</event>
<event>
      5   9999  3.19816E-02  1.66794E+02 -1.00000E+00  1.14596E-01
      21    -1     0     0   502   511  0.000000000E+00  0.000000000E+00  9.715551855E+02  9.715551855E+02  0.000000000E+00  0.00000E+00  9.000E+00
      21    -1     0     0   501   502  0.000000000E+00  0.000000000E+00 -7.018981979E+02  7.018981979E+02  0.000000000E+00  0.00000E+00  9.000E+00
      25     1     1     2     0     0 -1.505403507E+02 -5.412367532E+02 -3.324247838E+02  6.646283601E+02  1.250000000E+02  0.00000E+00  9.000E+00
      25     1     1     2     0     0  3.171966298E+02  5.344635923E+02  4.126104299E+02  7.563976469E+02  1.250000000E+02  0.00000E+00  9.000E+00
      21     1     1     2   501   511 -1.666562790E+02  6.773160942E+00  1.894713416E+02  2.524273763E+02  3.814697266E-06  0.00000E+00  9.000E+00
#rwgt            1           1   2.9547008024040561E-002           7      281079           0
</event>
<event>
      5   9999  3.19816E-02  1.86964E+02 -1.00000E+00  1.12724E-01
      21    -1     0     0   502   501  0.000000000E+00  0.000000000E+00  1.521699057E+02  1.521699057E+02  0.000000000E+00  0.00000E+00  9.000E+00
      21    -1     0     0   501   512  0.000000000E+00  0.000000000E+00 -9.967306232E+02  9.967306232E+02  0.000000000E+00  0.00000E+00  9.000E+00
      25     1     1     2     0     0  1.450303513E+01  1.102492290E+02 -4.304981258E+01  1.727527623E+02  1.250000000E+02  0.00000E+00  9.000E+00
      25     1     1     2     0     0  1.285583139E+02 -2.306197158E+02 -2.210922738E+02  3.663597780E+02  1.250000000E+02  0.00000E+00  9.000E+00
      21     1     1     2   502   512 -1.430613491E+02  1.203704868E+02 -5.804186311E+02  6.097879886E+02  0.000000000E+00  0.00000E+00  9.000E+00
#rwgt            1           1   2.7053414231301108E-002           7      281160           0
</event>
<event>
      5   9999  3.19816E-02  1.46217E+01 -1.00000E+00  1.78435E-01
      21    -1     0     0   502   501  0.000000000E+00  0.000000000E+00  1.308894660E+03  1.308894660E+03  0.000000000E+00  0.00000E+00  9.000E+00
      21    -1     0     0   501   511  0.000000000E+00  0.000000000E+00 -5.361476998E+02  5.361476998E+02  0.000000000E+00  0.00000E+00  9.000E+00
      25     1     1     2     0     0  2.273222971E+01  9.900913487E+01  9.490485870E+01  1.869531900E+02  1.250000000E+02  0.00000E+00  9.000E+00
      25     1     1     2     0     0 -2.041510174E+01 -1.134460939E+02  1.161666110E+03  1.174044268E+03  1.250000000E+02  0.00000E+00  9.000E+00
      21     1     1     2   502   511 -2.317127966E+00  1.443695901E+01 -4.838240088E+02  4.840449012E+02  5.394796609E-06  0.00000E+00  9.000E+00
#rwgt            1           1   3.1146807045139627E-002           7      281206           0
</event>
<event>
      5   9999  3.19816E-02  3.43758E+01 -1.00000E+00  1.49043E-01
      21    -1     0     0   502   501  0.000000000E+00  0.000000000E+00  9.583997971E+02  9.583997971E+02  0.000000000E+00  0.00000E+00  9.000E+00
      21    -1     0     0   501   512  0.000000000E+00  0.000000000E+00 -2.916162451E+02  2.916162451E+02  0.000000000E+00  0.00000E+00  9.000E+00
      25     1     1     2     0     0 -2.118952664E+02 -4.193563304E+02  1.562191155E+02  5.106747965E+02  1.250000000E+02  0.00000E+00  9.000E+00
      25     1     1     2     0     0  2.026790397E+02  3.862390197E+02  5.316969745E+02  6.989893033E+02  1.250000000E+02  0.00000E+00  9.000E+00
      21     1     1     2   502   512  9.216226747E+00  3.311731066E+01 -2.113253794E+01  4.035194246E+01  4.768371582E-07  0.00000E+00  9.000E+00
#rwgt            1           1   2.8885617547741427E-002           7      281369           0
</event>
<event>
      5   9999  3.19816E-02  9.32276E+00 -1.00000E+00  1.99345E-01
      21    -1     0     0   502   501  0.000000000E+00  0.000000000E+00  1.776864740E+03  1.776864740E+03  0.000000000E+00  0.00000E+00  9.000E+00
      21    -1     0     0   511   502  0.000000000E+00  0.000000000E+00 -1.952112542E+02  1.952112542E+02  0.000000000E+00  0.00000E+00  9.000E+00
      25     1     1     2     0     0 -3.433757199E+02  1.301180862E+02  1.508896079E+03  1.557956988E+03  1.250000000E+02  0.00000E+00  9.000E+00
      25     1     1     2     0     0  3.495677806E+02 -1.231487093E+02  8.344245249E+01  3.999385961E+02  1.250000000E+02  0.00000E+00  9.000E+00
      21     1     1     2   511   501 -6.192060647E+00 -6.969376951E+00 -1.068504528E+01  1.418040982E+01  1.685873940E-07  0.00000E+00  9.000E+00
#rwgt            1           1   3.4430636806114377E-002           7      281477           0
</event>
<event>
      5   9999  3.19816E-02  2.58149E+01 -1.00000E+00  1.57715E-01
      21    -1     0     0   502   501  0.000000000E+00  0.000000000E+00  1.333316012E+03  1.333316012E+03  0.000000000E+00  0.00000E+00  9.000E+00
       1    -1     0     0   501     0  0.000000000E+00  0.000000000E+00 -1.164631058E+03  1.164631058E+03  0.000000000E+00  0.00000E+00  9.000E+00
      25     1     1     2     0     0 -3.789790670E+02  1.067203017E+02  3.460657018E+02  5.388885098E+02  1.250000000E+02  0.00000E+00  9.000E+00
      25     1     1     2     0     0  3.621353028E+02 -8.715772658E+01  8.473487584E+02  9.340039428E+02  1.250000000E+02  0.00000E+00  9.000E+00
       1     1     1     2   502     0  1.684376418E+01 -1.956257517E+01 -1.024729507E+03  1.025054617E+03  1.525878906E-05  0.00000E+00  9.000E+00
#rwgt            1           1   2.9547080359946520E-002           7      281736           0
</event>
<event>
      5   9999  3.19816E-02  5.73303E+01 -1.00000E+00  1.35768E-01
      21    -1     0     0   511   501  0.000000000E+00  0.000000000E+00  3.654150190E+02  3.654150190E+02  0.000000000E+00  0.00000E+00  9.000E+00
      21    -1     0     0   501   502  0.000000000E+00  0.000000000E+00 -4.633401283E+02  4.633401283E+02  0.000000000E+00  0.00000E+00  9.000E+00
      25     1     1     2     0     0  3.257532890E+02  5.889419668E+01 -9.997933384E+01  3.677017798E+02  1.250000000E+02  0.00000E+00  9.000E+00
      25     1     1     2     0     0 -2.702846569E+02 -7.338549620E+01 -1.175217868E+02  3.284442071E+02  1.250000000E+02  0.00000E+00  9.000E+00
      21     1     1     2   511   502 -5.546863206E+01  1.449129951E+01  1.195760114E+02  1.326091604E+02  1.348699152E-06  0.00000E+00  9.000E+00
#rwgt            1           1   3.1876439386770844E-002           7      281877           0
</event>
<event>
      5   9999  3.19816E-02  1.98043E+01 -1.00000E+00  1.66722E-01
      21    -1     0     0   502   512  0.000000000E+00  0.000000000E+00  9.788594678E+02  9.788594678E+02  0.000000000E+00  0.00000E+00  9.000E+00
      21    -1     0     0   501   502  0.000000000E+00  0.000000000E+00 -3.420545281E+02  3.420545281E+02  0.000000000E+00  0.00000E+00  9.000E+00
      25     1     1     2     0     0 -1.399782452E+02 -2.834072371E+02  1.037606084E+02  3.553939153E+02  1.250000000E+02  0.00000E+00  9.000E+00
      25     1     1     2     0     0  1.225832578E+02  2.739402121E+02 -9.379557055E+01  3.383674097E+02  1.250000000E+02  0.00000E+00  9.000E+00
      21     1     1     2   501   512  1.739498747E+01  9.467024990E+00  6.268399018E+02  6.271526709E+02  7.629394531E-06  0.00000E+00  9.000E+00
#rwgt            1           1   2.8091437219446767E-002           7      281996           0
</event>
<event>
      5   9999  3.19816E-02  4.04478E+01 -1.00000E+00  1.44541E-01
      21    -1     0     0   502   501  0.000000000E+00  0.000000000E+00  3.991455422E+02  3.991455422E+02  0.000000000E+00  0.00000E+00  9.000E+00
      21    -1     0     0   511   502  0.000000000E+00  0.000000000E+00 -1.929853005E+02  1.929853005E+02  0.000000000E+00  0.00000E+00  9.000E+00
      25     1     1     2     0     0 -1.139275158E+02  1.128380856E+01  1.870246178E+02  2.524084207E+02  1.250000000E+02  0.00000E+00  9.000E+00
      25     1     1     2     0     0  1.532501975E+02 -2.075761188E+01  1.191663880E+02  2.318234878E+02  1.250000000E+02  0.00000E+00  9.000E+00
      21     1     1     2   511   501 -3.932268166E+01  9.473803315E+00 -1.000307641E+02  1.078989342E+02  1.348699152E-06  0.00000E+00  9.000E+00
#rwgt            1           1   3.1027648156254681E-002           7      282164           0
</event>
<event>
      5   9999  3.19816E-02  2.92511E+01 -1.00000E+00  1.53806E-01
      21    -1     0     0   502   501  0.000000000E+00  0.000000000E+00  1.165284812E+02  1.165284812E+02  0.000000000E+00  0.00000E+00  9.000E+00
      21    -1     0     0   501   512  0.000000000E+00  0.000000000E+00 -1.146369945E+03  1.146369945E+03  0.000000000E+00  0.00000E+00  9.000E+00
      25     1     1     2     0     0  1.349564535E+01  2.708783207E+02 -1.744875244E+02  3.458729438E+02  1.250000000E+02  0.00000E+00  9.000E+00
      25     1     1     2     0     0  1.564793044E+01 -2.733846345E+02 -7.908510495E+02  8.461999755E+02  1.250000000E+02  0.00000E+00  9.000E+00
      21     1     1     2   502   512 -2.914357579E+01  2.506313758E+00 -6.450288948E+01  7.082550649E+01  1.348699152E-06  0.00000E+00  9.000E+00
#rwgt            1           1   3.1348241144497017E-002           7      282217           0
</event>
<event>
      5   9999  3.19816E-02  5.83366E+01 -1.00000E+00  1.35359E-01
      -1    -1     0     0     0   501  0.000000000E+00  0.000000000E+00  9.699994623E+02  9.699994623E+02  0.000000000E+00  0.00000E+00  9.000E+00
      21    -1     0     0   501   502  0.000000000E+00  0.000000000E+00 -2.022736180E+02  2.022736180E+02  0.000000000E+00  0.00000E+00  9.000E+00
      25     1     1     2     0     0  3.720044209E+02  7.862131664E+01  1.849020322E+02  4.408881515E+02  1.250000000E+02  0.00000E+00  9.000E+00
      25     1     1     2     0     0 -3.174568316E+02 -9.930278909E+01  3.796373956E+02  5.199898422E+02  1.250000000E+02  0.00000E+00  9.000E+00
      -1     1     1     2     0   502 -5.454758931E+01  2.068147246E+01  2.031864165E+02  2.113950866E+02  4.672030912E-06  0.00000E+00  9.000E+00
#rwgt            1           1   2.6371842751880793E-002           7      282351           0
</event>
<event>
      5   9999  3.19816E-02  3.65189E+02 -1.00000E+00  1.02890E-01
      21    -1     0     0   502   501  0.000000000E+00  0.000000000E+00  6.213934775E+02  6.213934775E+02  0.000000000E+00  0.00000E+00  9.000E+00
      21    -1     0     0   501   511  0.000000000E+00  0.000000000E+00 -7.024886988E+02  7.024886988E+02  0.000000000E+00  0.00000E+00  9.000E+00
      25     1     1     2     0     0 -1.279499107E+02 -1.570296220E+02 -9.895054174E+01  2.577706181E+02  1.250000000E+02  0.00000E+00  9.000E+00
      25     1     1     2     0     0 -1.745359395E+01  4.920236075E+02  3.129305888E+02  5.966090945E+02  1.250000000E+02  0.00000E+00  9.000E+00
      21     1     1     2   502   511  1.454035047E+02 -3.349939855E+02 -2.950752682E+02  4.695024637E+02  5.394796609E-06  0.00000E+00  9.000E+00
#rwgt            2          11   2.9115910734903452E-003           7      282518           0
</event>
<event>
      5   9999  3.19816E-02  7.60081E+01 -1.00000E+00  1.29435E-01
      21    -1     0     0   502   501  0.000000000E+00  0.000000000E+00  2.099293983E+02  2.099293983E+02  0.000000000E+00  0.00000E+00  9.000E+00
      21    -1     0     0   512   502  0.000000000E+00  0.000000000E+00 -3.312899724E+02  3.312899724E+02  0.000000000E+00  0.00000E+00  9.000E+00
      25     1     1     2     0     0 -4.062681955E+01 -9.027003094E+01  7.620006326E+01  1.767220037E+02  1.250000000E+02  0.00000E+00  9.000E+00
      25     1     1     2     0     0 -9.758427142E-02  1.544475911E+02 -6.037682031E+01  2.076642202E+02  1.250000000E+02  0.00000E+00  9.000E+00
      21     1     1     2   512   501  4.072440383E+01 -6.417756012E+01 -1.371838170E+02  1.568331468E+02  1.907348633E-06  0.00000E+00  9.000E+00
#rwgt            1           1   2.3523698911709617E-002           7      282538           0
</event>
<event>
      5   9999  3.19816E-02  5.60915E+01 -1.00000E+00  1.36285E-01
      21    -1     0     0   502   501  0.000000000E+00  0.000000000E+00  1.309162967E+03  1.309162967E+03  0.000000000E+00  0.00000E+00  9.000E+00
      21    -1     0     0   511   502  0.000000000E+00  0.000000000E+00 -2.402115731E+02  2.402115731E+02  0.000000000E+00  0.00000E+00  9.000E+00
      25     1     1     2     0     0  3.953886657E+02  1.919562633E+02  2.658481677E+02  5.286583512E+02  1.250000000E+02  0.00000E+00  9.000E+00
      25     1     1     2     0     0 -3.846354612E+02 -2.470074061E+02  8.320895377E+02  9.575777229E+02  1.250000000E+02  0.00000E+00  9.000E+00
      21     1     1     2   511   501 -1.075320448E+01  5.505114275E+01 -2.898631112E+01  6.313846654E+01  1.348699152E-06  0.00000E+00  9.000E+00
#rwgt            1           1   2.8690763236724648E-002           7      282595           0
</event>
<event>
      5   9999  3.19816E-02  4.90708E+01 -1.00000E+00  1.39542E-01
      21    -1     0     0   512   501  0.000000000E+00  0.000000000E+00  3.027798374E+02  3.027798374E+02  0.000000000E+00  0.00000E+00  9.000E+00
      21    -1     0     0   501   502  0.000000000E+00  0.000000000E+00 -1.981700071E+02  1.981700071E+02  0.000000000E+00  0.00000E+00  9.000E+00
      25     1     1     2     0     0 -1.285533458E+02 -1.017876794E+02 -1.731683892E+01  2.069095631E+02  1.250000000E+02  0.00000E+00  9.000E+00
      25     1     1     2     0     0  1.065511803E+02  5.792601516E+01  1.309448665E+01  1.746569290E+02  1.250000000E+02  0.00000E+00  9.000E+00
      21     1     1     2   512   502  2.200216547E+01  4.386166428E+01  1.088321825E+02  1.193833524E+02  1.348699152E-06  0.00000E+00  9.000E+00
#rwgt            1           1   2.7912159380691831E-002           7      282691           0
</event>
<event>
      5   9999  3.19816E-02  7.59930E+01 -1.00000E+00  1.29439E-01
      21    -1     0     0   502   511  0.000000000E+00  0.000000000E+00  4.699136293E+01  4.699136293E+01  0.000000000E+00  0.00000E+00  9.000E+00
      21    -1     0     0   501   502  0.000000000E+00  0.000000000E+00 -1.017250929E+03  1.017250929E+03  0.000000000E+00  0.00000E+00  9.000E+00
      25     1     1     2     0     0 -2.456173571E+01 -7.903100868E+01 -3.810152048E+02  4.094469019E+02  1.250000000E+02  0.00000E+00  9.000E+00
      25     1     1     2     0     0 -1.482228191E+01  1.440220561E+02 -5.114322848E+02  5.460311663E+02  1.250000000E+02  0.00000E+00  9.000E+00
      21     1     1     2   501   511  3.938401762E+01 -6.499104743E+01 -7.781207622E+01  1.087642234E+02  1.907348633E-06  0.00000E+00  9.000E+00
#rwgt            1           1   3.4873665272539357E-002           7      282771           0
</event>
<event>
      5   9999  3.19816E-02  1.57091E+01 -1.00000E+00  1.75514E-01
      21    -1     0     0   502   501  0.000000000E+00  0.000000000E+00  1.320797955E+03  1.320797955E+03  0.000000000E+00  0.00000E+00  9.000E+00
      21    -1     0     0   501   512  0.000000000E+00  0.000000000E+00 -2.930805698E+02  2.930805698E+02  0.000000000E+00  0.00000E+00  9.000E+00
      25     1     1     2     0     0 -4.225098047E+02  1.073664771E+02  3.896809328E+02  5.979283610E+02  1.250000000E+02  0.00000E+00  9.000E+00
      25     1     1     2     0     0  4.256299173E+02 -9.197035160E+01  7.644251927E+02  8.885889079E+02  1.250000000E+02  0.00000E+00  9.000E+00
      21     1     1     2   502   512 -3.120112543E+00 -1.539612551E+01 -1.263887404E+02  1.273612558E+02  1.348699152E-06  0.00000E+00  9.000E+00
#rwgt            1           1   2.6897508863184653E-002           7      282873           0
</event>
<event>
      5   9999  3.19816E-02  4.62594E+01 -1.00000E+00  1.41030E-01
      21    -1     0     0   502   501  0.000000000E+00  0.000000000E+00  3.894902950E+02  3.894902950E+02  0.000000000E+00  0.00000E+00  9.000E+00
      21    -1     0     0   511   502  0.000000000E+00  0.000000000E+00 -1.455826355E+03  1.455826355E+03  0.000000000E+00  0.00000E+00  9.000E+00
      25     1     1     2     0     0 -5.163395908E+02  4.791054688E+02 -3.258685721E+02  7.861068309E+02  1.250000000E+02  0.00000E+00  9.000E+00
      25     1     1     2     0     0  5.334181341E+02 -4.361141710E+02 -6.402391102E+02  9.488211602E+02  1.250000000E+02  0.00000E+00  9.000E+00
      21     1     1     2   511   501 -1.707854328E+01 -4.299129777E+01 -1.002283781E+02  1.103886593E+02  1.348699152E-06  0.00000E+00  9.000E+00
#rwgt            1           1   2.2991472116975439E-002           7      283102           0
</event>
<event>
      5   9999  3.19816E-02  1.02816E+02 -1.00000E+00  1.23288E-01
      21    -1     0     0   502   501  0.000000000E+00  0.000000000E+00  1.271925218E+03  1.271925218E+03  0.000000000E+00  0.00000E+00  9.000E+00
       4    -1     0     0   501     0  0.000000000E+00  0.000000000E+00 -7.816819013E+02  7.816819013E+02  0.000000000E+00  0.00000E+00  9.000E+00
      25     1     1     2     0     0  2.754979792E+02 -1.049860942E+02  9.934613215E+02  1.043796730E+03  1.250000000E+02  0.00000E+00  9.000E+00
      25     1     1     2     0     0 -1.890835586E+02  1.606960896E+02  1.720197243E+02  3.267898574E+02  1.250000000E+02  0.00000E+00  9.000E+00
       4     1     1     2   502     0 -8.641442065E+01 -5.570999537E+01 -6.752377292E+02  6.830205317E+02  7.629394531E-06  0.00000E+00  9.000E+00
#rwgt            1           1   3.1928446283210545E-002           7      283235           0
</event>
<event>
      5   9999  3.19816E-02  5.69053E+01 -1.00000E+00  1.35944E-01
      21    -1     0     0   502   501  0.000000000E+00  0.000000000E+00  4.897366403E+02  4.897366403E+02  0.000000000E+00  0.00000E+00  9.000E+00
      21    -1     0     0   501   511  0.000000000E+00  0.000000000E+00 -1.472116127E+02  1.472116127E+02  0.000000000E+00  0.00000E+00  9.000E+00
      25     1     1     2     0     0  1.500615776E+02  5.748445597E+01  2.415355468E+02  3.158913739E+02  1.250000000E+02  0.00000E+00  9.000E+00
      25     1     1     2     0     0 -1.868431322E+02 -1.009049019E+02  9.397684791E+01  2.637210709E+02  1.250000000E+02  0.00000E+00  9.000E+00
      21     1     1     2   502   511  3.678155461E+01  4.342044597E+01  7.012632867E+00  5.733580825E+01  4.214684851E-07  0.00000E+00  9.000E+00
#rwgt            2          11   2.1741708844695536E-003           7      283329           0
</event>
<event>
      5   9999  3.19816E-02  4.11352E+01 -1.00000E+00  1.44090E-01
      21    -1     0     0   512   501  0.000000000E+00  0.000000000E+00  4.974386332E+02  4.974386332E+02  0.000000000E+00  0.00000E+00  9.000E+00
      21    -1     0     0   501   502  0.000000000E+00  0.000000000E+00 -2.976383343E+02  2.976383343E+02  0.000000000E+00  0.00000E+00  9.000E+00
      25     1     1     2     0     0  2.526727372E+01 -2.091435601E+02 -5.800425126E+01  2.517319150E+02  1.250000000E+02  0.00000E+00  9.000E+00
      25     1     1     2     0     0 -6.552823036E+01  2.007079568E+02 -3.484012774E+01  2.478234602E+02  1.250000000E+02  0.00000E+00  9.000E+00
      21     1     1     2   512   502  4.026095664E+01  8.435603296E+00  2.926446779E+02  2.955215923E+02  5.394796609E-06  0.00000E+00  9.000E+00
#rwgt            1           1   2.7760641935392710E-002           7      283349           0
</event>
<event>
      5   9999  3.19816E-02  9.46336E+01 -1.00000E+00  1.24915E-01
      21    -1     0     0   502   501  0.000000000E+00  0.000000000E+00  2.627577113E+02  2.627577113E+02  0.000000000E+00  0.00000E+00  9.000E+00
      21    -1     0     0   501   511  0.000000000E+00  0.000000000E+00 -2.210861559E+03  2.210861559E+03  0.000000000E+00  0.00000E+00  9.000E+00
      25     1     1     2     0     0 -6.213536452E+02 -4.076755044E+02 -9.910691299E+02  1.245039232E+03  1.250000000E+02  0.00000E+00  9.000E+00
      25     1     1     2     0     0  5.268063280E+02  4.036352155E+02 -8.256684987E+02  1.066676973E+03  1.250000000E+02  0.00000E+00  9.000E+00
      21     1     1     2   502   511  9.454731713E+01  4.040288925E+00 -1.313662191E+02  1.619030655E+02  0.000000000E+00  0.00000E+00  9.000E+00
#rwgt            1           1   1.8986483874384345E-002           7      283484           0
</event>
<event>
      5   9999  3.19816E-02  4.74229E+01 -1.00000E+00  1.40400E-01
      21    -1     0     0   502   501  0.000000000E+00  0.000000000E+00  6.424484365E+02  6.424484365E+02  0.000000000E+00  0.00000E+00  9.000E+00
      21    -1     0     0   501   512  0.000000000E+00  0.000000000E+00 -2.444086460E+02  2.444086460E+02  0.000000000E+00  0.00000E+00  9.000E+00
      25     1     1     2     0     0 -1.402050899E+02 -1.359344123E+02  2.325891908E+02  3.284179705E+02  1.250000000E+02  0.00000E+00  9.000E+00
      25     1     1     2     0     0  1.345644014E+02  8.884817684E+01  3.295665061E+02  3.876088990E+02  1.250000000E+02  0.00000E+00  9.000E+00
      21     1     1     2   502   512  5.640688532E+00  4.708623542E+01 -1.641159064E+02  1.708302129E+02  2.697398305E-06  0.00000E+00  9.000E+00
#rwgt            1           1   2.5984565407971772E-002           7      283614           0
</event>
<event>
      5   9999  3.19816E-02  7.41023E+01 -1.00000E+00  1.29980E-01
      21    -1     0     0   502   511  0.000000000E+00  0.000000000E+00  1.102350089E+02  1.102350089E+02  0.000000000E+00  0.00000E+00  9.000E+00
      21    -1     0     0   501   502  0.000000000E+00  0.000000000E+00 -1.835928339E+03  1.835928339E+03  0.000000000E+00  0.00000E+00  9.000E+00
      25     1     1     2     0     0 -1.291060835E+02 -2.427689138E+02 -2.962459489E+02  4.230742116E+02  1.250000000E+02  0.00000E+00  9.000E+00
      25     1     1     2     0     0  1.320927207E+02  3.168110422E+02 -1.393768652E+03  1.440844814E+03  1.250000000E+02  0.00000E+00  9.000E+00
      21     1     1     2   501   511 -2.986637205E+00 -7.404212845E+01 -3.567872896E+01  8.224432192E+01  1.784161275E-06  0.00000E+00  9.000E+00
#rwgt            1           1   2.6999078392620716E-002           7      283713           0
</event>
<event>
      5   9999  3.19816E-02  7.36358E+01 -1.00000E+00  1.30117E-01
      -1    -1     0     0     0   501  0.000000000E+00  0.000000000E+00  6.293835041E+02  6.293835041E+02  0.000000000E+00  0.00000E+00  9.000E+00
      21    -1     0     0   501   502  0.000000000E+00  0.000000000E+00 -1.627773607E+02  1.627773607E+02  0.000000000E+00  0.00000E+00  9.000E+00
      25     1     1     2     0     0  1.323882851E+01 -2.327451416E+02  1.994857032E+02  3.313081848E+02  1.250000000E+02  0.00000E+00  9.000E+00
      25     1     1     2     0     0 -7.102485381E+01  1.871052068E+02  6.354395398E+01  2.443680060E+02  1.250000000E+02  0.00000E+00  9.000E+00
      -1     1     1     2     0   502  5.778602530E+01  4.563993487E+01  2.035764862E+02  2.164846741E+02  3.814697266E-06  0.00000E+00  9.000E+00
#rwgt            1           1   2.8056301941835133E-002           7      283757           0
</event>
<event>
      5   9999  3.19816E-02  2.65867E+01 -1.00000E+00  1.56775E-01
      21    -1     0     0   511   501  0.000000000E+00  0.000000000E+00  3.356206704E+02  3.356206704E+02  0.000000000E+00  0.00000E+00  9.000E+00
      21    -1     0     0   501   502  0.000000000E+00  0.000000000E+00 -4.921584138E+02  4.921584138E+02  0.000000000E+00  0.00000E+00  9.000E+00
      25     1     1     2     0     0 -2.257431488E+01  1.748251449E+02  1.089534409E+02  2.420109156E+02  1.250000000E+02  0.00000E+00  9.000E+00
      25     1     1     2     0     0  3.224721822E+01 -1.995898180E+02 -3.909408232E+02  4.575321909E+02  1.250000000E+02  0.00000E+00  9.000E+00
      21     1     1     2   511   502 -9.672903338E+00  2.476467308E+01  1.254496389E+02  1.282359778E+02  2.697398305E-06  0.00000E+00  9.000E+00
#rwgt            1           1   2.8460010524781587E-002           7      283796           0
</event>
<event>
      5   9999  3.19816E-02  2.18498E+02 -1.00000E+00  1.10267E-01
      21    -1     0     0   502   501  0.000000000E+00  0.000000000E+00  1.757476220E+02  1.757476220E+02  0.000000000E+00  0.00000E+00  9.000E+00
       2    -1     0     0   501     0  0.000000000E+00  0.000000000E+00 -1.664665806E+03  1.664665806E+03  0.000000000E+00  0.00000E+00  9.000E+00
      25     1     1     2     0     0 -1.096097630E+02 -3.941595257E+02 -3.670476761E+02  5.636710285E+02  1.250000000E+02  0.00000E+00  9.000E+00
      25     1     1     2     0     0 -8.182772373E+01  2.888352547E+02 -3.644541961E+02  4.884398036E+02  1.250000000E+02  0.00000E+00  9.000E+00
       2     1     1     2   502     0  1.914374867E+02  1.053242710E+02 -7.574163117E+02  7.883025959E+02  1.078959322E-05  0.00000E+00  9.000E+00
#rwgt            2          13   1.2119821693018890E-003           7      283991           0
</event>
<event>
      5   9999  3.19816E-02  5.23705E+01 -1.00000E+00  1.37937E-01
      21    -1     0     0   502   511  0.000000000E+00  0.000000000E+00  5.124357043E+02  5.124357043E+02  0.000000000E+00  0.00000E+00  9.000E+00
      21    -1     0     0   501   502  0.000000000E+00  0.000000000E+00 -4.507231888E+02  4.507231888E+02  0.000000000E+00  0.00000E+00  9.000E+00
      25     1     1     2     0     0 -7.650141617E+01 -2.189579554E+02 -2.084498859E+02  3.359634025E+02  1.250000000E+02  0.00000E+00  9.000E+00
      25     1     1     2     0     0  2.467758963E+01  2.265054694E+02 -8.095088179E+01  2.721980095E+02  1.250000000E+02  0.00000E+00  9.000E+00
      21     1     1     2   501   511  5.182382653E+01 -7.547513993E+00  3.511132832E+02  3.549974811E+02  6.607249480E-06  0.00000E+00  9.000E+00
#rwgt            1           1   2.4985675315070052E-002           7      284010           0
</event>
<event>
      5   9999  3.19816E-02  1.11874E+02 -1.00000E+00  1.21675E-01
      21    -1     0     0   502   512  0.000000000E+00  0.000000000E+00  1.601804954E+03  1.601804954E+03  0.000000000E+00  0.00000E+00  9.000E+00
      21    -1     0     0   501   502  0.000000000E+00  0.000000000E+00 -2.903047468E+02  2.903047468E+02  0.000000000E+00  0.00000E+00  9.000E+00
      25     1     1     2     0     0  1.753571771E+02 -5.035664494E+01  1.343069065E+03  1.361155922E+03  1.250000000E+02  0.00000E+00  9.000E+00
      25     1     1     2     0     0 -1.169981566E+02  1.458034094E+02 -2.182113557E+02  3.133502810E+02  1.250000000E+02  0.00000E+00  9.000E+00
      21     1     1     2   501   512 -5.835902053E+01 -9.544676446E+01  1.866424981E+02  2.176034978E+02  2.697398305E-06  0.00000E+00  9.000E+00
#rwgt            1           1   2.5510560744143203E-002           7      284132           0
</event>
<event>
      5   9999  3.19816E-02  7.68090E+01 -1.00000E+00  1.29211E-01
      21    -1     0     0   502   501  0.000000000E+00  0.000000000E+00  1.211563726E+02  1.211563726E+02  0.000000000E+00  0.00000E+00  9.000E+00
      21    -1     0     0   501   511  0.000000000E+00  0.000000000E+00 -1.914359181E+03  1.914359181E+03  0.000000000E+00  0.00000E+00  9.000E+00
      25     1     1     2     0     0 -8.940897114E+01  2.886048656E+02 -3.988572328E+02  5.157507390E+02  1.250000000E+02  0.00000E+00  9.000E+00
      25     1     1     2     0     0  7.266765366E+01 -2.136425132E+02 -2.092045614E+02  3.321374110E+02  1.250000000E+02  0.00000E+00  9.000E+00
      21     1     1     2   502   511  1.674131747E+01 -7.496235242E+01 -1.185141014E+03  1.187627403E+03  0.000000000E+00  0.00000E+00  9.000E+00
#rwgt            1           1   2.6954013267285849E-002           7      284190           0
</event>
<event>
      5   9999  3.19816E-02  7.42025E+01 -1.00000E+00  1.29951E-01
      21    -1     0     0   502   512  0.000000000E+00  0.000000000E+00  1.289399164E+03  1.289399164E+03  0.000000000E+00  0.00000E+00  9.000E+00
      21    -1     0     0   501   502  0.000000000E+00  0.000000000E+00 -6.828345153E+02  6.828345153E+02  0.000000000E+00  0.00000E+00  9.000E+00
      25     1     1     2     0     0  1.329805558E+01 -5.849538008E+02 -2.511901774E+02  6.488985226E+02  1.250000000E+02  0.00000E+00  9.000E+00
      25     1     1     2     0     0  5.692910322E+01  5.609923561E+02  1.302643430E+02  5.920702200E+02  1.250000000E+02  0.00000E+00  9.000E+00
      21     1     1     2   501   512 -7.022715879E+01  2.396144474E+01  7.274904833E+02  7.312649369E+02  1.078959322E-05  0.00000E+00  9.000E+00
#rwgt            1           1   2.7336394258371598E-002           7      284298           0
</event>
<event>
      5   9999  3.19816E-02  7.45204E+00 -1.00000E+00  2.11783E-01
      21    -1     0     0   502   501  0.000000000E+00  0.000000000E+00  3.210631339E+02  3.210631339E+02  0.000000000E+00  0.00000E+00  9.000E+00
      21    -1     0     0   501   511  0.000000000E+00  0.000000000E+00 -3.400212954E+02  3.400212954E+02  0.000000000E+00  0.00000E+00  9.000E+00
      25     1     1     2     0     0 -1.028474265E+02 -1.604020534E+02 -1.809025195E+02  2.909589893E+02  1.250000000E+02  0.00000E+00  9.000E+00
      25     1     1     2     0     0  9.593064804E+01  1.631753240E+02  2.173877041E+02  3.141835283E+02  1.250000000E+02  0.00000E+00  9.000E+00
      21     1     1     2   502   511  6.916778497E+00 -2.773270543E+00 -5.544334606E+01  5.594191163E+01  0.000000000E+00  0.00000E+00  9.000E+00
#rwgt            1           1   2.6489280151290338E-002           7      284421           0
</event>
<event>
      5   9999  3.19816E-02  2.79943E+01 -1.00000E+00  1.55157E-01
      21    -1     0     0   502   501  0.000000000E+00  0.000000000E+00  2.055902305E+03  2.055902305E+03  0.000000000E+00  0.00000E+00  9.000E+00
      21    -1     0     0   501   512  0.000000000E+00  0.000000000E+00 -4.820819297E+01  4.820819297E+01  0.000000000E+00  0.00000E+00  9.000E+00
      25     1     1     2     0     0  1.303622044E+02 -1.644111043E+02  4.026587935E+02  4.709399320E+02  1.250000000E+02  0.00000E+00  9.000E+00
      25     1     1     2     0     0 -1.104229658E+02  1.840606803E+02  1.563339734E+03  1.582949048E+03  1.250000000E+02  0.00000E+00  9.000E+00
      21     1     1     2   502   512 -1.993923859E+01 -1.964957599E+01  4.169558444E+01  5.022151764E+01  4.768371582E-07  0.00000E+00  9.000E+00
#rwgt            1           1   2.0497314270270357E-002           7      284599           0
</event>
<event>
      5   9999  3.19816E-02  1.49259E+02 -1.00000E+00  1.16479E-01
      21    -1     0     0   502   501  0.000000000E+00  0.000000000E+00  2.582709481E+02  2.582709481E+02  0.000000000E+00  0.00000E+00  9.000E+00
      21    -1     0     0   511   502  0.000000000E+00  0.000000000E+00 -1.162544962E+03  1.162544962E+03  0.000000000E+00  0.00000E+00  9.000E+00
      25     1     1     2     0     0 -2.112806934E+02 -2.984210458E+02 -3.609060708E+02  5.287464836E+02  1.250000000E+02  0.00000E+00  9.000E+00
      25     1     1     2     0     0  1.007360170E+02  3.987118073E+02 -1.246265350E+02  4.475216460E+02  1.250000000E+02  0.00000E+00  9.000E+00
      21     1     1     2   511   501  1.105446764E+02 -1.002907615E+02 -4.187414085E+02  4.445477810E+02  5.394796609E-06  0.00000E+00  9.000E+00
#rwgt            1           1   2.7985160669122110E-002           7      284704           0
</event>
<event>
      5   9999  3.19816E-02  8.96321E+01 -1.00000E+00  1.26004E-01
      21    -1     0     0   502   512  0.000000000E+00  0.000000000E+00  6.063867276E+02  6.063867276E+02  0.000000000E+00  0.00000E+00  9.000E+00
      21    -1     0     0   501   502  0.000000000E+00  0.000000000E+00 -1.105422057E+03  1.105422057E+03  0.000000000E+00  0.00000E+00  9.000E+00
      25     1     1     2     0     0  1.916490735E+02  5.940204422E+02 -5.742472640E+00  6.365906291E+02  1.250000000E+02  0.00000E+00  9.000E+00
      25     1     1     2     0     0 -2.604806408E+02 -6.514323096E+02 -6.030261592E+02  9.335308066E+02  1.250000000E+02  0.00000E+00  9.000E+00
      21     1     1     2   501   512  6.883156734E+01  5.741186738E+01  1.097333024E+02  1.416873489E+02  2.697398305E-06  0.00000E+00  9.000E+00
#rwgt            1           1   2.8120926188556432E-002           7      284762           0
</event>
<event>
      5   9999  3.19816E-02  2.22013E+01 -1.00000E+00  1.62712E-01
      21    -1     0     0   511   501  0.000000000E+00  0.000000000E+00  1.005212238E+02  1.005212238E+02  0.000000000E+00  0.00000E+00  9.000E+00
      21    -1     0     0   501   502  0.000000000E+00  0.000000000E+00 -5.227188074E+02  5.227188074E+02  0.000000000E+00  0.00000E+00  9.000E+00
      25     1     1     2     0     0 -1.121697081E+02 -6.499852928E+01 -7.587979201E+01  1.954215829E+02  1.250000000E+02  0.00000E+00  9.000E+00
      25     1     1     2     0     0  1.336170736E+02  7.073495139E+01 -3.536704005E+02  4.044313389E+02  1.250000000E+02  0.00000E+00  9.000E+00
      21     1     1     2   511   502 -2.144736557E+01 -5.736422119E+00  7.352608892E+00  2.338710940E+01  2.230201594E-07  0.00000E+00  9.000E+00
#rwgt            1           1   2.9855864005578481E-002           7      284878           0
</event>
<event>
      5   9999  4.68710E-02  2.70006E+02 -1.00000E+00  1.07100E-01
      21    -1     0     0   502   501  0.000000000E+00  0.000000000E+00  1.164712110E+03  1.164712110E+03  0.000000000E+00  0.00000E+00  9.000E+00
      21    -1     0     0   501   512  0.000000000E+00  0.000000000E+00 -1.368412702E+03  1.368412702E+03  0.000000000E+00  0.00000E+00  9.000E+00
      25     1     1     2     0     0  1.281537639E+02 -3.083443166E+02  8.558573282E+02  9.271549876E+02  1.250000000E+02  0.00000E+00  9.000E+00
      25     1     1     2     0     0 -1.773949476E+02  4.286593037E+01  2.118023642E+02  3.062543011E+02  1.250000000E+02  0.00000E+00  9.000E+00
      21     1     1     2   502   512  4.924118373E+01  2.654783863E+02 -1.271360285E+03  1.299715523E+03  2.157918644E-05  0.00000E+00  9.000E+00
#rwgt            2          11   8.2171280524970747E-002           7      285022           0
</event>
<event>
      5   9999  3.19816E-02  4.58366E+01 -1.00000E+00  1.41265E-01
      21    -1     0     0   502   501  0.000000000E+00  0.000000000E+00  2.580368998E+02  2.580368998E+02  0.000000000E+00  0.00000E+00  9.000E+00
      21    -1     0     0   511   502  0.000000000E+00  0.000000000E+00 -2.878174841E+03  2.878174841E+03  0.000000000E+00  0.00000E+00  9.000E+00
      25     1     1     2     0     0 -6.481491730E+02  3.012747488E+02 -1.891705174E+03  2.026089161E+03  1.250000000E+02  0.00000E+00  9.000E+00
      25     1     1     2     0     0  6.023987694E+02 -3.040841439E+02 -4.336685032E+02  8.118157516E+02  1.250000000E+02  0.00000E+00  9.000E+00
      21     1     1     2   511   501  4.575040368E+01  2.809395127E+00 -2.947642642E+02  2.983068279E+02  7.629394531E-06  0.00000E+00  9.000E+00
#rwgt            1           1   3.0198022281122599E-002           7      285057           0
</event>
<event>
      5   9999  3.19816E-02  2.16374E+02 -1.00000E+00  1.10418E-01
      21    -1     0     0   512   501  0.000000000E+00  0.000000000E+00  8.220948110E+02  8.220948110E+02  0.000000000E+00  0.00000E+00  9.000E+00
      21    -1     0     0   501   502  0.000000000E+00  0.000000000E+00 -4.430353979E+02  4.430353979E+02  0.000000000E+00  0.00000E+00  9.000E+00
      25     1     1     2     0     0 -3.827457096E+02  4.344981487E+02  2.612001683E+02  6.474051647E+02  1.250000000E+02  0.00000E+00  9.000E+00
      25     1     1     2     0     0  2.618208906E+02 -2.550687036E+02  4.266985918E+01  3.886591556E+02  1.250000000E+02  0.00000E+00  9.000E+00
      21     1     1     2   512   502  1.209248190E+02 -1.794294451E+02  7.518938556E+01  2.290658886E+02  3.303624740E-06  0.00000E+00  9.000E+00
#rwgt            2          11   4.1410803037705063E-003           7      285210           0
</event>
<event>
      5   9999  3.19816E-02  3.97182E+01 -1.00000E+00  1.45031E-01
      21    -1     0     0   502   501  0.000000000E+00  0.000000000E+00  1.840902334E+02  1.840902334E+02  0.000000000E+00  0.00000E+00  9.000E+00
      21    -1     0     0   511   502  0.000000000E+00  0.000000000E+00 -1.424673477E+03  1.424673477E+03  0.000000000E+00  0.00000E+00  9.000E+00
      25     1     1     2     0     0 -1.424315910E+02  2.863552920E+02 -1.173385223E+02  3.628766184E+02  1.250000000E+02  0.00000E+00  9.000E+00
      25     1     1     2     0     0  1.434869975E+02 -2.466511141E+02 -3.381103508E+02  4.597487356E+02  1.250000000E+02  0.00000E+00  9.000E+00
      21     1     1     2   511   501 -1.055406525E+00 -3.970417794E+01 -7.851343701E+02  7.861383560E+02  1.078959322E-05  0.00000E+00  9.000E+00
#rwgt            1           1   2.9250424453757133E-002           7      285230           0
</event>
<event>
      5   9999  3.19816E-02  4.24721E+02 -1.00000E+00  1.00908E-01
      21    -1     0     0   502   501  0.000000000E+00  0.000000000E+00  2.985942039E+02  2.985942039E+02  0.000000000E+00  0.00000E+00  9.000E+00
       2    -1     0     0   501     0  0.000000000E+00  0.000000000E+00 -8.165621599E+02  8.165621599E+02  0.000000000E+00  0.00000E+00  9.000E+00
      25     1     1     2     0     0 -1.496047678E+02 -1.225532568E+02  3.392831867E+01  2.327595715E+02  1.250000000E+02  0.00000E+00  9.000E+00
      25     1     1     2     0     0 -1.961110407E+02 -1.241615456E+02 -2.203917592E+02  3.436177487E+02  1.250000000E+02  0.00000E+00  9.000E+00
       2     1     1     2   502     0  3.457158086E+02  2.467148024E+02 -3.315045155E+02  5.387790436E+02  0.000000000E+00  0.00000E+00  9.000E+00
#rwgt            1           1   2.4124566964802412E-002           7      285320           0
</event>
<event>
      5   9999  3.19816E-02  4.17366E+02  7.55638E-03  1.01133E-01
      -2    -1     0     0     0   501  0.000000000E+00  0.000000000E+00  4.120954484E+02  4.120954484E+02  0.000000000E+00  0.00000E+00  9.000E+00
       2    -1     0     0   502     0  0.000000000E+00  0.000000000E+00 -9.338155735E+02  9.338155735E+02  0.000000000E+00  0.00000E+00  9.000E+00
      25     1     1     2     0     0 -1.172441874E+01  2.074113585E+02 -1.592949710E+02  2.900979514E+02  1.250000000E+02  0.00000E+00  9.000E+00
      25     1     1     2     0     0  4.183101883E+02 -3.016583729E+02 -4.715847596E+01  5.327570830E+02  1.250000000E+02  0.00000E+00  9.000E+00
      21     1     1     2   502   501 -4.065857696E+02  9.424701441E+01 -3.152666781E+02  5.230559875E+02  9.344061824E-06  0.00000E+00  9.000E+00
#rwgt            3           4   1.2241812867899556E-005           7      285407           0
</event>
<event>
      5   9999  3.19816E-02  3.16809E+01 -1.00000E+00  1.51413E-01
      21    -1     0     0   502   501  0.000000000E+00  0.000000000E+00  1.363177472E+02  1.363177472E+02  0.000000000E+00  0.00000E+00  9.000E+00
      21    -1     0     0   501   511  0.000000000E+00  0.000000000E+00 -1.188863925E+03  1.188863925E+03  0.000000000E+00  0.00000E+00  9.000E+00
      25     1     1     2     0     0  1.663713857E+02  1.352243244E+02 -1.969459437E+01  2.489536763E+02  1.250000000E+02  0.00000E+00  9.000E+00
      25     1     1     2     0     0 -1.629452390E+02 -1.667194666E+02 -8.362228624E+02  8.770633996E+02  1.250000000E+02  0.00000E+00  9.000E+00
      21     1     1     2   502   511 -3.426146797E+00  3.149514216E+01 -1.966287213E+02  1.991645965E+02  0.000000000E+00  0.00000E+00  9.000E+00
#rwgt            1           1   3.3171074828951229E-002           7      285426           0
</event>
<event>
      5   9999  3.19816E-02  7.09560E+00 -1.00000E+00  2.14724E-01
      21    -1     0     0   502   501  0.000000000E+00  0.000000000E+00  2.101493678E+02  2.101493678E+02  0.000000000E+00  0.00000E+00  9.000E+00
      21    -1     0     0   512   502  0.000000000E+00  0.000000000E+00 -3.403938716E+02  3.403938716E+02  0.000000000E+00  0.00000E+00  9.000E+00
      25     1     1     2     0     0 -1.919826553E+02 -1.103155309E+02  1.875584387E+01  2.549581102E+02  1.250000000E+02  0.00000E+00  9.000E+00
      25     1     1     2     0     0  1.854586997E+02  1.075252649E+02 -1.440822706E+02  2.869517600E+02  1.250000000E+02  0.00000E+00  9.000E+00
      21     1     1     2   512   501  6.523955537E+00  2.790266061E+00 -4.918077052E+00  8.633369124E+00  8.429369702E-08  0.00000E+00  9.000E+00
#rwgt            1           1   2.6844099788602551E-002           7      285554           0
</event>
<event>
      5   9999  3.19816E-02  1.90938E+01 -1.00000E+00  1.68048E-01
      21    -1     0     0   502   501  0.000000000E+00  0.000000000E+00  2.610674879E+02  2.610674879E+02  0.000000000E+00  0.00000E+00  9.000E+00
      21    -1     0     0   511   502  0.000000000E+00  0.000000000E+00 -3.637343671E+02  3.637343671E+02  0.000000000E+00  0.00000E+00  9.000E+00
      25     1     1     2     0     0  1.072536037E+02  2.261482304E+02 -1.062201009E+02  2.992558561E+02  1.250000000E+02  0.00000E+00  9.000E+00
      25     1     1     2     0     0 -9.326032796E+01 -2.131573513E+02  5.577475754E+01  2.699432696E+02  1.250000000E+02  0.00000E+00  9.000E+00
      21     1     1     2   511   501 -1.399327573E+01 -1.299087903E+01 -5.222153589E+01  5.560272938E+01  0.000000000E+00  0.00000E+00  9.000E+00
#rwgt            2          11   1.2378691957174420E-003           7      285849           0
</event>
<event>
      5   9999  3.19816E-02  8.53521E+01 -1.00000E+00  1.27003E-01
      21    -1     0     0   502   501  0.000000000E+00  0.000000000E+00  1.408206552E+03  1.408206552E+03  0.000000000E+00  0.00000E+00  9.000E+00
      21    -1     0     0   512   502  0.000000000E+00  0.000000000E+00 -5.039852361E+02  5.039852361E+02  0.000000000E+00  0.00000E+00  9.000E+00
      25     1     1     2     0     0  4.063916573E+02  2.044746762E+02 -1.740959789E+02  5.028901294E+02  1.250000000E+02  0.00000E+00  9.000E+00
      25     1     1     2     0     0 -4.886524690E+02 -2.272373333E+02  1.163743859E+03  1.288542902E+03  1.250000000E+02  0.00000E+00  9.000E+00
      21     1     1     2   512   501  8.226081162E+01  2.276265704E+01 -8.542656361E+01  1.207587573E+02  1.348699152E-06  0.00000E+00  9.000E+00
#rwgt            1           1   2.7829997893829277E-002           7      285869           0
</event>
<event>
      5   9999  3.19816E-02  5.15097E+02 -1.00000E+00  9.84864E-02
      21    -1     0     0   502   501  0.000000000E+00  0.000000000E+00  1.493216306E+03  1.493216306E+03  0.000000000E+00  0.00000E+00  9.000E+00
      21    -1     0     0   501   511  0.000000000E+00  0.000000000E+00 -1.603121165E+03  1.603121165E+03  0.000000000E+00  0.00000E+00  9.000E+00
      25     1     1     2     0     0  8.479296723E+02 -1.925846495E+02  1.070822130E+03  1.385048234E+03  1.250000000E+02  0.00000E+00  9.000E+00
      25     1     1     2     0     0 -5.925378748E+02 -2.547408335E+02 -3.793161737E+02  7.586170213E+02  1.250000000E+02  0.00000E+00  9.000E+00
      21     1     1     2   502   511 -2.553917974E+02  4.473254830E+02 -8.014108146E+02  9.526722163E+02  0.000000000E+00  0.00000E+00  9.000E+00
#rwgt            2          11   1.7277499073044009E-003           7      286112           0
</event>
<event>
      5   9999  3.19816E-02  7.20281E+01 -1.00000E+00  1.30596E-01
      21    -1     0     0   502   512  0.000000000E+00  0.000000000E+00  1.631956961E+03  1.631956961E+03  0.000000000E+00  0.00000E+00  9.000E+00
      21    -1     0     0   501   502  0.000000000E+00  0.000000000E+00 -2.745379775E+02  2.745379775E+02  0.000000000E+00  0.00000E+00  9.000E+00
      25     1     1     2     0     0 -5.010580682E+02 -1.945291581E+02  2.121529820E+02  5.912145709E+02  1.250000000E+02  0.00000E+00  9.000E+00
      25     1     1     2     0     0  4.900276259E+02  2.657076458E+02  9.689365000E+02  1.124806903E+03  1.250000000E+02  0.00000E+00  9.000E+00
      21     1     1     2   501   512  1.103044226E+01 -7.117848773E+01  1.763295016E+02  1.904734651E+02  3.814697266E-06  0.00000E+00  9.000E+00
#rwgt            1           1   2.3807924938148255E-002           7      286132           0
</event>
<event>
      5   9999  3.19816E-02  1.56617E+02 -1.00000E+00  1.15655E-01
      21    -1     0     0   502   511  0.000000000E+00  0.000000000E+00  7.525323552E+02  7.525323552E+02  0.000000000E+00  0.00000E+00  9.000E+00
      21    -1     0     0   501   502  0.000000000E+00  0.000000000E+00 -2.201396143E+03  2.201396143E+03  0.000000000E+00  0.00000E+00  9.000E+00
      25     1     1     2     0     0 -4.466901208E+02 -8.243957912E+02 -1.349517268E+03  1.648023769E+03  1.250000000E+02  0.00000E+00  9.000E+00
      25     1     1     2     0     0  5.808628902E+02  9.051827861E+02 -2.240517195E+02  1.105704186E+03  1.250000000E+02  0.00000E+00  9.000E+00
      21     1     1     2   501   511 -1.341727694E+02 -8.078699492E+01  1.247052003E+02  2.002005434E+02  5.394796609E-06  0.00000E+00  9.000E+00
#rwgt            1           1   2.9547845043770931E-002           7      286196           0
</event>
<event>
      5   9999  3.19816E-02  7.35077E+01 -1.00000E+00  1.30154E-01
      21    -1     0     0   502   501  0.000000000E+00  0.000000000E+00  6.268380625E+02  6.268380625E+02  0.000000000E+00  0.00000E+00  9.000E+00
      21    -1     0     0   501   512  0.000000000E+00  0.000000000E+00 -2.639934873E+02  2.639934873E+02  0.000000000E+00  0.00000E+00  9.000E+00
      25     1     1     2     0     0 -2.068525587E+02  2.054767575E+02  2.879334654E+02  4.284149383E+02  1.250000000E+02  0.00000E+00  9.000E+00
      25     1     1     2     0     0  1.480050823E+02 -2.495262757E+02  1.565468533E+02  3.525631630E+02  1.250000000E+02  0.00000E+00  9.000E+00
      21     1     1     2   502   512  5.884747633E+01  4.404951815E+01 -8.163574345E+01  1.098534484E+02  1.651812370E-06  0.00000E+00  9.000E+00
#rwgt            1           1   2.7100857345448346E-002           7      286292           0
</event>
<event>
      5   9999  3.19816E-02  7.72957E+01 -1.00000E+00  1.29077E-01
      21    -1     0     0   502   511  0.000000000E+00  0.000000000E+00  2.849423554E+02  2.849423554E+02  0.000000000E+00  0.00000E+00  9.000E+00
      21    -1     0     0   501   502  0.000000000E+00  0.000000000E+00 -3.040605867E+02  3.040605867E+02  0.000000000E+00  0.00000E+00  9.000E+00
      25     1     1     2     0     0  1.044917708E+02 -4.466773869E+01  1.461084080E+02  2.233526447E+02  1.250000000E+02  0.00000E+00  9.000E+00
      25     1     1     2     0     0 -1.353807118E+02 -2.618769166E+01 -2.065254580E+02  2.780134837E+02  1.250000000E+02  0.00000E+00  9.000E+00
      21     1     1     2   501   511  3.088894103E+01  7.085543035E+01  4.129881864E+01  8.763681366E+01  1.966049969E-06  0.00000E+00  9.000E+00
#rwgt            1           1   2.8551407530742298E-002           7      286381           0
</event>
<event>
      5   9999  3.19816E-02  1.50692E+02 -1.00000E+00  1.16314E-01
      21    -1     0     0   502   501  0.000000000E+00  0.000000000E+00  4.662479201E+02  4.662479201E+02  0.000000000E+00  0.00000E+00  9.000E+00
       2    -1     0     0   501     0  0.000000000E+00  0.000000000E+00 -2.295363422E+03  2.295363422E+03  0.000000000E+00  0.00000E+00  9.000E+00
      25     1     1     2     0     0 -2.543873768E+02  3.311676258E+02  1.639697124E+01  4.362095764E+02  1.250000000E+02  0.00000E+00  9.000E+00
      25     1     1     2     0     0  1.582995921E+02 -4.472505655E+02 -1.724236600E+01  4.909318979E+02  1.250000000E+02  0.00000E+00  9.000E+00
       2     1     1     2   502     0  9.608778471E+01  1.160829397E+02 -1.828270107E+03  1.834469868E+03  2.157918644E-05  0.00000E+00  9.000E+00
#rwgt            1           1   2.9058261958323235E-002           7      286520           0
</event>
<event>
      5   9999  3.19816E-02  3.11053E+01 -1.00000E+00  1.51956E-01
      21    -1     0     0   511   501  0.000000000E+00  0.000000000E+00  6.229156242E+02  6.229156242E+02  0.000000000E+00  0.00000E+00  9.000E+00
      21    -1     0     0   501   502  0.000000000E+00  0.000000000E+00 -9.295012505E+01  9.295012505E+01  0.000000000E+00  0.00000E+00  9.000E+00
      25     1     1     2     0     0  1.559410228E+02 -9.573951582E+01  1.481793052E+02  2.665816272E+02  1.250000000E+02  0.00000E+00  9.000E+00
      25     1     1     2     0     0 -1.478905928E+02  6.569402644E+01  3.456470829E+02  4.016020897E+02  1.250000000E+02  0.00000E+00  9.000E+00
      21     1     1     2   511   502 -8.050430058E+00  3.004548938E+01  3.613911097E+01  4.768203223E+01  6.743495762E-07  0.00000E+00  9.000E+00
#rwgt            1           1   2.7450452276304906E-002           7      286580           0
</event>
<event>
      5   9999  4.15118E-02  1.82502E+02 -1.00000E+00  1.13115E-01
       1    -1     0     0   502     0  0.000000000E+00  0.000000000E+00  1.169505452E+03  1.169505452E+03  0.000000000E+00  0.00000E+00  9.000E+00
      21    -1     0     0   501   502  0.000000000E+00  0.000000000E+00 -5.848814794E+02  5.848814794E+02  0.000000000E+00  0.00000E+00  9.000E+00
      25     1     1     2     0     0 -3.202876314E+01  1.555302478E+02 -4.725712848E+02  5.139689863E+02  1.250000000E+02  0.00000E+00  9.000E+00
      25     1     1     2     0     0  8.395967849E+00  2.543506496E+01 -3.542954643E+01  1.326562760E+02  1.250000000E+02  0.00000E+00  9.000E+00
       1     1     1     2   501     0  2.363279529E+01 -1.809653128E+02  1.092624804E+03  1.107761669E+03  2.642899792E-05  0.00000E+00  9.000E+00
#rwgt            2          17   2.6334728758712941E-002           7      286878           0
</event>
<event>
      5   9999  3.19816E-02  6.45955E+01 -1.00000E+00  1.33013E-01
       1    -1     0     0   502     0  0.000000000E+00  0.000000000E+00  1.124854218E+03  1.124854218E+03  0.000000000E+00  0.00000E+00  9.000E+00
      21    -1     0     0   501   502  0.000000000E+00  0.000000000E+00 -5.348742503E+02  5.348742503E+02  0.000000000E+00  0.00000E+00  9.000E+00
      25     1     1     2     0     0  1.575965605E+02  5.355260647E+02  1.598384518E+02  5.939681579E+02  1.250000000E+02  0.00000E+00  9.000E+00
      25     1     1     2     0     0 -2.144234007E+02 -5.048130609E+02 -6.513679618E+01  5.662874036E+02  1.250000000E+02  0.00000E+00  9.000E+00
       1     1     1     2   501     0  5.682684019E+01 -3.071300376E+01  4.952783116E+02  4.994729065E+02  0.000000000E+00  0.00000E+00  9.000E+00
#rwgt            1           1   2.3460188593892910E-002           7      286927           0
</event>
<event>
      5   9999  3.19816E-02  1.12509E+02 -1.00000E+00  1.21569E-01
      21    -1     0     0   502   511  0.000000000E+00  0.000000000E+00  7.912861069E+02  7.912861069E+02  0.000000000E+00  0.00000E+00  9.000E+00
      21    -1     0     0   501   502  0.000000000E+00  0.000000000E+00 -4.642272190E+02  4.642272190E+02  0.000000000E+00  0.00000E+00  9.000E+00
      25     1     1     2     0     0 -1.453324188E+02 -1.906563226E+02  6.352102896E+02  6.903538639E+02  1.250000000E+02  0.00000E+00  9.000E+00
      25     1     1     2     0     0  8.172635693E+01  9.785192699E+01 -3.880569737E+02  4.271620440E+02  1.250000000E+02  0.00000E+00  9.000E+00
      21     1     1     2   501   511  6.360606189E+01  9.280439562E+01  7.990557194E+01  1.379974180E+02  1.651812370E-06  0.00000E+00  9.000E+00
#rwgt            2          11   5.3591347904302757E-003           7      287278           0
</event>
<event>
      5   9999  3.19816E-02  2.33281E+01 -1.00000E+00  1.61036E-01
      21    -1     0     0   502   501  0.000000000E+00  0.000000000E+00  1.272901771E+02  1.272901771E+02  0.000000000E+00  0.00000E+00  9.000E+00
      21    -1     0     0   501   512  0.000000000E+00  0.000000000E+00 -8.315985584E+02  8.315985584E+02  0.000000000E+00  0.00000E+00  9.000E+00
      25     1     1     2     0     0 -2.147639364E+02 -1.960282136E+02 -2.849301217E+02  4.258647474E+02  1.250000000E+02  0.00000E+00  9.000E+00
      25     1     1     2     0     0  2.035906125E+02  1.755499679E+02 -3.440242779E+02  4.541416437E+02  1.250000000E+02  0.00000E+00  9.000E+00
      21     1     1     2   502   512  1.117332387E+01  2.047824570E+01 -7.535398164E+01  7.888234443E+01  0.000000000E+00  0.00000E+00  9.000E+00
#rwgt            1           1   2.6808556807937148E-002           7      287298           0
</event>
<event>
      5   9999  3.19816E-02  3.80982E+02 -1.00000E+00  1.02326E-01
       4    -1     0     0   502     0  0.000000000E+00  0.000000000E+00  4.187418321E+02  4.187418321E+02  0.000000000E+00  0.00000E+00  9.000E+00
      21    -1     0     0   501   502  0.000000000E+00  0.000000000E+00 -9.896686439E+02  9.896686439E+02  0.000000000E+00  0.00000E+00  9.000E+00
      25     1     1     2     0     0  3.317559752E+02 -2.482886289E+02  1.251761045E+01  4.330022644E+02  1.250000000E+02  0.00000E+00  9.000E+00
      25     1     1     2     0     0  4.584917674E+01  1.976754183E+02 -5.421136733E+02  5.921908078E+02  1.250000000E+02  0.00000E+00  9.000E+00
       4     1     1     2   501     0 -3.776051520E+02  5.061321067E+01 -4.133074891E+01  3.832174040E+02  6.289914111E-06  0.00000E+00  9.000E+00
#rwgt            2          20   2.8999062982615547E-005           7      287478           0
</event>
<event>
      5   9999  3.19816E-02  1.58081E+02 -1.00000E+00  1.15498E-01
      21    -1     0     0   502   501  0.000000000E+00  0.000000000E+00  9.427409392E+02  9.427409392E+02  0.000000000E+00  0.00000E+00  9.000E+00
      -2    -1     0     0     0   502  0.000000000E+00  0.000000000E+00 -7.664235669E+01  7.664235669E+01  0.000000000E+00  0.00000E+00  9.000E+00
      25     1     1     2     0     0 -6.889990127E+00 -1.398315160E+02  2.770760293E+02  3.346587080E+02  1.250000000E+02  0.00000E+00  9.000E+00
      25     1     1     2     0     0  1.135290013E+02  2.313661659E+01  4.201688082E+02  4.534213984E+02  1.250000000E+02  0.00000E+00  9.000E+00
      -2     1     1     2     0   501 -1.066390112E+02  1.166948994E+02  1.688537450E+02  2.313031895E+02  3.303624740E-06  0.00000E+00  9.000E+00
#rwgt            1           1   2.9965230064774692E-002           7      287512           0
</event>
<event>
      5   9999  3.19816E-02  8.79260E+01 -1.00000E+00  1.26395E-01
      21    -1     0     0   502   501  0.000000000E+00  0.000000000E+00  2.598048820E+03  2.598048820E+03  0.000000000E+00  0.00000E+00  9.000E+00
      21    -1     0     0   501   511  0.000000000E+00  0.000000000E+00 -1.661912860E+02  1.661912860E+02  0.000000000E+00  0.00000E+00  9.000E+00
      25     1     1     2     0     0 -4.128867790E+02  8.365069877E+01  2.721365577E+02  5.168715872E+02  1.250000000E+02  0.00000E+00  9.000E+00
      25     1     1     2     0     0  4.735968697E+02 -1.472531055E+02  2.006978153E+03  2.071126210E+03  1.250000000E+02  0.00000E+00  9.000E+00
      21     1     1     2   502   511 -6.071009070E+01  6.360240672E+01  1.527428232E+02  1.762423085E+02  2.697398305E-06  0.00000E+00  9.000E+00
#rwgt            1           1   3.2360982280183817E-002           7      287557           0
</event>
<event>
      5   9999  3.19816E-02  1.48008E+02 -1.00000E+00  1.16624E-01
      21    -1     0     0   502   501  0.000000000E+00  0.000000000E+00  1.302738582E+03  1.302738582E+03  0.000000000E+00  0.00000E+00  9.000E+00
      21    -1     0     0   501   512  0.000000000E+00  0.000000000E+00 -1.388196967E+03  1.388196967E+03  0.000000000E+00  0.00000E+00  9.000E+00
      25     1     1     2     0     0  2.411176529E+02  5.768466881E+02  5.906554860E+02  8.691310185E+02  1.250000000E+02  0.00000E+00  9.000E+00
      25     1     1     2     0     0 -1.813672721E+02 -7.122579855E+02  3.224844892E+02  8.122972185E+02  1.250000000E+02  0.00000E+00  9.000E+00
      21     1     1     2   502   512 -5.975038081E+01  1.354112974E+02 -9.985983608E+02  1.009507312E+03  1.525878906E-05  0.00000E+00  9.000E+00
#rwgt            1           1   2.7722617309682070E-002           7      287651           0
</event>
<event>
      5   9999  3.19816E-02  2.00064E+01 -1.00000E+00  1.66358E-01
      21    -1     0     0   502   501  0.000000000E+00  0.000000000E+00  1.465596885E+03  1.465596885E+03  0.000000000E+00  0.00000E+00  9.000E+00
      21    -1     0     0   501   511  0.000000000E+00  0.000000000E+00 -6.663476297E+02  6.663476297E+02  0.000000000E+00  0.00000E+00  9.000E+00
      25     1     1     2     0     0  1.156541048E+02 -8.161515093E+02  8.439849817E+02  1.186345147E+03  1.250000000E+02  0.00000E+00  9.000E+00
      25     1     1     2     0     0 -1.065175673E+02  7.983532472E+02  8.026068942E+01  8.190120132E+02  1.250000000E+02  0.00000E+00  9.000E+00
      21     1     1     2   502   511 -9.136537545E+00  1.779826215E+01 -1.249964157E+02  1.265873548E+02  1.907348633E-06  0.00000E+00  9.000E+00
#rwgt            1           1   2.2109243109690899E-002           7      287736           0
</event>
<event>
      5   9999  3.19816E-02  6.44316E+02 -1.00000E+00  9.58209E-02
      21    -1     0     0   502   501  0.000000000E+00  0.000000000E+00  8.839529228E+02  8.839529228E+02  0.000000000E+00  0.00000E+00  9.000E+00
       1    -1     0     0   501     0  0.000000000E+00  0.000000000E+00 -1.340881361E+03  1.340881361E+03  0.000000000E+00  0.00000E+00  9.000E+00
      25     1     1     2     0     0  5.792394276E+01  1.598186181E+02  1.673458894E+02  2.693080402E+02  1.250000000E+02  0.00000E+00  9.000E+00
      25     1     1     2     0     0  1.434609283E+01 -8.000687772E+02  2.696391160E+02  8.536077035E+02  1.250000000E+02  0.00000E+00  9.000E+00
       1     1     1     2   502     0 -7.227003559E+01  6.402501591E+02 -8.939134432E+02  1.101918540E+03  1.525878906E-05  0.00000E+00  9.000E+00
#rwgt            2          12   7.3469861580398343E-004           7      288018           0
</event>
<event>
      5   9999  3.19816E-02  4.64920E+01 -1.00000E+00  1.40902E-01
      21    -1     0     0   511   501  0.000000000E+00  0.000000000E+00  1.967125933E+02  1.967125933E+02  0.000000000E+00  0.00000E+00  9.000E+00
      21    -1     0     0   501   502  0.000000000E+00  0.000000000E+00 -1.025351461E+03  1.025351461E+03  0.000000000E+00  0.00000E+00  9.000E+00
      25     1     1     2     0     0 -3.268518150E+02  1.306933396E+02 -3.727585091E+02  5.277184515E+02  1.250000000E+02  0.00000E+00  9.000E+00
      25     1     1     2     0     0  3.710677707E+02 -1.163248294E+02 -4.890788447E+02  6.372172885E+02  1.250000000E+02  0.00000E+00  9.000E+00
      21     1     1     2   511   502 -4.421595573E+01 -1.436851012E+01  3.319848600E+01  5.712831432E+01  4.768371582E-07  0.00000E+00  9.000E+00
#rwgt            1           1   1.6024694370582269E-002           7      288037           0
</event>
<event>
      5   9999  3.19816E-02  6.16421E+01 -1.00000E+00  1.34080E-01
      21    -1     0     0   512   501  0.000000000E+00  0.000000000E+00  5.552735466E+02  5.552735466E+02  0.000000000E+00  0.00000E+00  9.000E+00
      21    -1     0     0   501   502  0.000000000E+00  0.000000000E+00 -3.331049211E+02  3.331049211E+02  0.000000000E+00  0.00000E+00  9.000E+00
      25     1     1     2     0     0  2.316337533E+02 -1.609949324E+02  2.136844338E+02  3.753126712E+02  1.250000000E+02  0.00000E+00  9.000E+00
      25     1     1     2     0     0 -2.102600015E+02  2.188128497E+02 -1.365539662E+02  3.554719639E+02  1.250000000E+02  0.00000E+00  9.000E+00
      21     1     1     2   512   502 -2.137375179E+01 -5.781791736E+01  1.450381579E+02  1.575938326E+02  3.303624740E-06  0.00000E+00  9.000E+00
#rwgt            1           1   2.4777143521203009E-002           7      288115           0
</event>
<event>
      5   9999  3.19816E-02  5.91935E+01 -1.00000E+00  1.35018E-01
      21    -1     0     0   502   501  0.000000000E+00  0.000000000E+00  1.380444646E+03  1.380444646E+03  0.000000000E+00  0.00000E+00  9.000E+00
      21    -1     0     0   501   511  0.000000000E+00  0.000000000E+00 -1.639096966E+02  1.639096966E+02  0.000000000E+00  0.00000E+00  9.000E+00
      25     1     1     2     0     0 -7.480154461E+01 -1.137675631E+02  8.793604279E+01  2.046853124E+02  1.250000000E+02  0.00000E+00  9.000E+00
      25     1     1     2     0     0  8.518997924E+01  1.720423131E+02  1.214184838E+03  1.235607425E+03  1.250000000E+02  0.00000E+00  9.000E+00
      21     1     1     2   502   511 -1.038843463E+01 -5.827475003E+01 -8.558593083E+01  1.040616049E+02  3.814697266E-06  0.00000E+00  9.000E+00
#rwgt            1           1   3.0129026077273909E-002           7      288240           0
</event>
<event>
      5   9999  3.19816E-02  2.88404E+01 -1.00000E+00  1.54238E-01
      21    -1     0     0   502   501  0.000000000E+00  0.000000000E+00  1.335958733E+02  1.335958733E+02  0.000000000E+00  0.00000E+00  9.000E+00
      21    -1     0     0   501   512  0.000000000E+00  0.000000000E+00 -1.689895255E+03  1.689895255E+03  0.000000000E+00  0.00000E+00  9.000E+00
      25     1     1     2     0     0 -1.484790094E+02 -1.827604482E+02 -1.474370966E+03  1.498279728E+03  1.250000000E+02  0.00000E+00  9.000E+00
      25     1     1     2     0     0  1.677344545E+02  1.612895609E+02 -3.004532203E+01  2.658512574E+02  1.250000000E+02  0.00000E+00  9.000E+00
      21     1     1     2   502   512 -1.925544505E+01  2.147088722E+01 -5.188309342E+01  5.936014273E+01  6.743495762E-07  0.00000E+00  9.000E+00
#rwgt            1           1   2.6908357548732869E-002           7      288290           0
</event>
<event>
      5   9999  3.19816E-02  1.92456E+02 -1.00000E+00  1.12259E-01
      21    -1     0     0   502   501  0.000000000E+00  0.000000000E+00  9.973625834E+02  9.973625834E+02  0.000000000E+00  0.00000E+00  9.000E+00
       1    -1     0     0   501     0  0.000000000E+00  0.000000000E+00 -3.540639381E+02  3.540639381E+02  0.000000000E+00  0.00000E+00  9.000E+00
      25     1     1     2     0     0  1.700691793E+01  4.126310107E+02  6.008641606E+02  7.397407152E+02  1.250000000E+02  0.00000E+00  9.000E+00
      25     1     1     2     0     0  6.808510662E+01 -2.400080744E+02 -1.686402208E+02  3.260429138E+02  1.250000000E+02  0.00000E+00  9.000E+00
       1     1     1     2   502     0 -8.509202455E+01 -1.726229362E+02  2.110747055E+02  2.856428925E+02  5.394796609E-06  0.00000E+00  9.000E+00
#rwgt            1           1   2.9064504208524369E-002           7      288445           0
</event>
<event>
      5   9999  3.19816E-02  5.93257E+01 -1.00000E+00  1.34966E-01
      21    -1     0     0   502   501  0.000000000E+00  0.000000000E+00  3.844064645E+02  3.844064645E+02  0.000000000E+00  0.00000E+00  9.000E+00
      21    -1     0     0   511   502  0.000000000E+00  0.000000000E+00 -4.776735738E+02  4.776735738E+02  0.000000000E+00  0.00000E+00  9.000E+00
      25     1     1     2     0     0 -2.640453150E+01  2.339249914E+02  2.711477167E+02  3.802159718E+02  1.250000000E+02  0.00000E+00  9.000E+00
      25     1     1     2     0     0  7.623686807E+00 -1.776505123E+02 -1.624151879E+02  2.713328553E+02  1.250000000E+02  0.00000E+00  9.000E+00
      21     1     1     2   511   501  1.878084469E+01 -5.627447920E+01 -2.019996380E+02  2.105312112E+02  2.697398305E-06  0.00000E+00  9.000E+00
#rwgt            1           1   3.0260959161528475E-002           7      288491           0
</event>
<event>
      5   9999  3.19816E-02  1.49659E+02 -1.00000E+00  1.16433E-01
      21    -1     0     0   512   501  0.000000000E+00  0.000000000E+00  4.859663195E+02  4.859663195E+02  0.000000000E+00  0.00000E+00  9.000E+00
      21    -1     0     0   501   502  0.000000000E+00  0.000000000E+00 -1.782572875E+02  1.782572875E+02  0.000000000E+00  0.00000E+00  9.000E+00
      25     1     1     2     0     0 -3.167503036E+01 -1.146624712E+01 -3.972246949E+01  1.354166052E+02  1.250000000E+02  0.00000E+00  9.000E+00
      25     1     1     2     0     0  1.810717566E+02  2.613644929E+00  1.047834283E+02  2.437178267E+02  1.250000000E+02  0.00000E+00  9.000E+00
      21     1     1     2   512   502 -1.493967263E+02  8.852602196E+00  2.426480731E+02  2.850891752E+02  0.000000000E+00  0.00000E+00  9.000E+00
#rwgt            1           1   2.3541196860244331E-002           7      288612           0
</event>
<event>
      5   9999  3.19816E-02  3.05388E+01 -1.00000E+00  1.52505E-01
      21    -1     0     0   502   511  0.000000000E+00  0.000000000E+00  1.541170625E+03  1.541170625E+03  0.000000000E+00  0.00000E+00  9.000E+00
      21    -1     0     0   501   502  0.000000000E+00  0.000000000E+00 -1.928254357E+02  1.928254357E+02  0.000000000E+00  0.00000E+00  9.000E+00
      25     1     1     2     0     0  4.065749697E+02 -1.013086481E+02  3.051761450E+02  5.332205244E+02  1.250000000E+02  0.00000E+00  9.000E+00
      25     1     1     2     0     0 -4.265989368E+02  7.825097241E+01  5.721125179E+02  7.287301289E+02  1.250000000E+02  0.00000E+00  9.000E+00
      21     1     1     2   501   511  2.002396708E+01  2.305767572E+01  4.710565260E+02  4.720454070E+02  0.000000000E+00  0.00000E+00  9.000E+00
#rwgt            1           1   3.1607800126114326E-002           7      288667           0
</event>
<event>
      5   9999  3.19816E-02  3.60200E+02 -1.00000E+00  1.03074E-01
       4    -1     0     0   502     0  0.000000000E+00  0.000000000E+00  8.313411171E+02  8.313411171E+02  0.000000000E+00  0.00000E+00  9.000E+00
      21    -1     0     0   501   502  0.000000000E+00  0.000000000E+00 -4.100586951E+02  4.100586951E+02  0.000000000E+00  0.00000E+00  9.000E+00
      25     1     1     2     0     0 -1.408749318E+02  3.389042297E+01 -2.589224842E+02  3.219629792E+02  1.250000000E+02  0.00000E+00  9.000E+00
      25     1     1     2     0     0 -2.191707472E+02 -4.441655141E+01  2.447204841E+02  3.542905049E+02  1.250000000E+02  0.00000E+00  9.000E+00
       4     1     1     2   501     0  3.600456790E+02  1.052612843E+01  4.354844221E+02  5.651463282E+02  7.629394531E-06  0.00000E+00  9.000E+00
#rwgt            2          20   4.2348106096613437E-005           7      288795           0
</event>
<event>
      5   9999  3.19816E-02  2.86689E+02 -1.00000E+00  1.06236E-01
      21    -1     0     0   502   501  0.000000000E+00  0.000000000E+00  2.081392555E+03  2.081392555E+03  0.000000000E+00  0.00000E+00  9.000E+00
      21    -1     0     0   511   502  0.000000000E+00  0.000000000E+00 -5.164073066E+02  5.164073066E+02  0.000000000E+00  0.00000E+00  9.000E+00
      25     1     1     2     0     0  6.255882631E+01  6.244860379E+02  1.667557153E+03  1.786132211E+03  1.250000000E+02  0.00000E+00  9.000E+00
      25     1     1     2     0     0 -2.687786904E+02 -4.253281354E+02 -6.993562136E+01  5.231271340E+02  1.250000000E+02  0.00000E+00  9.000E+00
      21     1     1     2   511   501  2.062198641E+02 -1.991579025E+02 -3.263628334E+01  2.885405161E+02  6.106495130E-06  0.00000E+00  9.000E+00
#rwgt            1           1   3.5713057377556971E-002           7      288814           0
</event>
<event>
      5   9999  3.19816E-02  1.73251E+02 -1.00000E+00  1.13966E-01
      21    -1     0     0   512   501  0.000000000E+00  0.000000000E+00  1.258031467E+03  1.258031467E+03  0.000000000E+00  0.00000E+00  9.000E+00
      21    -1     0     0   501   502  0.000000000E+00  0.000000000E+00 -3.690014096E+02  3.690014096E+02  0.000000000E+00  0.00000E+00  9.000E+00
      25     1     1     2     0     0  5.777471191E+02 -1.519998963E+02  6.612062584E+02  8.998413295E+02  1.250000000E+02  0.00000E+00  9.000E+00
      25     1     1     2     0     0 -4.090704098E+02  1.915462884E+02  3.802775530E+01  4.702123892E+02  1.250000000E+02  0.00000E+00  9.000E+00
      21     1     1     2   512   502 -1.686767093E+02 -3.954639219E+01  1.897960439E+02  2.569791580E+02  3.814697266E-06  0.00000E+00  9.000E+00
#rwgt            1           1   2.2495797683475316E-002           7      288893           0
</event>
<event>
      5   9999  3.19816E-02  4.47897E+01 -1.00000E+00  1.41858E-01
      21    -1     0     0   502   501  0.000000000E+00  0.000000000E+00  4.884459851E+02  4.884459851E+02  0.000000000E+00  0.00000E+00  9.000E+00
      21    -1     0     0   501   511  0.000000000E+00  0.000000000E+00 -2.757175774E+02  2.757175774E+02  0.000000000E+00  0.00000E+00  9.000E+00
      25     1     1     2     0     0  2.214600696E+02  1.250545447E+02  1.442293040E+02  3.179784485E+02  1.250000000E+02  0.00000E+00  9.000E+00
      25     1     1     2     0     0 -2.604932668E+02 -1.470210357E+02  1.468810178E+02  3.559086405E+02  1.250000000E+02  0.00000E+00  9.000E+00
      21     1     1     2   502   511  3.903319717E+01  2.196649097E+01 -7.838191408E+01  9.027647347E+01  1.348699152E-06  0.00000E+00  9.000E+00
#rwgt            1           1   3.0530868170246101E-002           7      288951           0
</event>
<event>
      5   9999  3.19816E-02  1.22151E+02 -1.00000E+00  1.20042E-01
      21    -1     0     0   502   501  0.000000000E+00  0.000000000E+00  7.584003897E+02  7.584003897E+02  0.000000000E+00  0.00000E+00  9.000E+00
      21    -1     0     0   512   502  0.000000000E+00  0.000000000E+00 -7.756704102E+02  7.756704102E+02  0.000000000E+00  0.00000E+00  9.000E+00
      25     1     1     2     0     0  2.658642616E+02 -2.837791034E+02  2.292085215E+02  4.683758442E+02  1.250000000E+02  0.00000E+00  9.000E+00
      25     1     1     2     0     0 -3.876740800E+02  2.929009476E+02  2.456628728E+02  5.586209847E+02  1.250000000E+02  0.00000E+00  9.000E+00
      21     1     1     2   512   501  1.218098184E+02 -9.121844185E+00 -4.921414148E+02  5.070739710E+02  0.000000000E+00  0.00000E+00  9.000E+00
#rwgt            1           1   2.7565421204936824E-002           7      289055           0
</event>
<event>
      5   9999  3.19816E-02  7.75880E+01 -1.00000E+00  1.28996E-01
       2    -1     0     0   502     0  0.000000000E+00  0.000000000E+00  3.073869667E+03  3.073869667E+03  0.000000000E+00  0.00000E+00  9.000E+00
      21    -1     0     0   501   502  0.000000000E+00  0.000000000E+00 -3.076448507E+02  3.076448507E+02  0.000000000E+00  0.00000E+00  9.000E+00
      25     1     1     2     0     0  1.132264899E+02 -1.494865066E+02  2.960467001E+02  3.720686795E+02  1.250000000E+02  0.00000E+00  9.000E+00
      25     1     1     2     0     0 -1.894391326E+02  1.349425516E+02 -2.042913240E+02  3.338511977E+02  1.250000000E+02  0.00000E+00  9.000E+00
       2     1     1     2   501     0  7.621264270E+01  1.454395496E+01  2.674469440E+03  2.675594640E+03  3.051757812E-05  0.00000E+00  9.000E+00
#rwgt            1           1   2.5721154441860530E-002           7      289135           0
</event>
<event>
      5   9999  3.19816E-02  2.81921E+01 -1.00000E+00  1.54939E-01
      21    -1     0     0   511   501  0.000000000E+00  0.000000000E+00  6.055798059E+02  6.055798059E+02  0.000000000E+00  0.00000E+00  9.000E+00
      21    -1     0     0   501   502  0.000000000E+00  0.000000000E+00 -5.490479683E+02  5.490479683E+02  0.000000000E+00  0.00000E+00  9.000E+00
      25     1     1     2     0     0 -1.971832413E+02 -1.138916999E+02 -2.802646682E+02  3.821332676E+02  1.250000000E+02  0.00000E+00  9.000E+00
      25     1     1     2     0     0  2.024206714E+02  8.619033184E+01 -1.438189539E+02  2.910529042E+02  1.250000000E+02  0.00000E+00  9.000E+00
      21     1     1     2   511   502 -5.237430148E+00  2.770136809E+01  4.806154597E+02  4.814416024E+02  7.629394531E-06  0.00000E+00  9.000E+00
#rwgt            1           1   2.6700114407582787E-002           7      289207           0
</event>
<event>
      5   9999  3.19816E-02  3.69666E+01 -1.00000E+00  1.46997E-01
       1    -1     0     0   502     0  0.000000000E+00  0.000000000E+00  3.294550995E+03  3.294550995E+03  0.000000000E+00  0.00000E+00  9.000E+00
      21    -1     0     0   501   502  0.000000000E+00  0.000000000E+00 -1.481794037E+02  1.481794037E+02  0.000000000E+00  0.00000E+00  9.000E+00
      25     1     1     2     0     0 -1.956711466E+02  2.751096529E+02  1.960241272E+02  4.099060590E+02  1.250000000E+02  0.00000E+00  9.000E+00
      25     1     1     2     0     0  2.148652501E+02 -3.067026488E+02  9.076383845E+02  9.897807977E+02  1.250000000E+02  0.00000E+00  9.000E+00
       1     1     1     2   501     0 -1.919410356E+01  3.159299582E+01  2.042709079E+03  2.043043542E+03  2.157918644E-05  0.00000E+00  9.000E+00
#rwgt            1           1   2.8500994757197883E-002           7      289353           0
</event>
<event>
      5   9999  3.19816E-02  2.23225E+02 -1.00000E+00  1.09938E-01
      21    -1     0     0   502   501  0.000000000E+00  0.000000000E+00  1.583743237E+03  1.583743237E+03  0.000000000E+00  0.00000E+00  9.000E+00
       3    -1     0     0   501     0  0.000000000E+00  0.000000000E+00 -3.237451989E+02  3.237451989E+02  0.000000000E+00  0.00000E+00  9.000E+00
      25     1     1     2     0     0 -9.516995533E+00 -3.514744829E+02  1.699823795E+02  4.100535266E+02  1.250000000E+02  0.00000E+00  9.000E+00
      25     1     1     2     0     0  2.291574649E+02  3.913186803E+02  1.169441309E+03  1.260500467E+03  1.250000000E+02  0.00000E+00  9.000E+00
       3     1     1     2   502     0 -2.196404694E+02 -3.984419741E+01 -7.942565041E+01  2.369344420E+02  1.348699152E-06  0.00000E+00  9.000E+00
#rwgt            1           1   3.0512622994891624E-002           7      289480           0
</event>
<event>
      5   9999  3.19816E-02  3.05538E+02 -1.00000E+00  1.05335E-01
      21    -1     0     0   502   501  0.000000000E+00  0.000000000E+00  7.127191609E+02  7.127191609E+02  0.000000000E+00  0.00000E+00  9.000E+00
       1    -1     0     0   501     0  0.000000000E+00  0.000000000E+00 -2.860273920E+03  2.860273920E+03  0.000000000E+00  0.00000E+00  9.000E+00
      25     1     1     2     0     0  9.349633334E+01  3.209899540E+02  1.518945413E+02  3.879085802E+02  1.250000000E+02  0.00000E+00  9.000E+00
      25     1     1     2     0     0  1.634963378E+02 -4.862426235E+02  2.731026938E+02  5.944518675E+02  1.250000000E+02  0.00000E+00  9.000E+00
       1     1     1     2   502     0 -2.569926711E+02  1.652526695E+02 -2.572551994E+03  2.590632633E+03  0.000000000E+00  0.00000E+00  9.000E+00
#rwgt            1           1   1.7491795335649703E-002           7      289536           0
</event>
<event>
      5   9999  3.19816E-02  7.46280E+01 -1.00000E+00  1.29828E-01
      21    -1     0     0   502   501  0.000000000E+00  0.000000000E+00  3.465154109E+02  3.465154109E+02  0.000000000E+00  0.00000E+00  9.000E+00
      21    -1     0     0   511   502  0.000000000E+00  0.000000000E+00 -4.130598961E+02  4.130598961E+02  0.000000000E+00  0.00000E+00  9.000E+00
      25     1     1     2     0     0 -8.863833501E+01 -1.893835859E+02 -1.014245264E+02  2.638841253E+02  1.250000000E+02  0.00000E+00  9.000E+00
      25     1     1     2     0     0  1.465573937E+01  1.795900093E+02  2.110544856E+02  3.043622151E+02  1.250000000E+02  0.00000E+00  9.000E+00
      21     1     1     2   511   501  7.398259564E+01  9.793576641E+00 -1.761744443E+02  1.913289665E+02  1.907348633E-06  0.00000E+00  9.000E+00
#rwgt            1           1   2.6705724628165544E-002           7      289573           0
</event>
<event>
      5   9999  3.19816E-02  1.24402E+02 -1.00000E+00  1.19708E-01
      21    -1     0     0   502   501  0.000000000E+00  0.000000000E+00  2.707619949E+02  2.707619949E+02  0.000000000E+00  0.00000E+00  9.000E+00
      21    -1     0     0   501   512  0.000000000E+00  0.000000000E+00 -7.234648306E+02  7.234648306E+02  0.000000000E+00  0.00000E+00  9.000E+00
      25     1     1     2     0     0  5.331774157E+01 -1.443920832E+01 -5.329592160E+02  5.502015978E+02  1.250000000E+02  0.00000E+00  9.000E+00
      25     1     1     2     0     0  5.577393368E+01  7.422978583E+01  2.118622616E+02  2.629285277E+02  1.250000000E+02  0.00000E+00  9.000E+00
      21     1     1     2   502   512 -1.090916752E+02 -5.979057751E+01 -1.316058813E+02  1.810967000E+02  0.000000000E+00  0.00000E+00  9.000E+00
#rwgt            1           1   2.8627579807187796E-002           7      289619           0
</event>
<event>
      5   9999  3.19816E-02  6.70054E+01 -1.00000E+00  1.32190E-01
      21    -1     0     0   502   501  0.000000000E+00  0.000000000E+00  5.114797292E+02  5.114797292E+02  0.000000000E+00  0.00000E+00  9.000E+00
       2    -1     0     0   501     0  0.000000000E+00  0.000000000E+00 -6.795558163E+02  6.795558163E+02  0.000000000E+00  0.00000E+00  9.000E+00
      25     1     1     2     0     0  7.650905088E+01  7.058136166E+00  3.305637792E+02  3.616640212E+02  1.250000000E+02  0.00000E+00  9.000E+00
      25     1     1     2     0     0 -1.431232724E+02 -1.428826150E+01  1.080032874E+02  2.190391189E+02  1.250000000E+02  0.00000E+00  9.000E+00
       2     1     1     2   502     0  6.661422150E+01  7.230125333E+00 -6.066431536E+02  6.103324054E+02  0.000000000E+00  0.00000E+00  9.000E+00
#rwgt            1           1   2.8589650286606393E-002           7      289685           0
</event>
<event>
      5   9999  3.19816E-02  3.48766E+01 -1.00000E+00  1.48631E-01
      21    -1     0     0   502   501  0.000000000E+00  0.000000000E+00  5.744004926E+01  5.744004926E+01  0.000000000E+00  0.00000E+00  9.000E+00
       2    -1     0     0   501     0  0.000000000E+00  0.000000000E+00 -3.151687177E+03  3.151687177E+03  0.000000000E+00  0.00000E+00  9.000E+00
      25     1     1     2     0     0  1.137762344E+02  1.609284589E+01 -9.916267249E+02  1.006057937E+03  1.250000000E+02  0.00000E+00  9.000E+00
      25     1     1     2     0     0 -1.048515574E+02  1.762253141E+01 -8.437483410E+01  1.845223979E+02  1.250000000E+02  0.00000E+00  9.000E+00
       2     1     1     2   502     0 -8.924676976E+00 -3.371537730E+01 -2.018245569E+03  2.018546891E+03  2.157918644E-05  0.00000E+00  9.000E+00
#rwgt            1           1   3.1948251554559264E-002           7      289755           0
</event>
<event>
      5   9999  3.19816E-02  7.52459E+01 -1.00000E+00  1.29651E-01
      21    -1     0     0   502   501  0.000000000E+00  0.000000000E+00  1.328840422E+02  1.328840422E+02  0.000000000E+00  0.00000E+00  9.000E+00
      21    -1     0     0   511   502  0.000000000E+00  0.000000000E+00 -1.263356073E+03  1.263356073E+03  0.000000000E+00  0.00000E+00  9.000E+00
      25     1     1     2     0     0 -2.283776346E+02 -2.010534022E+02 -4.432901157E+02  5.520053815E+02  1.250000000E+02  0.00000E+00  9.000E+00
      25     1     1     2     0     0  3.034827109E+02  2.056552681E+02 -4.416488838E+02  5.874304909E+02  1.250000000E+02  0.00000E+00  9.000E+00
      21     1     1     2   511   501 -7.510507628E+01 -4.601865810E+00 -2.455330316E+02  2.568042430E+02  0.000000000E+00  0.00000E+00  9.000E+00
#rwgt            1           1   2.8815820659015567E-002           7      289842           0
</event>
<event>
      5   9999  3.19816E-02  2.07480E+02 -1.00000E+00  1.11071E-01
      21    -1     0     0   512   501  0.000000000E+00  0.000000000E+00  7.433222444E+02  7.433222444E+02  0.000000000E+00  0.00000E+00  9.000E+00
      21    -1     0     0   501   502  0.000000000E+00  0.000000000E+00 -2.355501985E+02  2.355501985E+02  0.000000000E+00  0.00000E+00  9.000E+00
      25     1     1     2     0     0  2.304717241E+02 -2.114418916E+02  1.118652946E+02  3.549136983E+02  1.250000000E+02  0.00000E+00  9.000E+00
      25     1     1     2     0     0 -3.335710871E+01  1.466840439E+02  2.262434085E+01  1.968902391E+02  1.250000000E+02  0.00000E+00  9.000E+00
      21     1     1     2   512   502 -1.971146153E+02  6.475784773E+01  3.732824105E+02  4.270685055E+02  5.394796609E-06  0.00000E+00  9.000E+00
#rwgt            2          11   2.8750670455368306E-003           7      289938           0
</event>
<event>
      5   9999  3.19816E-02  1.12449E+02 -1.00000E+00  1.21579E-01
      21    -1     0     0   502   511  0.000000000E+00  0.000000000E+00  1.085879516E+03  1.085879516E+03  0.000000000E+00  0.00000E+00  9.000E+00
      21    -1     0     0   501   502  0.000000000E+00  0.000000000E+00 -1.772441507E+02  1.772441507E+02  0.000000000E+00  0.00000E+00  9.000E+00
      25     1     1     2     0     0  2.331651532E+02 -4.162706072E+01  7.825421771E+02  8.271009973E+02  1.250000000E+02  0.00000E+00  9.000E+00
      25     1     1     2     0     0 -1.287305456E+02  8.331772398E+01 -7.010190050E+01  2.098872863E+02  1.250000000E+02  0.00000E+00  9.000E+00
      21     1     1     2   501   511 -1.044346076E+02 -4.169066327E+01  1.961950884E+02  2.261353828E+02  3.814697266E-06  0.00000E+00  9.000E+00
#rwgt            1           1   2.8479025559592520E-002           7      289958           0
</event>
<event>
      5   9999  3.19816E-02  1.37243E+01 -1.00000E+00  1.81099E-01
      21    -1     0     0   502   501  0.000000000E+00  0.000000000E+00  1.228100988E+03  1.228100988E+03  0.000000000E+00  0.00000E+00  9.000E+00
      21    -1     0     0   512   502  0.000000000E+00  0.000000000E+00 -1.082147209E+02  1.082147209E+02  0.000000000E+00  0.00000E+00  9.000E+00
      25     1     1     2     0     0  1.077881869E+02  1.118314229E+02  5.329198688E+01  2.063724697E+02  1.250000000E+02  0.00000E+00  9.000E+00
      25     1     1     2     0     0 -1.211089407E+02 -1.151350552E+02  1.086170373E+03  1.106035503E+03  1.250000000E+02  0.00000E+00  9.000E+00
      21     1     1     2   512   501  1.332075383E+01  3.303632332E+00 -1.957609200E+01  2.390773613E+01  9.536743164E-07  0.00000E+00  9.000E+00
#rwgt            1           1   2.4798395409129190E-002           7      290037           0
</event>
<event>
      5   9999  3.19816E-02  4.91320E+01 -1.00000E+00  1.39511E-01
      21    -1     0     0   502   501  0.000000000E+00  0.000000000E+00  1.038799723E+02  1.038799723E+02  0.000000000E+00  0.00000E+00  9.000E+00
      -2    -1     0     0     0   502  0.000000000E+00  0.000000000E+00 -2.071666837E+03  2.071666837E+03  0.000000000E+00  0.00000E+00  9.000E+00
      25     1     1     2     0     0 -3.103116707E+02 -1.109993321E+02 -4.181428478E+02  5.468844721E+02  1.250000000E+02  0.00000E+00  9.000E+00
      25     1     1     2     0     0  2.708621324E+02  1.402855942E+02 -6.608175384E+02  7.384789515E+02  1.250000000E+02  0.00000E+00  9.000E+00
      -2     1     1     2     0   501  3.944953830E+01 -2.928626209E+01 -8.888264783E+02  8.901833855E+02  0.000000000E+00  0.00000E+00  9.000E+00
#rwgt            1           1   2.4385144157848229E-002           7      290215           0
</event>
<event>
      5   9999  3.19816E-02  5.82014E+01 -1.00000E+00  1.35414E-01
      -5    -1     0     0     0   501  0.000000000E+00  0.000000000E+00  3.652142098E+02  3.652142098E+02  0.000000000E+00  0.00000E+00  9.000E+00
      21    -1     0     0   501   502  0.000000000E+00  0.000000000E+00 -6.572453510E+02  6.572453510E+02  0.000000000E+00  0.00000E+00  9.000E+00
      25     1     1     2     0     0 -7.929506297E+01 -1.244817725E+02 -5.267195918E+02  5.611077856E+02  1.250000000E+02  0.00000E+00  9.000E+00
      25     1     1     2     0     0  1.372639344E+02  1.296793386E+02  7.238519225E+00  2.265734201E+02  1.250000000E+02  0.00000E+00  9.000E+00
      -5     1     1     2     0   502 -5.796887143E+01 -5.197566039E+00  2.274499314E+02  2.347783551E+02  0.000000000E+00  0.00000E+00  9.000E+00
#rwgt            1           1   2.9097385901615484E-002           7      290338           0
</event>
<event>
      5   9999  3.19816E-02  3.11931E+01 -1.00000E+00  1.51873E-01
      21    -1     0     0   502   511  0.000000000E+00  0.000000000E+00  3.836608129E+02  3.836608129E+02  0.000000000E+00  0.00000E+00  9.000E+00
      21    -1     0     0   501   502  0.000000000E+00  0.000000000E+00 -5.565273671E+02  5.565273671E+02  0.000000000E+00  0.00000E+00  9.000E+00
      25     1     1     2     0     0 -5.204606487E+01  2.439874232E+01  1.463946529E+02  2.008991934E+02  1.250000000E+02  0.00000E+00  9.000E+00
      25     1     1     2     0     0  7.946744955E+01 -9.530055309E+00 -5.176261132E+02  5.384864813E+02  1.250000000E+02  0.00000E+00  9.000E+00
      21     1     1     2   501   511 -2.742138468E+01 -1.486868701E+01  1.983649061E+02  2.008025054E+02  0.000000000E+00  0.00000E+00  9.000E+00
#rwgt            1           1   2.9081247660738666E-002           7      290428           0
</event>
<event>
      5   9999  3.19816E-02  1.58225E+02 -1.00000E+00  1.15482E-01
      21    -1     0     0   502   512  0.000000000E+00  0.000000000E+00  5.829800062E+02  5.829800062E+02  0.000000000E+00  0.00000E+00  9.000E+00
      21    -1     0     0   501   502  0.000000000E+00  0.000000000E+00 -5.781739027E+02  5.781739027E+02  0.000000000E+00  0.00000E+00  9.000E+00
      25     1     1     2     0     0 -3.340509216E+01 -5.045967882E+02  2.128711701E+02  5.627370202E+02  1.250000000E+02  0.00000E+00  9.000E+00
      25     1     1     2     0     0  6.610775883E+01  3.497883945E+02 -2.250038427E+02  4.392879306E+02  1.250000000E+02  0.00000E+00  9.000E+00
      21     1     1     2   501   512 -3.270266666E+01  1.548083937E+02  1.693877620E+01  1.591289581E+02  2.172096629E-06  0.00000E+00  9.000E+00
#rwgt            2          11   5.1280267195235657E-003           7      290539           0
</event>
<event>
      5   9999  3.19816E-02  5.05921E+01 -1.00000E+00  1.38784E-01
      21    -1     0     0   511   501  0.000000000E+00  0.000000000E+00  7.354952935E+02  7.354952935E+02  0.000000000E+00  0.00000E+00  9.000E+00
      21    -1     0     0   501   502  0.000000000E+00  0.000000000E+00 -1.386374535E+03  1.386374535E+03  0.000000000E+00  0.00000E+00  9.000E+00
      25     1     1     2     0     0 -3.856577818E+02  1.680670865E+02  5.800557344E+02  7.273706932E+02  1.250000000E+02  0.00000E+00  9.000E+00
      25     1     1     2     0     0  4.056863660E+02 -1.216082727E+02 -1.260700944E+03  1.335800086E+03  1.250000000E+02  0.00000E+00  9.000E+00
      21     1     1     2   511   502 -2.002858418E+01 -4.645881378E+01  2.976596788E+01  5.869904945E+01  5.840038640E-07  0.00000E+00  9.000E+00
#rwgt            1           1   2.7046249495342872E-002           7      290559           0
</event>
<event>
      5   9999  3.19816E-02  2.51451E+01 -1.00000E+00  1.58563E-01
      21    -1     0     0   512   501  0.000000000E+00  0.000000000E+00  8.185002917E+02  8.185002917E+02  0.000000000E+00  0.00000E+00  9.000E+00
      21    -1     0     0   501   502  0.000000000E+00  0.000000000E+00 -7.666965157E+02  7.666965157E+02  0.000000000E+00  0.00000E+00  9.000E+00
      25     1     1     2     0     0  5.278999130E+02 -4.511568797E+02 -2.087497160E+02  7.358140337E+02  1.250000000E+02  0.00000E+00  9.000E+00
      25     1     1     2     0     0 -5.500814020E+02  4.629998913E+02  1.618345938E+02  7.475117952E+02  1.250000000E+02  0.00000E+00  9.000E+00
      21     1     1     2   512   502  2.218148899E+01 -1.184301159E+01  9.871889828E+01  1.018709785E+02  1.348699152E-06  0.00000E+00  9.000E+00
#rwgt            1           1   2.0867865545449400E-002           7      290722           0
</event>
<event>
      5   9999  3.19816E-02  6.98341E+01 -1.00000E+00  1.31273E-01
      21    -1     0     0   502   501  0.000000000E+00  0.000000000E+00  2.197893595E+03  2.197893595E+03  0.000000000E+00  0.00000E+00  9.000E+00
      21    -1     0     0   511   502  0.000000000E+00  0.000000000E+00 -1.547317901E+03  1.547317901E+03  0.000000000E+00  0.00000E+00  9.000E+00
      25     1     1     2     0     0  3.759625069E+01  1.386789685E+03 -3.533971909E+02  1.437050341E+03  1.250000000E+02  0.00000E+00  9.000E+00
      25     1     1     2     0     0 -1.074252380E+02 -1.385942951E+03  1.357978213E+03  1.947333529E+03  1.250000000E+02  0.00000E+00  9.000E+00
      21     1     1     2   511   501  6.982898731E+01 -8.467336737E-01 -3.540053279E+02  3.608276272E+02  7.629394531E-06  0.00000E+00  9.000E+00
#rwgt            1           1   2.9211157607732855E-002           7      290851           0
</event>
<event>
      5   9999  3.19816E-02  5.93913E+02 -1.00000E+00  9.67738E-02
       2    -1     0     0   502     0  0.000000000E+00  0.000000000E+00  9.899310186E+02  9.899310186E+02  0.000000000E+00  0.00000E+00  9.000E+00
      21    -1     0     0   501   502  0.000000000E+00  0.000000000E+00 -2.117341619E+03  2.117341619E+03  0.000000000E+00  0.00000E+00  9.000E+00
      25     1     1     2     0     0  3.324583079E+02  1.784451398E+01 -3.992826207E+02  5.346948330E+02  1.250000000E+02  0.00000E+00  9.000E+00
      25     1     1     2     0     0 -5.633895344E+02  5.293333756E+02 -1.443844815E+03  1.642532934E+03  1.250000000E+02  0.00000E+00  9.000E+00
       2     1     1     2   501     0  2.309312265E+02 -5.471778896E+02  7.157168349E+02  9.300448710E+02  1.525878906E-05  0.00000E+00  9.000E+00
#rwgt            2          18   1.7677373641656658E-003           7      291019           0
</event>
<event>
      5   9999  3.19816E-02  1.14667E+02 -1.00000E+00  1.21212E-01
      21    -1     0     0   502   511  0.000000000E+00  0.000000000E+00  5.503803630E+02  5.503803630E+02  0.000000000E+00  0.00000E+00  9.000E+00
      21    -1     0     0   501   502  0.000000000E+00  0.000000000E+00 -6.537151875E+02  6.537151875E+02  0.000000000E+00  0.00000E+00  9.000E+00
      25     1     1     2     0     0  8.188621547E+01  4.970213969E+02 -1.979287441E+02  5.554605378E+02  1.250000000E+02  0.00000E+00  9.000E+00
      25     1     1     2     0     0 -1.423657853E+02 -3.996011991E+02 -7.030022433E+01  4.477904160E+02  1.250000000E+02  0.00000E+00  9.000E+00
      21     1     1     2   501   511  6.047956988E+01 -9.742019781E+01  1.648941439E+02  2.008445967E+02  1.907348633E-06  0.00000E+00  9.000E+00
#rwgt            1           1   1.8675289367047623E-002           7      291053           0
</event>
<event>
      5   9999  3.19816E-02  3.79135E+00 -1.00000E+00  2.69076E-01
      21    -1     0     0   502   501  0.000000000E+00  0.000000000E+00  3.380872669E+02  3.380872669E+02  0.000000000E+00  0.00000E+00  9.000E+00
      21    -1     0     0   512   502  0.000000000E+00  0.000000000E+00 -3.600789306E+02  3.600789306E+02  0.000000000E+00  0.00000E+00  9.000E+00
      25     1     1     2     0     0  9.102484144E+00 -5.102692884E+01  2.941784683E+02  3.238094716E+02  1.250000000E+02  0.00000E+00  9.000E+00
      25     1     1     2     0     0 -1.229891864E+01  4.898802643E+01 -1.272158299E+02  1.853643912E+02  1.250000000E+02  0.00000E+00  9.000E+00
      21     1     1     2   512   501  3.196434496E+00  2.038902411E+00 -1.889543021E+02  1.889923348E+02  2.697398305E-06  0.00000E+00  9.000E+00
#rwgt            1           1   2.6512166347473328E-002           7      291135           0
</event>
<event>
      5   9999  3.19816E-02  5.92561E+01 -1.00000E+00  1.34994E-01
      21    -1     0     0   511   501  0.000000000E+00  0.000000000E+00  2.853957838E+02  2.853957838E+02  0.000000000E+00  0.00000E+00  9.000E+00
      21    -1     0     0   501   502  0.000000000E+00  0.000000000E+00 -4.456124353E+02  4.456124353E+02  0.000000000E+00  0.00000E+00  9.000E+00
      25     1     1     2     0     0  2.020961045E+02  2.033023633E+02  5.389865640E+01  3.173401197E+02  1.250000000E+02  0.00000E+00  9.000E+00
      25     1     1     2     0     0 -2.039894460E+02 -1.440765225E+02 -2.179978932E+02  3.542849416E+02  1.250000000E+02  0.00000E+00  9.000E+00
      21     1     1     2   511   502  1.893341546E+00 -5.922584085E+01  3.882585332E+00  5.938315784E+01  1.089314633E-06  0.00000E+00  9.000E+00
#rwgt            1           1   2.9032515629317281E-002           7      291502           0
</event>
<event>
      5   9999  3.19816E-02  3.32480E+02 -1.00000E+00  1.04161E-01
      21    -1     0     0   502   501  0.000000000E+00  0.000000000E+00  6.568973333E+01  6.568973333E+01  0.000000000E+00  0.00000E+00  9.000E+00
       2    -1     0     0   501     0  0.000000000E+00  0.000000000E+00 -3.602004293E+03  3.602004293E+03  0.000000000E+00  0.00000E+00  9.000E+00
      25     1     1     2     0     0  9.300230678E+01  5.617611143E+01 -4.063194472E+02  4.387774809E+02  1.250000000E+02  0.00000E+00  9.000E+00
      25     1     1     2     0     0 -3.839105670E+02 -2.171588850E+02 -1.694431766E+03  1.755354470E+03  1.250000000E+02  0.00000E+00  9.000E+00
       2     1     1     2   502     0  2.909082602E+02  1.609827736E+02 -1.435563347E+03  1.473562076E+03  1.525878906E-05  0.00000E+00  9.000E+00
#rwgt            1           1   2.7245888667795492E-002           7      291568           0
</event>
<event>
      5   9999  3.19816E-02  2.01851E+01 -1.00000E+00  1.66040E-01
      21    -1     0     0   502   501  0.000000000E+00  0.000000000E+00  7.011930999E+02  7.011930999E+02  0.000000000E+00  0.00000E+00  9.000E+00
      21    -1     0     0   501   511  0.000000000E+00  0.000000000E+00 -2.416651560E+02  2.416651560E+02  0.000000000E+00  0.00000E+00  9.000E+00
      25     1     1     2     0     0 -1.707231358E+02 -2.718919809E+02  4.723833619E+02  5.846731386E+02  1.250000000E+02  0.00000E+00  9.000E+00
      25     1     1     2     0     0  1.612468595E+02  2.540695785E+02  1.211922950E+01  3.260732680E+02  1.250000000E+02  0.00000E+00  9.000E+00
      21     1     1     2   502   511  9.476276313E+00  1.782240243E+01 -2.497464754E+01  3.211184923E+01  3.371747881E-07  0.00000E+00  9.000E+00
#rwgt            1           1   3.5342678195335250E-002           7      291597           0
</event>
<event>
      5   9999  3.19816E-02  7.38627E+01 -1.00000E+00  1.30050E-01
       2    -1     0     0   502     0  0.000000000E+00  0.000000000E+00  1.758543182E+03  1.758543182E+03  0.000000000E+00  0.00000E+00  9.000E+00
      21    -1     0     0   501   502  0.000000000E+00  0.000000000E+00 -2.858714757E+02  2.858714757E+02  0.000000000E+00  0.00000E+00  9.000E+00
      25     1     1     2     0     0  5.854457358E+02  1.881382939E+01  1.003630223E+03  1.168759725E+03  1.250000000E+02  0.00000E+00  9.000E+00
      25     1     1     2     0     0 -5.831855554E+02 -9.264189206E+01  2.660031804E+02  6.595988206E+02  1.250000000E+02  0.00000E+00  9.000E+00
       2     1     1     2   501     0 -2.260180351E+00  7.382806267E+01  2.030383029E+02  2.160561123E+02  2.697398305E-06  0.00000E+00  9.000E+00
#rwgt            1           1   3.4145680412060814E-002           7      291812           0
</event>
<event>
      5   9999  3.19816E-02  7.20860E+01 -1.00000E+00  1.30578E-01
      21    -1     0     0   511   501  0.000000000E+00  0.000000000E+00  7.725618237E+02  7.725618237E+02  0.000000000E+00  0.00000E+00  9.000E+00
      21    -1     0     0   501   502  0.000000000E+00  0.000000000E+00 -8.268693398E+02  8.268693398E+02  0.000000000E+00  0.00000E+00  9.000E+00
      25     1     1     2     0     0 -3.063146617E+02  2.822542261E+02 -3.175253724E+02  5.384640027E+02  1.250000000E+02  0.00000E+00  9.000E+00
      25     1     1     2     0     0  3.496088583E+02 -3.398910645E+02 -2.364439625E+02  5.561322117E+02  1.250000000E+02  0.00000E+00  9.000E+00
      21     1     1     2   511   502 -4.329419659E+01  5.763683839E+01  4.996618188E+02  5.048349490E+02  0.000000000E+00  0.00000E+00  9.000E+00
#rwgt            1           1   2.9754720401006924E-002           7      291927           0
</event>
<event>
      5   9999  3.19816E-02  6.23279E+01 -1.00000E+00  1.33826E-01
      21    -1     0     0   512   501  0.000000000E+00  0.000000000E+00  1.012401369E+02  1.012401369E+02  0.000000000E+00  0.00000E+00  9.000E+00
      21    -1     0     0   501   502  0.000000000E+00  0.000000000E+00 -1.229085379E+03  1.229085379E+03  0.000000000E+00  0.00000E+00  9.000E+00
      25     1     1     2     0     0 -9.959115120E+01  3.832872882E+01 -3.168664088E+02  3.569549129E+02  1.250000000E+02  0.00000E+00  9.000E+00
      25     1     1     2     0     0  1.579278101E+02 -1.638330325E+01 -8.665907912E+02  8.898394266E+02  1.250000000E+02  0.00000E+00  9.000E+00
      21     1     1     2   512   502 -5.833665886E+01 -2.194542557E+01  5.561195820E+01  8.353117601E+01  1.784161275E-06  0.00000E+00  9.000E+00
#rwgt            1           1   3.2556554269299202E-002           7      292030           0
</event>
<event>
      5   9999  3.19816E-02  1.64718E+01 -1.00000E+00  1.73638E-01
      21    -1     0     0   502   511  0.000000000E+00  0.000000000E+00  4.324696028E+02  4.324696028E+02  0.000000000E+00  0.00000E+00  9.000E+00
      21    -1     0     0   501   502  0.000000000E+00  0.000000000E+00 -6.922624961E+02  6.922624961E+02  0.000000000E+00  0.00000E+00  9.000E+00
      25     1     1     2     0     0  2.903119797E+02 -3.818206136E+02  7.126633536E+01  5.007713222E+02  1.250000000E+02  0.00000E+00  9.000E+00
      25     1     1     2     0     0 -2.781545896E+02  3.707067051E+02 -3.534895926E+02  5.961319728E+02  1.250000000E+02  0.00000E+00  9.000E+00
      21     1     1     2   501   511 -1.215739009E+01  1.111390851E+01  2.243036395E+01  2.782880384E+01  4.768371582E-07  0.00000E+00  9.000E+00
#rwgt            1           1   2.7125469260906056E-002           7      292084           0
</event>
<event>
      5   9999  3.19816E-02  8.53993E+01 -1.00000E+00  1.26991E-01
      21    -1     0     0   502   512  0.000000000E+00  0.000000000E+00  6.396499452E+02  6.396499452E+02  0.000000000E+00  0.00000E+00  9.000E+00
      21    -1     0     0   501   502  0.000000000E+00  0.000000000E+00 -3.177552836E+02  3.177552836E+02  0.000000000E+00  0.00000E+00  9.000E+00
      25     1     1     2     0     0  8.239533198E+01  1.913291966E+02  1.257060910E+02  2.735377004E+02  1.250000000E+02  0.00000E+00  9.000E+00
      25     1     1     2     0     0 -1.276450474E+02 -1.189033381E+02 -1.910486529E+02  2.873253378E+02  1.250000000E+02  0.00000E+00  9.000E+00
      21     1     1     2   501   512  4.524971541E+01 -7.242585848E+01  3.872372235E+02  3.965421907E+02  5.394796609E-06  0.00000E+00  9.000E+00
#rwgt            1           1   2.8499015050637923E-002           7      292444           0
</event>
<event>
      5   9999  3.19816E-02  1.53442E+02 -1.00000E+00  1.16004E-01
      21    -1     0     0   511   501  0.000000000E+00  0.000000000E+00  9.166928522E+02  9.166928522E+02  0.000000000E+00  0.00000E+00  9.000E+00
      21    -1     0     0   501   502  0.000000000E+00  0.000000000E+00 -1.517336617E+02  1.517336617E+02  0.000000000E+00  0.00000E+00  9.000E+00
      25     1     1     2     0     0 -6.294722670E+01 -1.489614003E+02  2.691617589E+01  2.061585134E+02  1.250000000E+02  0.00000E+00  9.000E+00
      25     1     1     2     0     0 -4.573467509E+01  2.572784347E+02  5.266510355E+02  6.010575402E+02  1.250000000E+02  0.00000E+00  9.000E+00
      21     1     1     2   511   502  1.086819018E+02 -1.083170344E+02  2.113919791E+02  2.612104603E+02  2.697398305E-06  0.00000E+00  9.000E+00
#rwgt            2          11   3.2101326485916488E-003           7      292551           0
</event>
<event>
      5   9999  3.19816E-02  3.19496E+02 -1.00000E+00  1.04711E-01
       2    -1     0     0   502     0  0.000000000E+00  0.000000000E+00  8.002421516E+02  8.002421516E+02  0.000000000E+00  0.00000E+00  9.000E+00
      21    -1     0     0   501   502  0.000000000E+00  0.000000000E+00 -1.020309849E+03  1.020309849E+03  0.000000000E+00  0.00000E+00  9.000E+00
      25     1     1     2     0     0  1.292978047E+02  6.281834791E+01 -8.308574890E+02  8.524161157E+02  1.250000000E+02  0.00000E+00  9.000E+00
      25     1     1     2     0     0 -3.914839956E+02  1.197629079E+02  3.961626188E+02  5.832432541E+02  1.250000000E+02  0.00000E+00  9.000E+00
       2     1     1     2   501     0  2.621861909E+02 -1.825812559E+02  2.146271731E+02  3.848926306E+02  5.394796609E-06  0.00000E+00  9.000E+00
#rwgt            1           1   3.1469155668409458E-002           7      292571           0
</event>
<event>
      5   9999  3.19816E-02  1.10125E+01 -1.00000E+00  1.91036E-01
      21    -1     0     0   511   501  0.000000000E+00  0.000000000E+00  1.690285084E+03  1.690285084E+03  0.000000000E+00  0.00000E+00  9.000E+00
      21    -1     0     0   501   502  0.000000000E+00  0.000000000E+00 -4.752483415E+01  4.752483415E+01  0.000000000E+00  0.00000E+00  9.000E+00
      25     1     1     2     0     0 -2.700663979E+00 -4.176599244E+01  5.351843660E+02  5.511796416E+02  1.250000000E+02  0.00000E+00  9.000E+00
      25     1     1     2     0     0 -7.003652078E+00  3.656002702E+01  6.816992265E+01  1.471659780E+02  1.250000000E+02  0.00000E+00  9.000E+00
      21     1     1     2   511   502  9.704316058E+00  5.205965423E+00  1.039405961E+03  1.039464298E+03  2.157918644E-05  0.00000E+00  9.000E+00
#rwgt            1           1   3.2701938906459928E-002           7      292614           0
</event>
<event>
      5   9999  3.19816E-02  7.92269E+01 -1.00000E+00  1.28554E-01
      21    -1     0     0   502   501  0.000000000E+00  0.000000000E+00  4.537494111E+02  4.537494111E+02  0.000000000E+00  0.00000E+00  9.000E+00
      21    -1     0     0   501   512  0.000000000E+00  0.000000000E+00 -3.372432057E+02  3.372432057E+02  0.000000000E+00  0.00000E+00  9.000E+00
      25     1     1     2     0     0  1.962831061E+01  1.412981412E+02 -1.373238877E+02  2.341650816E+02  1.250000000E+02  0.00000E+00  9.000E+00
      25     1     1     2     0     0 -8.418710085E+01 -9.537360359E+01  3.731607321E+02  4.135910107E+02  1.250000000E+02  0.00000E+00  9.000E+00
      21     1     1     2   502   512  6.455879024E+01 -4.592453765E+01 -1.193306389E+02  1.432365245E+02  1.348699152E-06  0.00000E+00  9.000E+00
#rwgt            1           1   2.8140716903004039E-002           7      292873           0
</event>
<event>
      5   9999  3.19816E-02  2.27292E+01 -1.00000E+00  1.61912E-01
      21    -1     0     0   502   501  0.000000000E+00  0.000000000E+00  9.531605533E+01  9.531605533E+01  0.000000000E+00  0.00000E+00  9.000E+00
      21    -1     0     0   511   502  0.000000000E+00  0.000000000E+00 -4.346039217E+02  4.346039217E+02  0.000000000E+00  0.00000E+00  9.000E+00
      25     1     1     2     0     0 -4.384037623E+01  1.158129560E+02 -6.814482177E+01  1.886884631E+02  1.250000000E+02  0.00000E+00  9.000E+00
      25     1     1     2     0     0  6.592616595E+01 -1.104431133E+02 -2.109575482E+02  2.768971430E+02  1.250000000E+02  0.00000E+00  9.000E+00
      21     1     1     2   511   501 -2.208578972E+01 -5.369842745E+00 -6.018549632E+01  6.433437095E+01  1.507891493E-06  0.00000E+00  9.000E+00
#rwgt            1           1   2.6075816828804842E-002           7      292929           0
</event>
<event>
      5   9999  3.19816E-02  4.81149E+01 -1.00000E+00  1.40035E-01
      21    -1     0     0   502   501  0.000000000E+00  0.000000000E+00  1.385439932E+03  1.385439932E+03  0.000000000E+00  0.00000E+00  9.000E+00
      21    -1     0     0   501   512  0.000000000E+00  0.000000000E+00 -2.131529416E+02  2.131529416E+02  0.000000000E+00  0.00000E+00  9.000E+00
      25     1     1     2     0     0 -2.938632739E+02 -3.654565949E+02  8.867818583E+02  1.010901187E+03  1.250000000E+02  0.00000E+00  9.000E+00
      25     1     1     2     0     0  3.095998203E+02  3.199878243E+02  2.381316861E+02  5.201691613E+02  1.250000000E+02  0.00000E+00  9.000E+00
      21     1     1     2   502   512 -1.573654638E+01  4.546877061E+01  4.737344656E+01  6.752252537E+01  0.000000000E+00  0.00000E+00  9.000E+00
#rwgt            1           1   2.8219423228740506E-002           7      293015           0
</event>
<event>
      5   9999  3.19816E-02  7.54945E+01 -1.00000E+00  1.29580E-01
      21    -1     0     0   502   501  0.000000000E+00  0.000000000E+00  8.234610013E+02  8.234610013E+02  0.000000000E+00  0.00000E+00  9.000E+00
       2    -1     0     0   501     0  0.000000000E+00  0.000000000E+00 -6.726375418E+02  6.726375418E+02  0.000000000E+00  0.00000E+00  9.000E+00
      25     1     1     2     0     0  3.909068847E+02 -1.593813458E+02  6.457302715E+02  7.815389877E+02  1.250000000E+02  0.00000E+00  9.000E+00
      25     1     1     2     0     0 -3.658637648E+02  8.816151973E+01 -2.763885494E+02  4.833677463E+02  1.250000000E+02  0.00000E+00  9.000E+00
       2     1     1     2   502     0 -2.504311984E+01  7.121982609E+01 -2.185182626E+02  2.311918090E+02  0.000000000E+00  0.00000E+00  9.000E+00
#rwgt            1           1   1.8801962619021905E-002           7      293139           0
</event>
<event>
      5   9999  3.19816E-02  4.09475E+01 -1.00000E+00  1.44212E-01
      21    -1     0     0   511   501  0.000000000E+00  0.000000000E+00  3.700436340E+01  3.700436340E+01  0.000000000E+00  0.00000E+00  9.000E+00
      21    -1     0     0   501   502  0.000000000E+00  0.000000000E+00 -2.700923896E+03  2.700923896E+03  0.000000000E+00  0.00000E+00  9.000E+00
      25     1     1     2     0     0 -1.588524897E+02 -4.416431790E+01 -2.289519255E+03  2.298849281E+03  1.250000000E+02  0.00000E+00  9.000E+00
      25     1     1     2     0     0  1.179200561E+02  4.527388655E+01 -3.468561661E+02  3.897294759E+02  1.250000000E+02  0.00000E+00  9.000E+00
      21     1     1     2   511   502  4.093243361E+01 -1.109568644E+00 -2.754411164E+01  4.934950202E+01  2.023048729E-06  0.00000E+00  9.000E+00
#rwgt            1           1   4.4985085671751732E-002           7      293214           0
</event>
<event>
      5   9999  3.19816E-02  3.22413E+02 -1.00000E+00  1.04585E-01
       2    -1     0     0   502     0  0.000000000E+00  0.000000000E+00  2.850242077E+03  2.850242077E+03  0.000000000E+00  0.00000E+00  9.000E+00
      21    -1     0     0   501   502  0.000000000E+00  0.000000000E+00 -1.772185953E+02  1.772185953E+02  0.000000000E+00  0.00000E+00  9.000E+00
      25     1     1     2     0     0 -3.226459135E+01 -5.416599437E+02  2.152637350E+03  2.223490287E+03  1.250000000E+02  0.00000E+00  9.000E+00
      25     1     1     2     0     0  7.520847080E+01  2.221195960E+02  1.246535915E+02  2.935250362E+02  1.250000000E+02  0.00000E+00  9.000E+00
       2     1     1     2   501     0 -4.294387946E+01  3.195403477E+02  3.957325406E+02  5.104453490E+02  5.394796609E-06  0.00000E+00  9.000E+00
#rwgt            2          18   5.3481054651767744E-003           7      293307           0
</event>
<event>
      5   9999  3.19816E-02  8.89348E+01 -1.00000E+00  1.26163E-01
      21    -1     0     0   502   501  0.000000000E+00  0.000000000E+00  1.347841151E+02  1.347841151E+02  0.000000000E+00  0.00000E+00  9.000E+00
      21    -1     0     0   501   511  0.000000000E+00  0.000000000E+00 -7.440337644E+02  7.440337644E+02  0.000000000E+00  0.00000E+00  9.000E+00
      25     1     1     2     0     0 -2.260431014E+02  9.666893332E+01 -4.590637505E+02  5.355416822E+02  1.250000000E+02  0.00000E+00  9.000E+00
      25     1     1     2     0     0  1.380660958E+02 -8.365160865E+01 -5.177048354E+01  2.106300582E+02  1.250000000E+02  0.00000E+00  9.000E+00
      21     1     1     2   502   511  8.797700561E+01 -1.301732466E+01 -9.841541532E+01  1.326461392E+02  1.907348633E-06  0.00000E+00  9.000E+00
#rwgt            1           1   2.8757506766779441E-002           7      293326           0
</event>
<event>
      5   9999  3.19816E-02  1.28661E+02 -1.00000E+00  1.19098E-01
      21    -1     0     0   502   501  0.000000000E+00  0.000000000E+00  4.564065301E+02  4.564065301E+02  0.000000000E+00  0.00000E+00  9.000E+00
      21    -1     0     0   512   502  0.000000000E+00  0.000000000E+00 -4.043573544E+02  4.043573544E+02  0.000000000E+00  0.00000E+00  9.000E+00
      25     1     1     2     0     0 -1.181384758E+02 -1.914931842E+02  1.990662087E+02  3.253900652E+02  1.250000000E+02  0.00000E+00  9.000E+00
      25     1     1     2     0     0  6.953280936E+01  3.106195226E+02 -2.631917253E+00  3.419813247E+02  1.250000000E+02  0.00000E+00  9.000E+00
      21     1     1     2   512   501  4.860566644E+01 -1.191263385E+02 -1.443851158E+02  1.933924947E+02  3.303624740E-06  0.00000E+00  9.000E+00
#rwgt            1           1   3.0935047601932913E-002           7      293387           0
</event>
<event>
      5   9999  3.19816E-02  1.30104E+02 -1.00000E+00  1.18897E-01
      21    -1     0     0   502   511  0.000000000E+00  0.000000000E+00  2.011134375E+03  2.011134375E+03  0.000000000E+00  0.00000E+00  9.000E+00
      21    -1     0     0   501   502  0.000000000E+00  0.000000000E+00 -1.487908942E+02  1.487908942E+02  0.000000000E+00  0.00000E+00  9.000E+00
      25     1     1     2     0     0 -4.643569539E+01  3.923034437E+01  1.656275165E+03  1.662097384E+03  1.250000000E+02  0.00000E+00  9.000E+00
      25     1     1     2     0     0  1.137177840E+02 -1.505860129E+02 -2.995562554E+01  2.283204353E+02  1.250000000E+02  0.00000E+00  9.000E+00
      21     1     1     2   501   511 -6.728208859E+01  1.113556685E+02  2.360239414E+02  2.695074494E+02  4.672030912E-06  0.00000E+00  9.000E+00
#rwgt            1           1   2.9420948068699999E-002           7      293448           0
</event>
<event>
      5   9999  3.19816E-02  3.30857E+01 -1.00000E+00  1.50144E-01
      21    -1     0     0   502   501  0.000000000E+00  0.000000000E+00  1.220693731E+03  1.220693731E+03  0.000000000E+00  0.00000E+00  9.000E+00
      21    -1     0     0   501   512  0.000000000E+00  0.000000000E+00 -6.787190567E+02  6.787190567E+02  0.000000000E+00  0.00000E+00  9.000E+00
      25     1     1     2     0     0 -2.097601310E+02  2.507215778E+02  9.427213999E+02  1.005589011E+03  1.250000000E+02  0.00000E+00  9.000E+00
      25     1     1     2     0     0  1.782979408E+02 -2.609583771E+02  1.286399043E+02  3.634042587E+02  1.250000000E+02  0.00000E+00  9.000E+00
      21     1     1     2   502   512  3.146219016E+01  1.023679929E+01 -5.293866295E+02  5.304195179E+02  1.078959322E-05  0.00000E+00  9.000E+00
#rwgt            1           1   3.0647238804441104E-002           7      293628           0
</event>
<event>
      5   9999  3.19816E-02  4.00259E+01 -1.00000E+00  1.44823E-01
      21    -1     0     0   511   501  0.000000000E+00  0.000000000E+00  1.090108455E+03  1.090108455E+03  0.000000000E+00  0.00000E+00  9.000E+00
      21    -1     0     0   501   502  0.000000000E+00  0.000000000E+00 -1.595695824E+02  1.595695824E+02  0.000000000E+00  0.00000E+00  9.000E+00
      25     1     1     2     0     0 -1.055870146E+02 -2.844234296E+02  1.243141532E+02  3.508907432E+02  1.250000000E+02  0.00000E+00  9.000E+00
      25     1     1     2     0     0  9.138743873E+01  3.218459153E+02  7.193217688E+02  8.031097461E+02  1.250000000E+02  0.00000E+00  9.000E+00
      21     1     1     2   511   502  1.419957582E+01 -3.742248567E+01  8.690295009E+01  9.567754763E+01  0.000000000E+00  0.00000E+00  9.000E+00
#rwgt            1           1   3.3536582865254440E-002           7      293744           0
</event>
<event>
      5   9999  3.19816E-02  1.25020E+02 -1.00000E+00  1.19618E-01
       2    -1     0     0   502     0  0.000000000E+00  0.000000000E+00  1.393168293E+03  1.393168293E+03  0.000000000E+00  0.00000E+00  9.000E+00
      21    -1     0     0   501   502  0.000000000E+00  0.000000000E+00 -5.264453170E+02  5.264453170E+02  0.000000000E+00  0.00000E+00  9.000E+00
      25     1     1     2     0     0 -2.015996767E+02  4.528727077E+02  7.507108502E+02  9.082554154E+02  1.250000000E+02  0.00000E+00  9.000E+00
      25     1     1     2     0     0  3.147456055E+02 -3.996939232E+02 -2.814535334E+02  5.946941398E+02  1.250000000E+02  0.00000E+00  9.000E+00
       2     1     1     2   501     0 -1.131459288E+02 -5.317878443E+01  3.974656591E+02  4.166640547E+02  0.000000000E+00  0.00000E+00  9.000E+00
#rwgt            1           1   2.8298109245971547E-002           7      293883           0
</event>
<event>
      5   9999  3.19816E-02  1.89532E+01 -1.00000E+00  1.68319E-01
      21    -1     0     0   502   501  0.000000000E+00  0.000000000E+00  3.002447784E+02  3.002447784E+02  0.000000000E+00  0.00000E+00  9.000E+00
      21    -1     0     0   501   511  0.000000000E+00  0.000000000E+00 -1.914720035E+02  1.914720035E+02  0.000000000E+00  0.00000E+00  9.000E+00
      25     1     1     2     0     0 -1.217910150E+02  6.967880356E+01  1.212077211E+02  2.236168568E+02  1.250000000E+02  0.00000E+00  9.000E+00
      25     1     1     2     0     0  1.281627522E+02 -8.752889152E+01  4.781868303E+01  2.049356591E+02  1.250000000E+02  0.00000E+00  9.000E+00
      21     1     1     2   502   511 -6.371737274E+00  1.785008796E+01 -6.025362920E+01  6.316426607E+01  9.536743164E-07  0.00000E+00  9.000E+00
#rwgt            1           1   2.5600398644860693E-002           7      293988           0
</event>
<event>
      5   9999  3.19816E-02  2.66941E+01 -1.00000E+00  1.56647E-01
      21    -1     0     0   502   501  0.000000000E+00  0.000000000E+00  2.758257408E+02  2.758257408E+02  0.000000000E+00  0.00000E+00  9.000E+00
      21    -1     0     0   501   512  0.000000000E+00  0.000000000E+00 -1.350386159E+03  1.350386159E+03  0.000000000E+00  0.00000E+00  9.000E+00
      25     1     1     2     0     0 -2.372023164E+02 -1.260065578E-01  1.293902925E+02  2.977109380E+02  1.250000000E+02  0.00000E+00  9.000E+00
      25     1     1     2     0     0  2.520127011E+02 -2.208273145E+01 -2.585254185E+02  3.826988902E+02  1.250000000E+02  0.00000E+00  9.000E+00
      21     1     1     2   502   512 -1.481038468E+01  2.220873801E+01 -9.454252926E+02  9.458020721E+02  0.000000000E+00  0.00000E+00  9.000E+00
#rwgt            1           1   2.7130759961020153E-002           7      294126           0
</event>
<event>
      5   9999  3.19816E-02  8.71531E+01 -1.00000E+00  1.26575E-01
      21    -1     0     0   502   511  0.000000000E+00  0.000000000E+00  8.117210090E+02  8.117210090E+02  0.000000000E+00  0.00000E+00  9.000E+00
      21    -1     0     0   501   502  0.000000000E+00  0.000000000E+00 -1.517168104E+02  1.517168104E+02  0.000000000E+00  0.00000E+00  9.000E+00
      25     1     1     2     0     0 -1.617106323E+02  1.489649135E+02  5.165674495E+02  5.751589380E+02  1.250000000E+02  0.00000E+00  9.000E+00
      25     1     1     2     0     0  2.043810438E+02 -7.297216149E+01  4.098809491E+01  2.537746468E+02  1.250000000E+02  0.00000E+00  9.000E+00
      21     1     1     2   501   511 -4.267041153E+01 -7.599275205E+01  1.024486542E+02  1.345042346E+02  0.000000000E+00  0.00000E+00  9.000E+00
#rwgt            1           1   2.3479204949307823E-002           7      294264           0
</event>
<event>
      5   9999  3.19816E-02  3.29070E+02 -1.00000E+00  1.04303E-01
      21    -1     0     0   512   501  0.000000000E+00  0.000000000E+00  4.576130619E+02  4.576130619E+02  0.000000000E+00  0.00000E+00  9.000E+00
      21    -1     0     0   501   502  0.000000000E+00  0.000000000E+00 -9.434788518E+02  9.434788518E+02  0.000000000E+00  0.00000E+00  9.000E+00
      25     1     1     2     0     0 -1.106272101E+02  1.128334091E+01  2.434301916E+02  2.953793351E+02  1.250000000E+02  0.00000E+00  9.000E+00
      25     1     1     2     0     0  5.661297035E+01  3.133238083E+02 -6.953095707E+02  7.748917578E+02  1.250000000E+02  0.00000E+00  9.000E+00
      21     1     1     2   512   502  5.401423977E+01 -3.246071492E+02 -3.398641080E+01  3.308208209E+02  4.815819234E-06  0.00000E+00  9.000E+00
#rwgt            1           1   2.8724663224148930E-002           7      294393           0
</event>
<event>
      5   9999  3.19816E-02  1.84354E+01 -1.00000E+00  1.69342E-01
      21    -1     0     0   502   501  0.000000000E+00  0.000000000E+00  5.172879516E+02  5.172879516E+02  0.000000000E+00  0.00000E+00  9.000E+00
       2    -1     0     0   501     0  0.000000000E+00  0.000000000E+00 -9.856647123E+02  9.856647123E+02  0.000000000E+00  0.00000E+00  9.000E+00
      25     1     1     2     0     0 -1.158454793E+02 -2.157971402E+02 -2.676320223E+01  2.762785728E+02  1.250000000E+02  0.00000E+00  9.000E+00
      25     1     1     2     0     0  1.332826591E+02  2.098131756E+02  3.431059414E+02  4.417380704E+02  1.250000000E+02  0.00000E+00  9.000E+00
       2     1     1     2   502     0 -1.743717978E+01  5.983964613E+00 -7.847194998E+02  7.849360206E+02  1.525878906E-05  0.00000E+00  9.000E+00
#rwgt            1           1   2.7783733427957570E-002           7      294425           0
</event>
<event>
      5   9999  3.19816E-02  4.08935E+02 -1.00000E+00  1.01398E-01
      -2    -1     0     0     0   501  0.000000000E+00  0.000000000E+00  8.747804899E+02  8.747804899E+02  0.000000000E+00  0.00000E+00  9.000E+00
      21    -1     0     0   501   502  0.000000000E+00  0.000000000E+00 -1.569760203E+03  1.569760203E+03  0.000000000E+00  0.00000E+00  9.000E+00
      25     1     1     2     0     0  1.061760572E+03 -1.575577266E+02 -7.146167741E+02  1.295554740E+03  1.250000000E+02  0.00000E+00  9.000E+00
      25     1     1     2     0     0 -7.194318311E+02 -6.613644724E+01 -4.678953400E+01  7.346907170E+02  1.250000000E+02  0.00000E+00  9.000E+00
      -2     1     1     2     0   502 -3.423287412E+02  2.236941738E+02  6.642659457E+01  4.142952364E+02  3.693564745E-06  0.00000E+00  9.000E+00
#rwgt            2           4   5.6000652230803782E-005           7      294652           0
</event>
<event>
      5   9999  3.19816E-02  2.18373E+02 -1.00000E+00  1.10276E-01
      21    -1     0     0   511   501  0.000000000E+00  0.000000000E+00  3.582849344E+02  3.582849344E+02  0.000000000E+00  0.00000E+00  9.000E+00
      21    -1     0     0   501   502  0.000000000E+00  0.000000000E+00 -5.284355550E+02  5.284355550E+02  0.000000000E+00  0.00000E+00  9.000E+00
      25     1     1     2     0     0 -1.855800448E+00  3.308371309E+02 -2.909935109E+02  4.579944045E+02  1.250000000E+02  0.00000E+00  9.000E+00
      25     1     1     2     0     0  6.250894972E+01 -1.210560242E+02  9.772028496E+01  2.091319772E+02  1.250000000E+02  0.00000E+00  9.000E+00
      21     1     1     2   511   502 -6.065314927E+01 -2.097811068E+02  2.312260535E+01  2.195941077E+02  4.357258530E-06  0.00000E+00  9.000E+00
#rwgt            1           1   2.9798011626186106E-002           7      294701           0
</event>
<event>
      5   9999  3.19816E-02  2.65944E+01 -1.00000E+00  1.56766E-01
      21    -1     0     0   502   501  0.000000000E+00  0.000000000E+00  4.951143628E+02  4.951143628E+02  0.000000000E+00  0.00000E+00  9.000E+00
      21    -1     0     0   512   502  0.000000000E+00  0.000000000E+00 -2.184572029E+03  2.184572029E+03  0.000000000E+00  0.00000E+00  9.000E+00
      25     1     1     2     0     0 -5.333529875E+01  2.137843160E+02  4.480429765E+02  5.146998122E+02  1.250000000E+02  0.00000E+00  9.000E+00
      25     1     1     2     0     0  3.638036021E+01 -2.342732090E+02 -1.313916544E+03  1.340973211E+03  1.250000000E+02  0.00000E+00  9.000E+00
      21     1     1     2   512   501  1.695493853E+01  2.048889298E+01 -8.235840982E+02  8.240133685E+02  1.525878906E-05  0.00000E+00  9.000E+00
#rwgt            1           1   3.4474574904669021E-002           7      294749           0
</event>
<event>
      5   9999  3.19816E-02  3.55141E+01 -1.00000E+00  1.48119E-01
      21    -1     0     0   511   501  0.000000000E+00  0.000000000E+00  1.373694751E+03  1.373694751E+03  0.000000000E+00  0.00000E+00  9.000E+00
      21    -1     0     0   501   502  0.000000000E+00  0.000000000E+00 -8.767644364E+02  8.767644364E+02  0.000000000E+00  0.00000E+00  9.000E+00
      25     1     1     2     0     0 -2.122071321E+02  1.334362378E+02 -5.962606296E+02  6.587782896E+02  1.250000000E+02  0.00000E+00  9.000E+00
      25     1     1     2     0     0  2.401367254E+02 -1.553722096E+02 -1.511658878E+02  3.468173814E+02  1.250000000E+02  0.00000E+00  9.000E+00
      21     1     1     2   511   502 -2.792959333E+01  2.193597184E+01  1.244356832E+03  1.244863516E+03  1.525878906E-05  0.00000E+00  9.000E+00
#rwgt            1           1   2.5059689970893351E-002           7      294917           0
</event>
<event>
      5   9999  3.19816E-02  9.67712E+01 -1.00000E+00  1.24472E-01
      21    -1     0     0   502   512  0.000000000E+00  0.000000000E+00  8.341108399E+02  8.341108399E+02  0.000000000E+00  0.00000E+00  9.000E+00
      21    -1     0     0   501   502  0.000000000E+00  0.000000000E+00 -7.886443593E+02  7.886443593E+02  0.000000000E+00  0.00000E+00  9.000E+00
      25     1     1     2     0     0  6.031686408E+02 -1.987181035E+02  4.335204420E+02  7.790162177E+02  1.250000000E+02  0.00000E+00  9.000E+00
      25     1     1     2     0     0 -5.329288183E+02  2.652841358E+02 -4.229389890E+02  7.408719097E+02  1.250000000E+02  0.00000E+00  9.000E+00
      21     1     1     2   501   512 -7.023982248E+01 -6.656603224E+01  3.488502760E+01  1.028670718E+02  2.078484985E-06  0.00000E+00  9.000E+00
#rwgt            1           1   3.0310350269569478E-002           7      295005           0
</event>
<event>
      5   9999  3.19816E-02  1.04877E+02 -1.00000E+00  1.22905E-01
      21    -1     0     0   502   511  0.000000000E+00  0.000000000E+00  2.713900813E+02  2.713900813E+02  0.000000000E+00  0.00000E+00  9.000E+00
      21    -1     0     0   501   502  0.000000000E+00  0.000000000E+00 -8.994288638E+02  8.994288638E+02  0.000000000E+00  0.00000E+00  9.000E+00
      25     1     1     2     0     0 -1.488867824E+02  1.810855453E+02 -6.648732379E+02  7.159892954E+02  1.250000000E+02  0.00000E+00  9.000E+00
      25     1     1     2     0     0  1.017566580E+02 -8.739534919E+01 -1.524385210E+02  2.384425868E+02  1.250000000E+02  0.00000E+00  9.000E+00
      21     1     1     2   501   511  4.713012437E+01 -9.369019608E+01  1.892729764E+02  2.163870630E+02  3.814697266E-06  0.00000E+00  9.000E+00
#rwgt            1           1   3.3558145923041946E-002           7      295141           0
</event>
<event>
      5   9999  3.19816E-02  2.20679E+01 -1.00000E+00  1.62919E-01
      21    -1     0     0   502   501  0.000000000E+00  0.000000000E+00  9.350849169E+01  9.350849169E+01  0.000000000E+00  0.00000E+00  9.000E+00
      21    -1     0     0   512   502  0.000000000E+00  0.000000000E+00 -6.434164153E+02  6.434164153E+02  0.000000000E+00  0.00000E+00  9.000E+00
      25     1     1     2     0     0  7.325978263E+01  1.198665362E+02 -4.669498863E+02  5.033906818E+02  1.250000000E+02  0.00000E+00  9.000E+00
      25     1     1     2     0     0 -7.392030600E+01 -9.780847669E+01 -3.197958961E+01  1.779842799E+02  1.250000000E+02  0.00000E+00  9.000E+00
      21     1     1     2   512   501  6.605233795E-01 -2.205805955E+01 -5.097844768E+01  5.554994518E+01  6.743495762E-07  0.00000E+00  9.000E+00
#rwgt            1           1   2.8959695644953182E-002           7      295179           0
</event>
<event>
      5   9999  3.19816E-02  3.58001E+02 -1.00000E+00  1.03156E-01
      21    -1     0     0   502   501  0.000000000E+00  0.000000000E+00  1.349502847E+03  1.349502847E+03  0.000000000E+00  0.00000E+00  9.000E+00
      -1    -1     0     0     0   502  0.000000000E+00  0.000000000E+00 -1.826694238E+02  1.826694238E+02  0.000000000E+00  0.00000E+00  9.000E+00
      25     1     1     2     0     0 -2.504096331E+01 -3.239917547E+02  1.323707870E+02  3.724845396E+02  1.250000000E+02  0.00000E+00  9.000E+00
      25     1     1     2     0     0 -7.568263696E+01 -1.954811755E+01  4.576277014E+02  4.807890426E+02  1.250000000E+02  0.00000E+00  9.000E+00
      -1     1     1     2     0   501  1.007236003E+02  3.435398722E+02  5.768349343E+02  6.788986883E+02  0.000000000E+00  0.00000E+00  9.000E+00
#rwgt            1           1   2.7043436335561409E-002           7      295292           0
</event>
<event>
      5   9999  3.19816E-02  9.75709E+01 -1.00000E+00  1.24310E-01
      -1    -1     0     0     0   501  0.000000000E+00  0.000000000E+00  8.706569940E+01  8.706569940E+01  0.000000000E+00  0.00000E+00  9.000E+00
      21    -1     0     0   501   502  0.000000000E+00  0.000000000E+00 -8.885578109E+02  8.885578109E+02  0.000000000E+00  0.00000E+00  9.000E+00
      25     1     1     2     0     0  1.294570423E+02  1.626032095E+01 -5.988425539E+01  1.903540067E+02  1.250000000E+02  0.00000E+00  9.000E+00
      25     1     1     2     0     0 -5.621299175E+01  4.820192861E+01 -5.662803163E+02  5.846210080E+02  1.250000000E+02  0.00000E+00  9.000E+00
      -1     1     1     2     0   502 -7.324405054E+01 -6.446224956E+01 -1.753275397E+02  2.006484955E+02  0.000000000E+00  0.00000E+00  9.000E+00
#rwgt            2           5   1.2290731752084595E-005           7      295340           0
</event>
<event>
      5   9999  3.19816E-02  7.37601E+01 -1.00000E+00  1.30080E-01
      21    -1     0     0   502   501  0.000000000E+00  0.000000000E+00  1.441182818E+03  1.441182818E+03  0.000000000E+00  0.00000E+00  9.000E+00
      21    -1     0     0   511   502  0.000000000E+00  0.000000000E+00 -1.370341455E+03  1.370341455E+03  0.000000000E+00  0.00000E+00  9.000E+00
      25     1     1     2     0     0  5.123186003E+02 -5.480354230E+02 -1.027031061E+03  1.277979254E+03  1.250000000E+02  0.00000E+00  9.000E+00
      25     1     1     2     0     0 -5.252282485E+02  6.206569905E+02  1.170088298E+03  1.430318649E+03  1.250000000E+02  0.00000E+00  9.000E+00
      21     1     1     2   511   501  1.290964820E+01 -7.262156759E+01 -7.221587348E+01  1.032263701E+02  1.651812370E-06  0.00000E+00  9.000E+00
#rwgt            1           1   5.8340174694563401E-002           7      295374           0
</event>
<event>
      5   9999  3.19816E-02  4.35461E+01 -1.00000E+00  1.42589E-01
      21    -1     0     0   512   501  0.000000000E+00  0.000000000E+00  6.405007575E+02  6.405007575E+02  0.000000000E+00  0.00000E+00  9.000E+00
      21    -1     0     0   501   502  0.000000000E+00  0.000000000E+00 -1.456621502E+02  1.456621502E+02  0.000000000E+00  0.00000E+00  9.000E+00
      25     1     1     2     0     0 -1.796074869E+02  4.708898616E+01 -1.009831171E+01  2.240607013E+02  1.250000000E+02  0.00000E+00  9.000E+00
      25     1     1     2     0     0  1.414348690E+02 -6.804403924E+01  4.437252468E+02  4.869814248E+02  1.250000000E+02  0.00000E+00  9.000E+00
      21     1     1     2   512   502  3.817261795E+01  2.095505308E+01  6.121167229E+01  7.512078164E+01  6.743495762E-07  0.00000E+00  9.000E+00
#rwgt            1           1   2.8618517451857426E-002           7      295556           0
</event>
<event>
      5   9999  3.19816E-02  8.37786E+01 -1.00000E+00  1.27387E-01
      21    -1     0     0   502   501  0.000000000E+00  0.000000000E+00  9.813506049E+02  9.813506049E+02  0.000000000E+00  0.00000E+00  9.000E+00
      21    -1     0     0   511   502  0.000000000E+00  0.000000000E+00 -1.259139078E+03  1.259139078E+03  0.000000000E+00  0.00000E+00  9.000E+00
      25     1     1     2     0     0 -7.392404706E+02 -6.126632380E+02  2.945265783E+02  1.012029457E+03  1.250000000E+02  0.00000E+00  9.000E+00
      25     1     1     2     0     0  7.144722363E+02  6.926969170E+02 -5.208517935E+02  1.130137685E+03  1.250000000E+02  0.00000E+00  9.000E+00
      21     1     1     2   511   501  2.476823431E+01 -8.003367897E+01 -5.146325751E+01  9.832254103E+01  2.336015456E-06  0.00000E+00  9.000E+00
#rwgt            1           1   3.8204317719005523E-002           7      295660           0
</event>
<event>
      5   9999  3.19816E-02  2.34935E+02 -1.00000E+00  1.09161E-01
      21    -1     0     0   502   501  0.000000000E+00  0.000000000E+00  1.035228095E+02  1.035228095E+02  0.000000000E+00  0.00000E+00  9.000E+00
      21    -1     0     0   501   512  0.000000000E+00  0.000000000E+00 -1.368552434E+03  1.368552434E+03  0.000000000E+00  0.00000E+00  9.000E+00
      25     1     1     2     0     0  1.492760419E+02 -4.873669681E+01 -6.501447579E+02  6.804203176E+02  1.250000000E+02  0.00000E+00  9.000E+00
      25     1     1     2     0     0 -5.274077438E+01 -1.654490281E+02 -1.236275844E+02  2.471108047E+02  1.250000000E+02  0.00000E+00  9.000E+00
      21     1     1     2   502   512 -9.653526748E+01  2.141857249E+02 -4.912572820E+02  5.445441210E+02  1.078959322E-05  0.00000E+00  9.000E+00
#rwgt            1           1   3.0044934852687621E-002           7      295760           0
</event>
<event>
      5   9999  3.19816E-02  2.43216E+01 -1.00000E+00  1.59651E-01
      21    -1     0     0   502   501  0.000000000E+00  0.000000000E+00  1.738326826E+02  1.738326826E+02  0.000000000E+00  0.00000E+00  9.000E+00
      21    -1     0     0   501   511  0.000000000E+00  0.000000000E+00 -1.257071476E+03  1.257071476E+03  0.000000000E+00  0.00000E+00  9.000E+00
      25     1     1     2     0     0 -3.208449563E+02  8.625516171E+01 -4.125713979E+02  5.442624342E+02  1.250000000E+02  0.00000E+00  9.000E+00
      25     1     1     2     0     0  3.009676901E+02 -7.223960676E+01 -1.509375151E+02  3.663430697E+02  1.250000000E+02  0.00000E+00  9.000E+00
      21     1     1     2   502   511  1.987726622E+01 -1.401555496E+01 -5.197298803E+02  5.202986546E+02  7.629394531E-06  0.00000E+00  9.000E+00
#rwgt            1           1   2.4438819443285263E-002           7      295798           0
</event>
<event>
      5   9999  3.19816E-02  1.44830E+01 -1.00000E+00  1.78831E-01
      21    -1     0     0   502   501  0.000000000E+00  0.000000000E+00  1.112127998E+02  1.112127998E+02  0.000000000E+00  0.00000E+00  9.000E+00
      21    -1     0     0   512   502  0.000000000E+00  0.000000000E+00 -5.916451413E+02  5.916451413E+02  0.000000000E+00  0.00000E+00  9.000E+00
      25     1     1     2     0     0  1.196489844E+02  1.018789296E+02 -2.161458110E+02  2.950240793E+02  1.250000000E+02  0.00000E+00  9.000E+00
      25     1     1     2     0     0 -1.313010919E+02 -9.327751397E+01 -7.383840514E+01  2.168358398E+02  1.250000000E+02  0.00000E+00  9.000E+00
      21     1     1     2   512   501  1.165210749E+01 -8.601415597E+00 -1.904481254E+02  1.909980220E+02  2.697398305E-06  0.00000E+00  9.000E+00
#rwgt            1           1   2.5850349846231038E-002           7      295961           0
</event>
<event>
      5   9999  3.19816E-02  6.87842E+01 -1.00000E+00  1.31607E-01
      21    -1     0     0   502   511  0.000000000E+00  0.000000000E+00  8.174004828E+02  8.174004828E+02  0.000000000E+00  0.00000E+00  9.000E+00
      21    -1     0     0   501   502  0.000000000E+00  0.000000000E+00 -3.444220921E+02  3.444220921E+02  0.000000000E+00  0.00000E+00  9.000E+00
      25     1     1     2     0     0  2.764517235E+02 -6.608443877E+01 -2.143169072E+02  3.772922544E+02  1.250000000E+02  0.00000E+00  9.000E+00
      25     1     1     2     0     0 -2.759506235E+02 -2.697977125E+00  4.955296648E+02  5.808017514E+02  1.250000000E+02  0.00000E+00  9.000E+00
      21     1     1     2   501   511 -5.011000488E-01  6.878241590E+01  1.917656331E+02  2.037285691E+02  0.000000000E+00  0.00000E+00  9.000E+00
#rwgt            1           1   2.5339717716024033E-002           7      296158           0
</event>
<event>
      5   9999  3.19816E-02  8.65825E+01 -1.00000E+00  1.26709E-01
      21    -1     0     0   502   501  0.000000000E+00  0.000000000E+00  6.700330464E+02  6.700330464E+02  0.000000000E+00  0.00000E+00  9.000E+00
      21    -1     0     0   512   502  0.000000000E+00  0.000000000E+00 -1.272647220E+02  1.272647220E+02  0.000000000E+00  0.00000E+00  9.000E+00
      25     1     1     2     0     0 -1.666642232E+02 -7.801685846E+01  4.875518050E+02  5.359061075E+02  1.250000000E+02  0.00000E+00  9.000E+00
      25     1     1     2     0     0  1.125117638E+02  1.045920234E+01  4.343591135E+01  1.740114085E+02  1.250000000E+02  0.00000E+00  9.000E+00
      21     1     1     2   512   501  5.415245943E+01  6.755765612E+01  1.178060804E+01  8.738025228E+01  6.078504936E-07  0.00000E+00  9.000E+00
#rwgt            1           1   2.8131500036395047E-002           7      296248           0
</event>
<event>
      5   9999  3.19816E-02  2.69752E+01 -1.00000E+00  1.56316E-01
      21    -1     0     0   502   511  0.000000000E+00  0.000000000E+00  2.415645997E+01  2.415645997E+01  0.000000000E+00  0.00000E+00  9.000E+00
      21    -1     0     0   501   502  0.000000000E+00  0.000000000E+00 -1.687195943E+03  1.687195943E+03  0.000000000E+00  0.00000E+00  9.000E+00
      25     1     1     2     0     0 -8.790094554E+01  1.215730800E+01 -1.217668420E+03  1.227279820E+03  1.250000000E+02  0.00000E+00  9.000E+00
      25     1     1     2     0     0  9.640450075E+01 -3.775715748E+01 -3.706136123E+02  4.045971828E+02  1.250000000E+02  0.00000E+00  9.000E+00
      21     1     1     2   501   511 -8.503555211E+00  2.559984947E+01 -7.475745149E+01  7.947540058E+01  0.000000000E+00  0.00000E+00  9.000E+00
#rwgt            1           1   2.5559722403227476E-002           7      296321           0
</event>
<event>
      5   9999  3.19816E-02  2.73243E+02 -1.00000E+00  1.06927E-01
       2    -1     0     0   502     0  0.000000000E+00  0.000000000E+00  2.032196433E+03  2.032196433E+03  0.000000000E+00  0.00000E+00  9.000E+00
      21    -1     0     0   501   502  0.000000000E+00  0.000000000E+00 -1.082278250E+03  1.082278250E+03  0.000000000E+00  0.00000E+00  9.000E+00
      25     1     1     2     0     0  6.208636325E+02  3.918031609E+02  8.541268731E+02  1.133198607E+03  1.250000000E+02  0.00000E+00  9.000E+00
      25     1     1     2     0     0 -3.519522667E+02 -3.433416990E+02 -8.538003467E+02  9.931535392E+02  1.250000000E+02  0.00000E+00  9.000E+00
       2     1     1     2   501     0 -2.689113658E+02 -4.846146185E+01  9.495916564E+02  9.881225379E+02  1.078959322E-05  0.00000E+00  9.000E+00
#rwgt            2          18   2.2492553717460640E-003           7      296420           0
</event>
<event>
      5   9999  3.19816E-02  8.76061E+00 -1.00000E+00  2.02644E-01
      21    -1     0     0   502   501  0.000000000E+00  0.000000000E+00  1.097488406E+02  1.097488406E+02  0.000000000E+00  0.00000E+00  9.000E+00
      21    -1     0     0   511   502  0.000000000E+00  0.000000000E+00 -1.749766786E+03  1.749766786E+03  0.000000000E+00  0.00000E+00  9.000E+00
      25     1     1     2     0     0 -1.315763626E+02  3.332651966E+02 -7.514503248E+02  8.418317059E+02  1.250000000E+02  0.00000E+00  9.000E+00
      25     1     1     2     0     0  1.241964202E+02 -3.379858657E+02 -4.985298317E+02  6.275477585E+02  1.250000000E+02  0.00000E+00  9.000E+00
      21     1     1     2   511   501  7.379942366E+00  4.720669081E+00 -3.900377893E+02  3.901361626E+02  5.394796609E-06  0.00000E+00  9.000E+00
#rwgt            1           1   2.4997356239523864E-002           7      296439           0
</event>
<event>
      5   9999  3.19816E-02  6.77704E+01 -1.00000E+00  1.31937E-01
      21    -1     0     0   502   501  0.000000000E+00  0.000000000E+00  1.575314364E+03  1.575314364E+03  0.000000000E+00  0.00000E+00  9.000E+00
      21    -1     0     0   512   502  0.000000000E+00  0.000000000E+00 -1.542718018E+03  1.542718018E+03  0.000000000E+00  0.00000E+00  9.000E+00
      25     1     1     2     0     0 -1.330274509E+03  1.278816581E+02 -5.935385064E+02  1.467616076E+03  1.250000000E+02  0.00000E+00  9.000E+00
      25     1     1     2     0     0  1.397776466E+03 -1.339076997E+02  6.787486783E+02  1.564619791E+03  1.250000000E+02  0.00000E+00  9.000E+00
      21     1     1     2   512   501 -6.750195700E+01  6.026041546E+00 -5.261382582E+01  8.579651533E+01  0.000000000E+00  0.00000E+00  9.000E+00
#rwgt            1           1   3.9081638904719343E-002           7      296683           0
</event>
<event>
      5   9999  3.19816E-02  4.65470E+01 -1.00000E+00  1.40872E-01
      21    -1     0     0   502   501  0.000000000E+00  0.000000000E+00  5.183583109E+02  5.183583109E+02  0.000000000E+00  0.00000E+00  9.000E+00
      21    -1     0     0   511   502  0.000000000E+00  0.000000000E+00 -1.816336882E+02  1.816336882E+02  0.000000000E+00  0.00000E+00  9.000E+00
      25     1     1     2     0     0 -3.598715062E+00 -6.661123200E+01 -9.411342738E+01  1.700951034E+02  1.250000000E+02  0.00000E+00  9.000E+00
      25     1     1     2     0     0 -1.164954906E+01  2.263269076E+01  4.583884506E+02  4.758076526E+02  1.250000000E+02  0.00000E+00  9.000E+00
      21     1     1     2   511   501  1.524826412E+01  4.397854124E+01 -2.755040058E+01  5.408924311E+01  1.215700987E-06  0.00000E+00  9.000E+00
#rwgt            1           1   2.6960793466688796E-002           7      296835           0
</event>
<event>
      5   9999  3.19816E-02  3.15805E+01 -1.00000E+00  1.51507E-01
      21    -1     0     0   502   512  0.000000000E+00  0.000000000E+00  8.149096117E+02  8.149096117E+02  0.000000000E+00  0.00000E+00  9.000E+00
      21    -1     0     0   501   502  0.000000000E+00  0.000000000E+00 -2.519041820E+02  2.519041820E+02  0.000000000E+00  0.00000E+00  9.000E+00
      25     1     1     2     0     0  8.977057471E+01  3.909997449E+02  1.361680670E+02  4.417083870E+02  1.250000000E+02  0.00000E+00  9.000E+00
      25     1     1     2     0     0 -5.970090666E+01 -4.006509013E+02  3.847589773E+02  5.724943786E+02  1.250000000E+02  0.00000E+00  9.000E+00
      21     1     1     2   501   512 -3.006966805E+01  9.651156342E+00  4.207838541E+01  5.261102807E+01  0.000000000E+00  0.00000E+00  9.000E+00
#rwgt            1           1   2.7494061048998372E-002           7      296924           0
</event>
<event>
      5   9999  3.19816E-02  1.76858E+02 -1.00000E+00  1.13627E-01
      21    -1     0     0   502   501  0.000000000E+00  0.000000000E+00  9.409826396E+01  9.409826396E+01  0.000000000E+00  0.00000E+00  9.000E+00
      21    -1     0     0   511   502  0.000000000E+00  0.000000000E+00 -2.056901642E+03  2.056901642E+03  0.000000000E+00  0.00000E+00  9.000E+00
      25     1     1     2     0     0 -1.411051142E+02 -3.100859263E+02 -9.382238894E+02  1.005958747E+03  1.250000000E+02  0.00000E+00  9.000E+00
      25     1     1     2     0     0 -3.349043314E+01  2.818897934E+02 -4.715292787E+02  5.644008553E+02  1.250000000E+02  0.00000E+00  9.000E+00
      21     1     1     2   511   501  1.745955473E+02  2.819613295E+01 -5.530502100E+02  5.806403033E+02  7.629394531E-06  0.00000E+00  9.000E+00
#rwgt            1           1   3.0628628718675992E-002           7      297075           0
</event>
<event>
      5   9999  3.19816E-02  2.35273E+01 -1.00000E+00  1.60752E-01
       2    -1     0     0   502     0  0.000000000E+00  0.000000000E+00  2.187001623E+03  2.187001623E+03  0.000000000E+00  0.00000E+00  9.000E+00
      21    -1     0     0   501   502  0.000000000E+00  0.000000000E+00 -4.429270975E+02  4.429270975E+02  0.000000000E+00  0.00000E+00  9.000E+00
      25     1     1     2     0     0  6.200590834E+02 -5.238707786E+02  9.279531821E+02  1.239207798E+03  1.250000000E+02  0.00000E+00  9.000E+00
      25     1     1     2     0     0 -6.064525233E+02  5.430643510E+02  3.037872961E+02  8.778469534E+02  1.250000000E+02  0.00000E+00  9.000E+00
       2     1     1     2   501     0 -1.360656006E+01 -1.919357236E+01  5.123340472E+02  5.128739686E+02  7.629394531E-06  0.00000E+00  9.000E+00
#rwgt            1           1   2.2840373913777776E-002           7      297131           0
</event>
<event>
      5   9999  3.19816E-02  8.38574E+01 -1.00000E+00  1.27367E-01
      21    -1     0     0   502   511  0.000000000E+00  0.000000000E+00  6.152054208E+02  6.152054208E+02  0.000000000E+00  0.00000E+00  9.000E+00
      21    -1     0     0   501   502  0.000000000E+00  0.000000000E+00 -9.428315503E+02  9.428315503E+02  0.000000000E+00  0.00000E+00  9.000E+00
      25     1     1     2     0     0  5.950555131E+02  2.152513059E+02 -5.458081803E+02  8.449590274E+02  1.250000000E+02  0.00000E+00  9.000E+00
      25     1     1     2     0     0 -5.194173621E+02 -2.514582007E+02  1.625053652E+02  6.124202940E+02  1.250000000E+02  0.00000E+00  9.000E+00
      21     1     1     2   501   511 -7.563815107E+01  3.620689483E+01  5.567668553E+01  1.006576497E+02  1.168007728E-06  0.00000E+00  9.000E+00
#rwgt            1           1   2.0890948975382517E-002           7      297398           0
</event>
<event>
      5   9999  3.19816E-02  3.14987E+01 -1.00000E+00  1.51584E-01
      21    -1     0     0   502   501  0.000000000E+00  0.000000000E+00  1.823211340E+02  1.823211340E+02  0.000000000E+00  0.00000E+00  9.000E+00
       1    -1     0     0   501     0  0.000000000E+00  0.000000000E+00 -7.784170012E+02  7.784170012E+02  0.000000000E+00  0.00000E+00  9.000E+00
      25     1     1     2     0     0 -9.618533195E+01 -1.625702315E+02 -5.029666236E+02  5.516168260E+02  1.250000000E+02  0.00000E+00  9.000E+00
      25     1     1     2     0     0  1.020711388E+02  1.316263032E+02  8.741147299E+01  2.258534186E+02  1.250000000E+02  0.00000E+00  9.000E+00
       1     1     1     2   502     0 -5.885806861E+00  3.094392829E+01 -1.805407165E+02  1.832678906E+02  0.000000000E+00  0.00000E+00  9.000E+00
#rwgt            1           1   2.8418373562951470E-002           7      297499           0
</event>
<event>
      5   9999  3.19816E-02  1.14870E+02 -1.00000E+00  1.21179E-01
      -1    -1     0     0     0   501  0.000000000E+00  0.000000000E+00  1.477911617E+03  1.477911617E+03  0.000000000E+00  0.00000E+00  9.000E+00
      21    -1     0     0   501   502  0.000000000E+00  0.000000000E+00 -2.756612323E+02  2.756612323E+02  0.000000000E+00  0.00000E+00  9.000E+00
      25     1     1     2     0     0 -1.436281260E+02  1.300766759E+02  2.893261297E+02  3.699778230E+02  1.250000000E+02  0.00000E+00  9.000E+00
      25     1     1     2     0     0  4.998428718E+01 -1.966043420E+02 -1.711985826E+02  2.934035633E+02  1.250000000E+02  0.00000E+00  9.000E+00
      -1     1     1     2     0   502  9.364383882E+01  6.652766607E+01  1.084122837E+03  1.090191463E+03  1.525878906E-05  0.00000E+00  9.000E+00
#rwgt            1           1   2.8071937098747550E-002           7      297603           0
</event>
<event>
      5   9999  3.19816E-02  1.01550E+02 -1.00000E+00  1.23528E-01
      21    -1     0     0   502   501  0.000000000E+00  0.000000000E+00  1.037362782E+03  1.037362782E+03  0.000000000E+00  0.00000E+00  9.000E+00
       1    -1     0     0   501     0  0.000000000E+00  0.000000000E+00 -1.360471002E+03  1.360471002E+03  0.000000000E+00  0.00000E+00  9.000E+00
      25     1     1     2     0     0 -1.808721859E+02 -5.912802828E+02  7.120855726E+01  6.348407510E+02  1.250000000E+02  0.00000E+00  9.000E+00
      25     1     1     2     0     0  2.762886454E+02  5.565223066E+02  5.342345015E+02  8.289052997E+02  1.250000000E+02  0.00000E+00  9.000E+00
       1     1     1     2   502     0 -9.541645955E+01  3.475797622E+01 -9.285512779E+02  9.340877332E+02  1.525878906E-05  0.00000E+00  9.000E+00
#rwgt            1           1   2.5191247210518818E-002           7      297685           0
</event>
<event>
      5   9999  3.19816E-02  1.28145E+01 -1.00000E+00  1.84079E-01
      21    -1     0     0   511   501  0.000000000E+00  0.000000000E+00  1.352374098E+02  1.352374098E+02  0.000000000E+00  0.00000E+00  9.000E+00
      21    -1     0     0   501   502  0.000000000E+00  0.000000000E+00 -6.643625033E+02  6.643625033E+02  0.000000000E+00  0.00000E+00  9.000E+00
      25     1     1     2     0     0 -2.375060250E+02  9.653968775E+01 -3.175386703E+02  4.268311497E+02  1.250000000E+02  0.00000E+00  9.000E+00
      25     1     1     2     0     0  2.418569723E+02 -1.085929009E+02 -2.081617577E+02  3.595045626E+02  1.250000000E+02  0.00000E+00  9.000E+00
      21     1     1     2   511   502 -4.350947321E+00  1.205321310E+01 -3.424665517E+00  1.326420079E+01  1.397852826E-07  0.00000E+00  9.000E+00
#rwgt            1           1   2.9149080861839899E-002           7      297758           0
</event>
<event>
      5   9999  3.19816E-02  6.80068E+01 -1.00000E+00  1.31859E-01
      21    -1     0     0   502   501  0.000000000E+00  0.000000000E+00  8.255116525E+02  8.255116525E+02  0.000000000E+00  0.00000E+00  9.000E+00
       2    -1     0     0   501     0  0.000000000E+00  0.000000000E+00 -1.340456866E+03  1.340456866E+03  0.000000000E+00  0.00000E+00  9.000E+00
      25     1     1     2     0     0  1.883753616E+02 -4.162295287E+02 -2.780002952E+02  5.492189559E+02  1.250000000E+02  0.00000E+00  9.000E+00
      25     1     1     2     0     0 -2.048892066E+02  4.822009092E+02  5.831482821E+02  7.938414343E+02  1.250000000E+02  0.00000E+00  9.000E+00
       2     1     1     2   502     0  1.651384506E+01 -6.597138054E+01 -8.200932001E+02  8.229081279E+02  0.000000000E+00  0.00000E+00  9.000E+00
#rwgt            1           1   2.3122156895884208E-002           7      298027           0
</event>
<event>
      5   9999  3.19816E-02  2.64399E+02 -1.00000E+00  1.07406E-01
      21    -1     0     0   502   501  0.000000000E+00  0.000000000E+00  1.869403039E+03  1.869403039E+03  0.000000000E+00  0.00000E+00  9.000E+00
      21    -1     0     0   501   511  0.000000000E+00  0.000000000E+00 -3.245469389E+02  3.245469389E+02  0.000000000E+00  0.00000E+00  9.000E+00
      25     1     1     2     0     0  7.229937780E+01  2.216015800E+02  1.048296812E+02  2.845148895E+02  1.250000000E+02  0.00000E+00  9.000E+00
      25     1     1     2     0     0  6.531716033E+01 -4.473639523E+02  1.552717075E+03  1.622022242E+03  1.250000000E+02  0.00000E+00  9.000E+00
      21     1     1     2   502   511 -1.376165381E+02  2.257623723E+02 -1.126906563E+02  2.874128465E+02  3.568322551E-06  0.00000E+00  9.000E+00
#rwgt            1           1   3.0982983186832267E-002           7      298154           0
</event>
<event>
      5   9999  3.19816E-02  7.32678E+01 -1.00000E+00  1.30225E-01
      21    -1     0     0   502   501  0.000000000E+00  0.000000000E+00  2.875308256E+02  2.875308256E+02  0.000000000E+00  0.00000E+00  9.000E+00
      21    -1     0     0   512   502  0.000000000E+00  0.000000000E+00 -5.711265730E+02  5.711265730E+02  0.000000000E+00  0.00000E+00  9.000E+00
      25     1     1     2     0     0 -1.691876555E+02 -8.283112517E+01 -4.403031759E+02  4.949518611E+02  1.250000000E+02  0.00000E+00  9.000E+00
      25     1     1     2     0     0  1.809099211E+02  1.050710777E+01  1.825780205E+02  2.860044273E+02  1.250000000E+02  0.00000E+00  9.000E+00
      21     1     1     2   512   501 -1.172226556E+01  7.232401740E+01 -2.587059209E+01  7.770111028E+01  1.215700987E-06  0.00000E+00  9.000E+00
#rwgt            1           1   2.9014897617856198E-002           7      298204           0
</event>
<event>
      5   9999  3.19816E-02  1.29138E+02 -1.00000E+00  1.19031E-01
      21    -1     0     0   502   501  0.000000000E+00  0.000000000E+00  5.229851953E+02  5.229851953E+02  0.000000000E+00  0.00000E+00  9.000E+00
      21    -1     0     0   511   502  0.000000000E+00  0.000000000E+00 -3.616160899E+02  3.616160899E+02  0.000000000E+00  0.00000E+00  9.000E+00
      25     1     1     2     0     0  2.590487331E+02  3.049975111E+02  1.500600791E+02  4.452782897E+02  1.250000000E+02  0.00000E+00  9.000E+00
      25     1     1     2     0     0 -1.454332687E+02 -2.436117944E+02  8.703045453E+00  3.101584837E+02  1.250000000E+02  0.00000E+00  9.000E+00
      21     1     1     2   511   501 -1.136154644E+02 -6.138571676E+01  2.605980814E+00  1.291645118E+02  8.455670452E-07  0.00000E+00  9.000E+00
#rwgt            1           1   2.8782226636530499E-002           7      298280           0
</event>
<event>
      5   9999  3.19816E-02  1.46474E+01 -1.00000E+00  1.78362E-01
      21    -1     0     0   502   501  0.000000000E+00  0.000000000E+00  4.035636049E+02  4.035636049E+02  0.000000000E+00  0.00000E+00  9.000E+00
      21    -1     0     0   501   512  0.000000000E+00  0.000000000E+00 -4.598421722E+02  4.598421722E+02  0.000000000E+00  0.00000E+00  9.000E+00
      25     1     1     2     0     0 -7.428020636E+00 -2.093104691E+02 -3.697661839E+02  4.429650987E+02  1.250000000E+02  0.00000E+00  9.000E+00
      25     1     1     2     0     0  1.697235488E+01  1.981995678E+02  3.255464047E+02  4.014680450E+02  1.250000000E+02  0.00000E+00  9.000E+00
      21     1     1     2   502   512 -9.544334244E+00  1.111090131E+01 -1.205878816E+01  1.897263334E+01  0.000000000E+00  0.00000E+00  9.000E+00
#rwgt            1           1   2.5975643754421740E-002           7      298363           0
</event>
<event>
      5   9999  3.19816E-02  2.18065E+01 -1.00000E+00  1.63329E-01
      21    -1     0     0   502   511  0.000000000E+00  0.000000000E+00  2.991095876E+02  2.991095876E+02  0.000000000E+00  0.00000E+00  9.000E+00
      21    -1     0     0   501   502  0.000000000E+00  0.000000000E+00 -1.829903087E+02  1.829903087E+02  0.000000000E+00  0.00000E+00  9.000E+00
      25     1     1     2     0     0  1.747369456E+02 -1.803185859E+01  1.114525781E+02  2.427031628E+02  1.250000000E+02  0.00000E+00  9.000E+00
      25     1     1     2     0     0 -1.705318805E+02 -3.365378882E+00 -1.221764774E+01  2.118176549E+02  1.250000000E+02  0.00000E+00  9.000E+00
      21     1     1     2   501   511 -4.205065135E+00  2.139723747E+01  1.688434850E+01  2.757907846E+01  2.384185791E-07  0.00000E+00  9.000E+00
#rwgt            1           1   2.6781422653173514E-002           7      298551           0
</event>
<event>
      5   9999  3.19816E-02  5.86569E+01 -1.00000E+00  1.35231E-01
      21    -1     0     0   502   501  0.000000000E+00  0.000000000E+00  1.457172747E+02  1.457172747E+02  0.000000000E+00  0.00000E+00  9.000E+00
       2    -1     0     0   501     0  0.000000000E+00  0.000000000E+00 -2.619603951E+03  2.619603951E+03  0.000000000E+00  0.00000E+00  9.000E+00
      25     1     1     2     0     0 -2.470968951E+02 -5.006511069E+02 -9.182858534E+02  1.081934524E+03  1.250000000E+02  0.00000E+00  9.000E+00
      25     1     1     2     0     0  3.030789657E+02  4.831399023E+02 -1.387440104E+03  1.505289363E+03  1.250000000E+02  0.00000E+00  9.000E+00
       2     1     1     2   502     0 -5.598207056E+01  1.751120462E+01 -1.681607187E+02  1.780973381E+02  0.000000000E+00  0.00000E+00  9.000E+00
#rwgt            1           1   2.8726727052509893E-002           7      298691           0
</event>
<event>
      5   9999  3.19816E-02  7.32459E+01 -1.00000E+00  1.30231E-01
      21    -1     0     0   502   501  0.000000000E+00  0.000000000E+00  1.327478666E+02  1.327478666E+02  0.000000000E+00  0.00000E+00  9.000E+00
      21    -1     0     0   501   511  0.000000000E+00  0.000000000E+00 -5.360075512E+02  5.360075512E+02  0.000000000E+00  0.00000E+00  9.000E+00
      25     1     1     2     0     0 -7.898041130E+00 -8.751320487E+01  5.926988222E+01  1.638867262E+02  1.250000000E+02  0.00000E+00  9.000E+00
      25     1     1     2     0     0 -1.774613597E+01  1.890312737E+01 -2.636787724E+02  2.929569057E+02  1.250000000E+02  0.00000E+00  9.000E+00
      21     1     1     2   502   511  2.564417710E+01  6.861007750E+01 -1.988507944E+02  2.119117859E+02  2.697398305E-06  0.00000E+00  9.000E+00
#rwgt            1           1   2.7796806424795231E-002           7      298787           0
</event>
<event>
      5   9999  3.19816E-02  7.19021E+01 -1.00000E+00  1.30634E-01
      21    -1     0     0   502   501  0.000000000E+00  0.000000000E+00  1.726895643E+02  1.726895643E+02  0.000000000E+00  0.00000E+00  9.000E+00
      21    -1     0     0   512   502  0.000000000E+00  0.000000000E+00 -9.734839995E+02  9.734839995E+02  0.000000000E+00  0.00000E+00  9.000E+00
      25     1     1     2     0     0 -1.816401540E+02 -2.416049629E+02 -1.678684247E+02  3.676559691E+02  1.250000000E+02  0.00000E+00  9.000E+00
      25     1     1     2     0     0  2.314971861E+02  1.897957541E+02 -3.136195269E+02  4.512156725E+02  1.250000000E+02  0.00000E+00  9.000E+00
      21     1     1     2   512   501 -4.985703209E+01  5.180920880E+01 -3.193064836E+02  3.273019222E+02  3.814697266E-06  0.00000E+00  9.000E+00
#rwgt            1           1   2.8444125406424912E-002           7      298841           0
</event>
<event>
      5   9999  3.19816E-02  1.28349E+02 -1.00000E+00  1.19141E-01
      21    -1     0     0   511   501  0.000000000E+00  0.000000000E+00  1.350074532E+03  1.350074532E+03  0.000000000E+00  0.00000E+00  9.000E+00
      21    -1     0     0   501   502  0.000000000E+00  0.000000000E+00 -1.925573211E+02  1.925573211E+02  0.000000000E+00  0.00000E+00  9.000E+00
      25     1     1     2     0     0 -4.274327899E+00  3.340904854E+02  2.511399283E+02  4.362693960E+02  1.250000000E+02  0.00000E+00  9.000E+00
      25     1     1     2     0     0 -9.216882134E+01 -4.187785215E+02  4.570123234E+02  6.390272337E+02  1.250000000E+02  0.00000E+00  9.000E+00
      21     1     1     2   511   502  9.644314924E+01  8.468803607E+01  4.493649592E+02  4.673352234E+02  5.394796609E-06  0.00000E+00  9.000E+00
#rwgt            1           1   2.8526286334904963E-002           7      298930           0
</event>
<event>
      5   9999  3.19816E-02  7.65053E+01 -1.00000E+00  1.29295E-01
      21    -1     0     0   512   501  0.000000000E+00  0.000000000E+00  6.067466054E+02  6.067466054E+02  0.000000000E+00  0.00000E+00  9.000E+00
      21    -1     0     0   501   502  0.000000000E+00  0.000000000E+00 -4.509558247E+02  4.509558247E+02  0.000000000E+00  0.00000E+00  9.000E+00
      25     1     1     2     0     0 -1.431032156E+02  9.159730473E-01  1.266354708E+02  2.283438456E+02  1.250000000E+02  0.00000E+00  9.000E+00
      25     1     1     2     0     0  2.022952827E+02 -4.938621160E+01 -3.591645021E+02  4.335741215E+02  1.250000000E+02  0.00000E+00  9.000E+00
      21     1     1     2   512   502 -5.919206705E+01  4.847023855E+01  3.883198120E+02  3.957844630E+02  5.394796609E-06  0.00000E+00  9.000E+00
#rwgt            1           1   2.8519581087042591E-002           7      299030           0
</event>
<event>
      5   9999  3.19816E-02  1.60605E+02 -1.00000E+00  1.15230E-01
      21    -1     0     0   511   501  0.000000000E+00  0.000000000E+00  9.640937527E+02  9.640937527E+02  0.000000000E+00  0.00000E+00  9.000E+00
      21    -1     0     0   501   502  0.000000000E+00  0.000000000E+00 -1.030614653E+03  1.030614653E+03  0.000000000E+00  0.00000E+00  9.000E+00
      25     1     1     2     0     0 -2.471501190E+02  7.413902351E+02 -5.045202657E+02  9.385671848E+02  1.250000000E+02  0.00000E+00  9.000E+00
      25     1     1     2     0     0  8.721606172E+01 -7.267253537E+02  1.999624131E+02  7.689904731E+02  1.250000000E+02  0.00000E+00  9.000E+00
      21     1     1     2   511   502  1.599340573E+02 -1.466488142E+01  2.380369521E+02  2.871507479E+02  6.031565972E-06  0.00000E+00  9.000E+00
#rwgt            1           1   2.9728267557524633E-002           7      299099           0
</event>
<event>
      5   9999  3.19816E-02  1.41375E+01 -1.00000E+00  1.79841E-01
      21    -1     0     0   512   501  0.000000000E+00  0.000000000E+00  4.413175251E+02  4.413175251E+02  0.000000000E+00  0.00000E+00  9.000E+00
      21    -1     0     0   501   502  0.000000000E+00  0.000000000E+00 -3.146369867E+02  3.146369867E+02  0.000000000E+00  0.00000E+00  9.000E+00
      25     1     1     2     0     0 -1.314441201E+02 -1.413731182E+02 -2.257822667E+02  3.222833337E+02  1.250000000E+02  0.00000E+00  9.000E+00
      25     1     1     2     0     0  1.297547825E+02  1.554093631E+02  3.388571786E+02  4.140501917E+02  1.250000000E+02  0.00000E+00  9.000E+00
      21     1     1     2   512   502  1.689337540E+00 -1.403624493E+01  1.360562642E+01  1.962098629E+01  1.685873940E-07  0.00000E+00  9.000E+00
#rwgt            1           1   2.8624947188362029E-002           7      299171           0
</event>
<event>
      5   9999  3.19816E-02  2.16874E+02 -1.00000E+00  1.10382E-01
      21    -1     0     0   502   511  0.000000000E+00  0.000000000E+00  3.582070594E+02  3.582070594E+02  0.000000000E+00  0.00000E+00  9.000E+00
      21    -1     0     0   501   502  0.000000000E+00  0.000000000E+00 -1.110635512E+03  1.110635512E+03  0.000000000E+00  0.00000E+00  9.000E+00
      25     1     1     2     0     0 -2.062212861E+02  2.782520229E+02  5.289686433E+01  3.719872113E+02  1.250000000E+02  0.00000E+00  9.000E+00
      25     1     1     2     0     0 -1.006446624E+01 -2.942085670E+02 -8.193223354E+02  8.795305928E+02  1.250000000E+02  0.00000E+00  9.000E+00
      21     1     1     2   501   511  2.162857523E+02  1.595654408E+01  1.399701852E+01  2.173247673E+02  4.373535234E-06  0.00000E+00  9.000E+00
#rwgt            2          11   4.3132229362903484E-003           7      299544           0
</event>
<event>
      5   9999  3.19816E-02  8.41018E+01 -1.00000E+00  1.27307E-01
      21    -1     0     0   512   501  0.000000000E+00  0.000000000E+00  1.717622435E+03  1.717622435E+03  0.000000000E+00  0.00000E+00  9.000E+00
      21    -1     0     0   501   502  0.000000000E+00  0.000000000E+00 -5.673013086E+02  5.673013086E+02  0.000000000E+00  0.00000E+00  9.000E+00
      25     1     1     2     0     0  4.603616279E+02 -5.551423332E+02  1.098909313E+03  1.320356965E+03  1.250000000E+02  0.00000E+00  9.000E+00
      25     1     1     2     0     0 -4.706667401E+02  4.716742446E+02 -1.939788433E+02  7.051642113E+02  1.250000000E+02  0.00000E+00  9.000E+00
      21     1     1     2   512   502  1.030511217E+01  8.346808863E+01  2.453906569E+02  2.594025667E+02  2.697398305E-06  0.00000E+00  9.000E+00
#rwgt            1           1   3.2937582981113357E-002           7      299609           0
</event>
<event>
      5   9999  3.19816E-02  8.09200E+01 -1.00000E+00  1.28110E-01
      21    -1     0     0   502   501  0.000000000E+00  0.000000000E+00  3.280496244E+02  3.280496244E+02  0.000000000E+00  0.00000E+00  9.000E+00
      21    -1     0     0   501   511  0.000000000E+00  0.000000000E+00 -9.503261635E+02  9.503261635E+02  0.000000000E+00  0.00000E+00  9.000E+00
      25     1     1     2     0     0 -8.431261077E+01 -6.323444719E+00 -1.191372626E+02  1.922687952E+02  1.250000000E+02  0.00000E+00  9.000E+00
      25     1     1     2     0     0  1.204806812E+02 -6.606380982E+01  2.595302376E+02  3.191566477E+02  1.250000000E+02  0.00000E+00  9.000E+00
      21     1     1     2   502   511 -3.616807045E+01  7.238725454E+01 -7.626695141E+02  7.669503450E+02  1.078959322E-05  0.00000E+00  9.000E+00
#rwgt            1           1   2.8198421071664471E-002           7      299772           0
</event>
<event>
      5   9999  3.19816E-02  1.66719E+01 -1.00000E+00  1.73166E-01
      21    -1     0     0   502   501  0.000000000E+00  0.000000000E+00  3.146369500E+02  3.146369500E+02  0.000000000E+00  0.00000E+00  9.000E+00
      21    -1     0     0   512   502  0.000000000E+00  0.000000000E+00 -1.701542199E+02  1.701542199E+02  0.000000000E+00  0.00000E+00  9.000E+00
      25     1     1     2     0     0 -5.918336093E+01 -1.363611363E+02  1.762134868E+02  2.622464921E+02  1.250000000E+02  0.00000E+00  9.000E+00
      25     1     1     2     0     0  5.258443583E+01  1.516714966E+02 -2.718539626E+01  2.052642481E+02  1.250000000E+02  0.00000E+00  9.000E+00
      21     1     1     2   512   501  6.598925094E+00 -1.531036033E+01 -4.545360448E+00  1.728042960E+01  1.788139343E-07  0.00000E+00  9.000E+00
#rwgt            1           1   3.0588086579173217E-002           7      299836           0
</event>
<event>
      5   9999  3.19816E-02  2.21244E+02 -1.00000E+00  1.10075E-01
      21    -1     0     0   511   501  0.000000000E+00  0.000000000E+00  7.663602235E+02  7.663602235E+02  0.000000000E+00  0.00000E+00  9.000E+00
      21    -1     0     0   501   502  0.000000000E+00  0.000000000E+00 -7.972792893E+02  7.972792893E+02  0.000000000E+00  0.00000E+00  9.000E+00
      25     1     1     2     0     0 -2.249771733E+01 -6.278091421E+02  1.243880802E+02  6.524935714E+02  1.250000000E+02  0.00000E+00  9.000E+00
      25     1     1     2     0     0  2.432911223E+02  6.136951051E+02 -1.565955888E+02  6.898981306E+02  1.250000000E+02  0.00000E+00  9.000E+00
      21     1     1     2   511   502 -2.207934049E+02  1.411403696E+01  1.288442663E+00  2.212478108E+02  4.382562986E-07  0.00000E+00  9.000E+00
#rwgt            1           1   3.1255758841733629E-002           7      299968           0
</event>
<event>
      5   9999  3.19816E-02  5.07697E+01 -1.00000E+00  1.38698E-01
      21    -1     0     0   502   501  0.000000000E+00  0.000000000E+00  1.080808824E+02  1.080808824E+02  0.000000000E+00  0.00000E+00  9.000E+00
      21    -1     0     0   512   502  0.000000000E+00  0.000000000E+00 -5.789504738E+02  5.789504738E+02  0.000000000E+00  0.00000E+00  9.000E+00
      25     1     1     2     0     0 -1.783960835E+01 -4.289112841E+01  3.554243966E+01  1.380078459E+02  1.250000000E+02  0.00000E+00  9.000E+00
      25     1     1     2     0     0  5.958015968E+01  7.179245347E+01 -3.226019686E+02  3.583308275E+02  1.250000000E+02  0.00000E+00  9.000E+00
      21     1     1     2   512   501 -4.174055132E+01 -2.890132506E+01 -1.838100625E+02  1.906926828E+02  3.814697266E-06  0.00000E+00  9.000E+00
#rwgt            1           1   2.5983465078909224E-002           7      300014           0
</event>
<event>
      5   9999  3.19816E-02  7.07407E+01 -1.00000E+00  1.30990E-01
       2    -1     0     0   502     0  0.000000000E+00  0.000000000E+00  3.604445543E+03  3.604445543E+03  0.000000000E+00  0.00000E+00  9.000E+00
      21    -1     0     0   501   502  0.000000000E+00  0.000000000E+00 -1.552146468E+02  1.552146468E+02  0.000000000E+00  0.00000E+00  9.000E+00
      25     1     1     2     0     0  3.874440724E+02  1.389452415E+01  1.550622522E+02  4.358615251E+02  1.250000000E+02  0.00000E+00  9.000E+00
      25     1     1     2     0     0 -3.230386335E+02 -4.315510076E+01  2.217100280E+03  2.244409716E+03  1.250000000E+02  0.00000E+00  9.000E+00
       2     1     1     2   501     0 -6.440543893E+01  2.926057660E+01  1.077068364E+03  1.079388949E+03  2.157918644E-05  0.00000E+00  9.000E+00
#rwgt            1           1   1.1960831151065783E-002           7      300090           0
</event>
<event>
      5   9999  3.19816E-02  1.05353E+01 -1.00000E+00  1.93175E-01
      21    -1     0     0   502   501  0.000000000E+00  0.000000000E+00  8.217617907E+01  8.217617907E+01  0.000000000E+00  0.00000E+00  9.000E+00
      21    -1     0     0   501   511  0.000000000E+00  0.000000000E+00 -6.266725200E+02  6.266725200E+02  0.000000000E+00  0.00000E+00  9.000E+00
      25     1     1     2     0     0 -1.940800785E+01 -1.862924933E+02 -2.454263938E+02  3.330775865E+02  1.250000000E+02  0.00000E+00  9.000E+00
      25     1     1     2     0     0  1.513184645E+01  1.766640657E+02 -2.838423910E+02  3.572543462E+02  1.250000000E+02  0.00000E+00  9.000E+00
      21     1     1     2   502   511  4.276161396E+00  9.628427621E+00 -1.522755601E+01  1.851676637E+01  1.685873940E-07  0.00000E+00  9.000E+00
#rwgt            1           1   2.7283175800963750E-002           7      300171           0
</event>
<event>
      5   9999  3.19816E-02  1.47038E+01 -1.00000E+00  1.78204E-01
      21    -1     0     0   502   501  0.000000000E+00  0.000000000E+00  6.573663268E+02  6.573663268E+02  0.000000000E+00  0.00000E+00  9.000E+00
      21    -1     0     0   501   512  0.000000000E+00  0.000000000E+00 -2.364325456E+02  2.364325456E+02  0.000000000E+00  0.00000E+00  9.000E+00
      25     1     1     2     0     0  2.349886699E+01  7.349831925E+01  6.147284155E+02  6.320365690E+02  1.250000000E+02  0.00000E+00  9.000E+00
      25     1     1     2     0     0 -9.175693067E+00 -7.017451299E+01 -1.996336739E+02  2.459415771E+02  1.250000000E+02  0.00000E+00  9.000E+00
      21     1     1     2   502   512 -1.432317392E+01 -3.323806256E+00  5.839039492E+00  1.582072633E+01  2.795705652E-07  0.00000E+00  9.000E+00
#rwgt            1           1   2.8146065598853715E-002           7      300353           0
</event>
<event>
      5   9999  3.19816E-02  4.02352E+01 -1.00000E+00  1.44682E-01
      21    -1     0     0   511   501  0.000000000E+00  0.000000000E+00  5.633145592E+02  5.633145592E+02  0.000000000E+00  0.00000E+00  9.000E+00
      21    -1     0     0   501   502  0.000000000E+00  0.000000000E+00 -8.293703994E+01  8.293703994E+01  0.000000000E+00  0.00000E+00  9.000E+00
      25     1     1     2     0     0 -6.865993096E+01 -8.896290788E+01  1.521664839E+02  2.267338174E+02  1.250000000E+02  0.00000E+00  9.000E+00
      25     1     1     2     0     0  4.684795204E+01  1.227728581E+02  1.457448339E+02  2.326681369E+02  1.250000000E+02  0.00000E+00  9.000E+00
      21     1     1     2   511   502  2.181197892E+01 -3.380995022E+01  1.824662014E+02  1.868496449E+02  0.000000000E+00  0.00000E+00  9.000E+00
#rwgt            1           1   2.1559536246840882E-002           7      300510           0
</event>
<event>
      5   9999  3.19816E-02  5.79305E+01 -1.00000E+00  1.35523E-01
      21    -1     0     0   502   501  0.000000000E+00  0.000000000E+00  6.234883515E+02  6.234883515E+02  0.000000000E+00  0.00000E+00  9.000E+00
      21    -1     0     0   501   512  0.000000000E+00  0.000000000E+00 -3.039850119E+02  3.039850119E+02  0.000000000E+00  0.00000E+00  9.000E+00
      25     1     1     2     0     0  1.627996632E+01 -2.661473487E+02  7.851323167E+01  3.047766003E+02  1.250000000E+02  0.00000E+00  9.000E+00
      25     1     1     2     0     0  7.920501843E+00  3.187807729E+02  3.559454075E+02  4.939696839E+02  1.250000000E+02  0.00000E+00  9.000E+00
      21     1     1     2   502   512 -2.420046816E+01 -5.263342417E+01 -1.149552996E+02  1.287270792E+02  1.348699152E-06  0.00000E+00  9.000E+00
#rwgt            1           1   2.9078319430713977E-002           7      300623           0
</event>
<event>
      5   9999  3.19816E-02  9.67452E+01 -1.00000E+00  1.24478E-01
      21    -1     0     0   502   511  0.000000000E+00  0.000000000E+00  9.641349575E+02  9.641349575E+02  0.000000000E+00  0.00000E+00  9.000E+00
      21    -1     0     0   501   502  0.000000000E+00  0.000000000E+00 -1.349223251E+03  1.349223251E+03  0.000000000E+00  0.00000E+00  9.000E+00
      25     1     1     2     0     0  5.679217626E+02 -4.958064143E+02  7.540552833E+01  7.678998128E+02  1.250000000E+02  0.00000E+00  9.000E+00
      25     1     1     2     0     0 -6.338081256E+02  5.666485963E+02 -8.111563461E+02  1.181694965E+03  1.250000000E+02  0.00000E+00  9.000E+00
      21     1     1     2   501   511  6.588636306E+01 -7.084218208E+01  3.506625244E+02  3.637634308E+02  3.814697266E-06  0.00000E+00  9.000E+00
#rwgt            1           1   2.9282293870171588E-002           7      300726           0
</event>
<event>
      5   9999  3.19816E-02  1.57429E+02 -1.00000E+00  1.15568E-01
      21    -1     0     0   502   501  0.000000000E+00  0.000000000E+00  9.331203297E+01  9.331203297E+01  0.000000000E+00  0.00000E+00  9.000E+00
       3    -1     0     0   501     0  0.000000000E+00  0.000000000E+00 -1.842194937E+03  1.842194937E+03  0.000000000E+00  0.00000E+00  9.000E+00
      25     1     1     2     0     0 -9.619758919E+01 -1.137424854E+02 -1.295974027E+03  1.310482738E+03  1.250000000E+02  0.00000E+00  9.000E+00
      25     1     1     2     0     0 -3.942794814E+01  1.936775255E+02 -3.915257664E+02  4.560515023E+02  1.250000000E+02  0.00000E+00  9.000E+00
       3     1     1     2   502     0  1.356255373E+02 -7.993504014E+01 -6.138311095E+01  1.689727295E+02  5.352483826E-06  0.00000E+00  9.000E+00
#rwgt            1           1   2.7296301634321302E-002           7      300819           0
</event>
<event>
      5   9999  3.19816E-02  2.80828E+01 -1.00000E+00  1.55059E-01
       2    -1     0     0   502     0  0.000000000E+00  0.000000000E+00  2.693206638E+03  2.693206638E+03  0.000000000E+00  0.00000E+00  9.000E+00
      21    -1     0     0   501   502  0.000000000E+00  0.000000000E+00 -1.237281743E+02  1.237281743E+02  0.000000000E+00  0.00000E+00  9.000E+00
      25     1     1     2     0     0 -1.838313620E+02  1.183168032E+02  4.886475699E+01  2.565260222E+02  1.250000000E+02  0.00000E+00  9.000E+00
      25     1     1     2     0     0  1.563130223E+02 -1.239192262E+02  6.802293797E+02  7.198102143E+02  1.250000000E+02  0.00000E+00  9.000E+00
       2     1     1     2   501     0  2.751833974E+01  5.602422940E+00  1.840384327E+03  1.840598576E+03  2.157918644E-05  0.00000E+00  9.000E+00
#rwgt            1           1   2.8860268794252970E-002           7      300867           0
</event>
<event>
      5   9999  3.19816E-02  8.51403E+01 -1.00000E+00  1.27054E-01
       2    -1     0     0   502     0  0.000000000E+00  0.000000000E+00  1.413788713E+03  1.413788713E+03  0.000000000E+00  0.00000E+00  9.000E+00
      21    -1     0     0   501   502  0.000000000E+00  0.000000000E+00 -1.997684665E+02  1.997684665E+02  0.000000000E+00  0.00000E+00  9.000E+00
      25     1     1     2     0     0 -7.437821220E+01 -2.596364096E+02  3.317537322E+02  4.456778236E+02  1.250000000E+02  0.00000E+00  9.000E+00
      25     1     1     2     0     0  1.578707644E+02  2.763058210E+02  6.727450990E+01  3.484522129E+02  1.250000000E+02  0.00000E+00  9.000E+00
       2     1     1     2   501     0 -8.349255217E+01 -1.666941140E+01  8.149920048E+02  8.194271435E+02  0.000000000E+00  0.00000E+00  9.000E+00
#rwgt            1           1   2.8993680783467715E-002           7      300970           0
</event>
<event>
      5   9999  3.19816E-02  1.25154E+01 -1.00000E+00  1.85128E-01
      21    -1     0     0   502   501  0.000000000E+00  0.000000000E+00  5.495000569E+02  5.495000569E+02  0.000000000E+00  0.00000E+00  9.000E+00
       2    -1     0     0   501     0  0.000000000E+00  0.000000000E+00 -7.778806329E+02  7.778806329E+02  0.000000000E+00  0.00000E+00  9.000E+00
      25     1     1     2     0     0  9.824575379E+01 -3.059632665E+02 -1.925852617E+02  3.949428207E+02  1.250000000E+02  0.00000E+00  9.000E+00
      25     1     1     2     0     0 -9.727959979E+01  2.934852336E+02  3.861943490E+02  5.102626559E+02  1.250000000E+02  0.00000E+00  9.000E+00
       2     1     1     2   502     0 -9.661539981E-01  1.247803291E+01 -4.219896633E+02  4.221752132E+02  5.394796609E-06  0.00000E+00  9.000E+00
#rwgt            1           1   2.9547788694255818E-002           7      301083           0
</event>
<event>
      5   9999  3.19816E-02  9.57936E+02 -1.00000E+00  9.14414E-02
       2    -1     0     0   502     0  0.000000000E+00  0.000000000E+00  3.047210390E+03  3.047210390E+03  0.000000000E+00  0.00000E+00  9.000E+00
      21    -1     0     0   501   502  0.000000000E+00  0.000000000E+00 -5.822000592E+02  5.822000592E+02  0.000000000E+00  0.00000E+00  9.000E+00
      25     1     1     2     0     0 -1.655454788E+01 -5.816067592E+00 -1.232384492E+02  1.764103031E+02  1.250000000E+02  0.00000E+00  9.000E+00
      25     1     1     2     0     0  6.883609866E+02 -6.770582775E+02  3.785438013E+02  1.044590431E+03  1.250000000E+02  0.00000E+00  9.000E+00
       2     1     1     2   501     0 -6.718064387E+02  6.828743451E+02  2.209704979E+03  2.408409715E+03  3.051757812E-05  0.00000E+00  9.000E+00
#rwgt            2          18   1.6447292503079906E-003           7      301392           0
</event>
<event>
      5   9999  3.19816E-02  9.09167E+01 -1.00000E+00  1.25717E-01
      21    -1     0     0   502   501  0.000000000E+00  0.000000000E+00  1.824195045E+03  1.824195045E+03  0.000000000E+00  0.00000E+00  9.000E+00
      21    -1     0     0   501   511  0.000000000E+00  0.000000000E+00 -5.485471068E+02  5.485471068E+02  0.000000000E+00  0.00000E+00  9.000E+00
      25     1     1     2     0     0 -8.411223316E+02  4.613344455E+02  6.171369764E+02  1.147518756E+03  1.250000000E+02  0.00000E+00  9.000E+00
      25     1     1     2     0     0  7.636556330E+02 -5.089238523E+02  6.547330343E+02  1.134228266E+03  1.250000000E+02  0.00000E+00  9.000E+00
      21     1     1     2   502   511  7.746669861E+01  4.758940678E+01  3.777927949E+00  9.099513048E+01  1.407351369E-06  0.00000E+00  9.000E+00
#rwgt            1           1   3.1178627747941581E-002           7      301411           0
</event>
<event>
      5   9999  3.19816E-02  1.96395E+02 -1.00000E+00  1.11936E-01
      21    -1     0     0   512   501  0.000000000E+00  0.000000000E+00  3.009197517E+02  3.009197517E+02  0.000000000E+00  0.00000E+00  9.000E+00
      21    -1     0     0   501   502  0.000000000E+00  0.000000000E+00 -2.276561669E+03  2.276561669E+03  0.000000000E+00  0.00000E+00  9.000E+00
      25     1     1     2     0     0  1.582336953E+02 -4.248795539E+02 -4.169259616E+02  6.285004337E+02  1.250000000E+02  0.00000E+00  9.000E+00
      25     1     1     2     0     0 -3.253360736E+02  3.216917088E+02 -1.661110577E+03  1.727496010E+03  1.250000000E+02  0.00000E+00  9.000E+00
      21     1     1     2   512   502  1.671023782E+02  1.031878451E+02  1.023946218E+02  2.214849764E+02  5.394796609E-06  0.00000E+00  9.000E+00
#rwgt            2          11   5.1775044304132045E-003           7      301540           0
</event>
<event>
      5   9999  3.19816E-02  4.06390E+02 -1.00000E+00  1.01479E-01
       1    -1     0     0   502     0  0.000000000E+00  0.000000000E+00  2.459797034E+03  2.459797034E+03  0.000000000E+00  0.00000E+00  9.000E+00
      21    -1     0     0   501   502  0.000000000E+00  0.000000000E+00 -1.684209229E+03  1.684209229E+03  0.000000000E+00  0.00000E+00  9.000E+00
      25     1     1     2     0     0  1.963057213E+02  9.399183717E+01 -2.482176148E+02  3.529977138E+02  1.250000000E+02  0.00000E+00  9.000E+00
      25     1     1     2     0     0  1.740595715E+02  7.328862911E+01 -1.356999117E+03  1.375768716E+03  1.250000000E+02  0.00000E+00  9.000E+00
       1     1     1     2   501     0 -3.703652927E+02 -1.672804663E+02  2.380804537E+03  2.415239832E+03  3.051757812E-05  0.00000E+00  9.000E+00
#rwgt            2          17   2.2847653570131535E-002           7      301950           0
</event>
<event>
      5   9999  3.19816E-02  1.01222E+02 -1.00000E+00  1.23591E-01
      21    -1     0     0   502   501  0.000000000E+00  0.000000000E+00  6.396407468E+02  6.396407468E+02  0.000000000E+00  0.00000E+00  9.000E+00
      21    -1     0     0   501   511  0.000000000E+00  0.000000000E+00 -1.548054142E+02  1.548054142E+02  0.000000000E+00  0.00000E+00  9.000E+00
      25     1     1     2     0     0  1.891800756E+02 -9.009804934E+01  5.634194061E+01  2.504120080E+02  1.250000000E+02  0.00000E+00  9.000E+00
      25     1     1     2     0     0 -9.601903047E+01  1.296810383E+02  3.809876538E+02  4.322191785E+02  1.250000000E+02  0.00000E+00  9.000E+00
      21     1     1     2   502   511 -9.316104514E+01 -3.958298900E+01  4.750573828E+01  1.118149745E+02  9.536743164E-07  0.00000E+00  9.000E+00
#rwgt            1           1   3.0617930978790280E-002           7      301969           0
</event>
<event>
      5   9999  3.19816E-02  2.87538E+01 -1.00000E+00  1.54331E-01
      21    -1     0     0   512   501  0.000000000E+00  0.000000000E+00  3.707056934E+02  3.707056934E+02  0.000000000E+00  0.00000E+00  9.000E+00
      21    -1     0     0   501   502  0.000000000E+00  0.000000000E+00 -2.784678526E+02  2.784678526E+02  0.000000000E+00  0.00000E+00  9.000E+00
      25     1     1     2     0     0 -3.477896052E+01  1.413850895E+02 -2.054540127E+02  2.811328351E+02  1.250000000E+02  0.00000E+00  9.000E+00
      25     1     1     2     0     0  5.250929357E+01 -1.187484909E+02  2.835877869E+02  3.360140813E+02  1.250000000E+02  0.00000E+00  9.000E+00
      21     1     1     2   512   502 -1.773033306E+01 -2.263659865E+01  1.410406655E+01  3.202662958E+01  5.057621821E-07  0.00000E+00  9.000E+00
#rwgt            1           1   2.7767412660111495E-002           7      302085           0
</event>
<event>
      5   9999  3.19816E-02  7.04045E+01 -1.00000E+00  1.31094E-01
      21    -1     0     0   511   501  0.000000000E+00  0.000000000E+00  2.118499529E+02  2.118499529E+02  0.000000000E+00  0.00000E+00  9.000E+00
      21    -1     0     0   501   502  0.000000000E+00  0.000000000E+00 -1.101268552E+03  1.101268552E+03  0.000000000E+00  0.00000E+00  9.000E+00
      25     1     1     2     0     0  9.099458219E+01 -2.158104016E+02 -7.563971388E+02  8.016331923E+02  1.250000000E+02  0.00000E+00  9.000E+00
      25     1     1     2     0     0 -1.553010125E+02  2.444717593E+02 -2.308913677E+02  3.909228431E+02  1.250000000E+02  0.00000E+00  9.000E+00
      21     1     1     2   511   502  6.430643033E+01 -2.866135768E+01  9.786990710E+01  1.205624698E+02  2.697398305E-06  0.00000E+00  9.000E+00
#rwgt            1           1   3.3647540909677677E-002           7      302273           0
</event>
<event>
      5   9999  3.19816E-02  1.20930E+02 -1.00000E+00  1.20226E-01
      21    -1     0     0   502   512  0.000000000E+00  0.000000000E+00  2.574231998E+03  2.574231998E+03  0.000000000E+00  0.00000E+00  9.000E+00
      21    -1     0     0   501   502  0.000000000E+00  0.000000000E+00 -6.293365822E+01  6.293365822E+01  0.000000000E+00  0.00000E+00  9.000E+00
      25     1     1     2     0     0  1.088682877E+02  1.193688753E+02  1.439347744E+03  1.453770326E+03  1.250000000E+02  0.00000E+00  9.000E+00
      25     1     1     2     0     0  1.042792611E+01 -9.955900823E+01  7.101731431E+01  1.751833231E+02  1.250000000E+02  0.00000E+00  9.000E+00
      21     1     1     2   501   512 -1.192962138E+02 -1.980986704E+01  1.000933281E+03  1.008212007E+03  1.525878906E-05  0.00000E+00  9.000E+00
#rwgt            1           1   3.2672062517288866E-002           7      302382           0
</event>
<event>
      5   9999  3.19816E-02  3.67176E+01 -1.00000E+00  1.47185E-01
      21    -1     0     0   502   511  0.000000000E+00  0.000000000E+00  4.866341913E+02  4.866341913E+02  0.000000000E+00  0.00000E+00  9.000E+00
      21    -1     0     0   501   502  0.000000000E+00  0.000000000E+00 -2.744786497E+02  2.744786497E+02  0.000000000E+00  0.00000E+00  9.000E+00
      25     1     1     2     0     0 -2.243081100E+02  1.778010784E+02 -8.024654368E+01  3.224776883E+02  1.250000000E+02  0.00000E+00  9.000E+00
      25     1     1     2     0     0  1.877083427E+02 -1.807398693E+02  2.464923516E+02  3.798483930E+02  1.250000000E+02  0.00000E+00  9.000E+00
      21     1     1     2   501   511  3.659976734E+01  2.938790951E+00  4.590973366E+01  5.878675961E+01  0.000000000E+00  0.00000E+00  9.000E+00
#rwgt            1           1   2.7735577496284157E-002           7      302477           0
</event>
<event>
      5   9999  3.19816E-02  6.54308E+01 -1.00000E+00  1.32723E-01
       3    -1     0     0   502     0  0.000000000E+00  0.000000000E+00  2.684992904E+02  2.684992904E+02  0.000000000E+00  0.00000E+00  9.000E+00
      21    -1     0     0   501   502  0.000000000E+00  0.000000000E+00 -1.323291074E+03  1.323291074E+03  0.000000000E+00  0.00000E+00  9.000E+00
      25     1     1     2     0     0 -3.947638498E+01  4.847166023E+02 -5.246219123E+02  7.261967505E+02  1.250000000E+02  0.00000E+00  9.000E+00
      25     1     1     2     0     0  7.103522874E+01 -4.273996763E+02 -6.123988334E+02  7.605089205E+02  1.250000000E+02  0.00000E+00  9.000E+00
       3     1     1     2   501     0 -3.155884375E+01 -5.731692601E+01  8.222896200E+01  1.050846935E+02  1.907348633E-06  0.00000E+00  9.000E+00
#rwgt            1           1   3.0254349864432130E-002           7      302549           0
</event>
<event>
      5   9999  3.19816E-02  3.47245E+02 -1.00000E+00  1.03569E-01
      21    -1     0     0   502   501  0.000000000E+00  0.000000000E+00  1.088400273E+03  1.088400273E+03  0.000000000E+00  0.00000E+00  9.000E+00
      21    -1     0     0   501   511  0.000000000E+00  0.000000000E+00 -5.339783821E+02  5.339783821E+02  0.000000000E+00  0.00000E+00  9.000E+00
      25     1     1     2     0     0  2.660891502E+02  2.286522953E+02  7.751497141E+02  8.599810389E+02  1.250000000E+02  0.00000E+00  9.000E+00
      25     1     1     2     0     0  7.725369252E+01 -2.805658879E+02  5.186734829E+01  3.209370223E+02  1.250000000E+02  0.00000E+00  9.000E+00
      21     1     1     2   502   511 -3.433428427E+02  5.191359262E+01 -2.725951712E+02  4.414605941E+02  3.814697266E-06  0.00000E+00  9.000E+00
#rwgt            1           1   2.7165938157178837E-002           7      302628           0
</event>
<event>
      5   9999  3.19816E-02  6.53302E+01 -1.00000E+00  1.32757E-01
      21    -1     0     0   502   501  0.000000000E+00  0.000000000E+00  1.326644429E+02  1.326644429E+02  0.000000000E+00  0.00000E+00  9.000E+00
      21    -1     0     0   501   512  0.000000000E+00  0.000000000E+00 -3.690380525E+02  3.690380525E+02  0.000000000E+00  0.00000E+00  9.000E+00
      25     1     1     2     0     0  1.418298260E+02  3.844766489E+01 -9.719336117E+01  2.160219247E+02  1.250000000E+02  0.00000E+00  9.000E+00
      25     1     1     2     0     0 -7.738287772E+01 -2.774108500E+01 -2.158614792E+01  1.511576639E+02  1.250000000E+02  0.00000E+00  9.000E+00
      21     1     1     2   502   512 -6.444694830E+01 -1.070657989E+01 -1.175941005E+02  1.345229069E+02  1.348699152E-06  0.00000E+00  9.000E+00
#rwgt            1           1   3.2671327403659668E-002           7      302661           0
</event>
<event>
      5   9999  3.19816E-02  1.70269E+02 -1.00000E+00  1.14253E-01
       2    -1     0     0   502     0  0.000000000E+00  0.000000000E+00  3.455519576E+03  3.455519576E+03  0.000000000E+00  0.00000E+00  9.000E+00
      21    -1     0     0   501   502  0.000000000E+00  0.000000000E+00 -5.838483735E+02  5.838483735E+02  0.000000000E+00  0.00000E+00  9.000E+00
      25     1     1     2     0     0  1.787490451E+02 -2.815019623E+01  1.806239570E+02  2.845938659E+02  1.250000000E+02  0.00000E+00  9.000E+00
      25     1     1     2     0     0 -4.945753972E+01  1.389441083E+02 -5.119584989E+02  5.472458479E+02  1.250000000E+02  0.00000E+00  9.000E+00
       2     1     1     2   501     0 -1.292915054E+02 -1.107939121E+02  3.203005744E+03  3.207528236E+03  6.103515625E-05  0.00000E+00  9.000E+00
#rwgt            2          18   3.6171720120243139E-002           7      302846           0
</event>
<event>
      5   9999  3.19816E-02  2.21690E+01 -1.00000E+00  1.62762E-01
      21    -1     0     0   511   501  0.000000000E+00  0.000000000E+00  3.689032345E+02  3.689032345E+02  0.000000000E+00  0.00000E+00  9.000E+00
      21    -1     0     0   501   502  0.000000000E+00  0.000000000E+00 -5.740344494E+02  5.740344494E+02  0.000000000E+00  0.00000E+00  9.000E+00
      25     1     1     2     0     0 -2.193013250E+02  3.648103564E+02 -1.018619798E+02  4.551708802E+02  1.250000000E+02  0.00000E+00  9.000E+00
      25     1     1     2     0     0  1.984068827E+02 -3.722190628E+02 -1.243598240E+02  4.571681175E+02  1.250000000E+02  0.00000E+00  9.000E+00
      21     1     1     2   511   502  2.089444231E+01  7.408706442E+00  2.109058893E+01  3.059868611E+01  0.000000000E+00  0.00000E+00  9.000E+00
#rwgt            1           1   2.6173905291135710E-002           7      302925           0
</event>
<event>
      5   9999  3.19816E-02  3.47938E+01 -1.00000E+00  1.48699E-01
      21    -1     0     0   502   501  0.000000000E+00  0.000000000E+00  7.136715909E+02  7.136715909E+02  0.000000000E+00  0.00000E+00  9.000E+00
      21    -1     0     0   501   512  0.000000000E+00  0.000000000E+00 -5.479902562E+02  5.479902562E+02  0.000000000E+00  0.00000E+00  9.000E+00
      25     1     1     2     0     0  1.096794956E+02 -1.511381930E+02 -3.582667630E+02  4.229094686E+02  1.250000000E+02  0.00000E+00  9.000E+00
      25     1     1     2     0     0 -7.519826425E+01  1.557916112E+02  6.624318189E+02  6.959645966E+02  1.250000000E+02  0.00000E+00  9.000E+00
      21     1     1     2   502   512 -3.448123139E+01 -4.653418267E+00 -1.384837212E+02  1.427877819E+02  1.907348633E-06  0.00000E+00  9.000E+00
#rwgt            1           1   2.8781353808167962E-002           7      303170           0
</event>
<event>
      5   9999  3.19816E-02  2.31862E+02 -1.00000E+00  1.09360E-01
      21    -1     0     0   511   501  0.000000000E+00  0.000000000E+00  1.659836918E+03  1.659836918E+03  0.000000000E+00  0.00000E+00  9.000E+00
      21    -1     0     0   501   502  0.000000000E+00  0.000000000E+00 -6.723142529E+02  6.723142529E+02  0.000000000E+00  0.00000E+00  9.000E+00
      25     1     1     2     0     0  4.296391303E+01 -4.755924248E+02  9.408709915E+02  1.062495776E+03  1.250000000E+02  0.00000E+00  9.000E+00
      25     1     1     2     0     0 -1.661881464E+02  6.719996978E+02 -3.685214683E+02  7.941254098E+02  1.250000000E+02  0.00000E+00  9.000E+00
      21     1     1     2   511   502  1.232242334E+02 -1.964072730E+02  4.151731421E+02  4.755299849E+02  7.629394531E-06  0.00000E+00  9.000E+00
#rwgt            1           1   3.4374355734085378E-002           7      303256           0
</event>
<event>
      5   9999  3.19816E-02  1.63351E+01 -1.00000E+00  1.73965E-01
       1    -1     0     0   502     0  0.000000000E+00  0.000000000E+00  2.497099736E+02  2.497099736E+02  0.000000000E+00  0.00000E+00  9.000E+00
      21    -1     0     0   501   502  0.000000000E+00  0.000000000E+00 -2.570247888E+03  2.570247888E+03  0.000000000E+00  0.00000E+00  9.000E+00
      25     1     1     2     0     0  5.056921138E+01  1.296178724E+02 -5.336144901E+02  5.654444818E+02  1.250000000E+02  0.00000E+00  9.000E+00
      25     1     1     2     0     0 -6.536927854E+01 -1.365310827E+02 -2.015658476E+03  2.025195786E+03  1.250000000E+02  0.00000E+00  9.000E+00
       1     1     1     2   501     0  1.480006717E+01  6.913210359E+00  2.287350523E+02  2.293175933E+02  6.607249480E-06  0.00000E+00  9.000E+00
#rwgt            1           1   4.3579690110845004E-002           7      303296           0
</event>
<event>
      5   9999  3.19816E-02  5.83627E+01 -1.00000E+00  1.35349E-01
      21    -1     0     0   502   501  0.000000000E+00  0.000000000E+00  1.372207148E+03  1.372207148E+03  0.000000000E+00  0.00000E+00  9.000E+00
      21    -1     0     0   501   511  0.000000000E+00  0.000000000E+00 -3.770020721E+02  3.770020721E+02  0.000000000E+00  0.00000E+00  9.000E+00
      25     1     1     2     0     0  3.916050056E+02 -3.729012266E+02  5.802214752E+02  8.029269988E+02  1.250000000E+02  0.00000E+00  9.000E+00
      25     1     1     2     0     0 -4.411213136E+02  3.420087520E+02  5.535104975E+02  7.959628575E+02  1.250000000E+02  0.00000E+00  9.000E+00
      21     1     1     2   502   511  4.951630795E+01  3.089247458E+01 -1.385268972E+02  1.503193633E+02  3.814697266E-06  0.00000E+00  9.000E+00
#rwgt            1           1   2.5605192320376089E-002           7      303455           0
</event>
<event>
      5   9999  3.19816E-02  8.35805E+01 -1.00000E+00  1.27436E-01
      21    -1     0     0   502   512  0.000000000E+00  0.000000000E+00  9.486170930E+01  9.486170930E+01  0.000000000E+00  0.00000E+00  9.000E+00
      21    -1     0     0   501   502  0.000000000E+00  0.000000000E+00 -1.575880090E+03  1.575880090E+03  0.000000000E+00  0.00000E+00  9.000E+00
      25     1     1     2     0     0 -1.607961696E+02  5.448230919E+01 -1.016473276E+03  1.038107245E+03  1.250000000E+02  0.00000E+00  9.000E+00
      25     1     1     2     0     0  1.059318542E+02  8.570105828E+00 -5.112203460E+02  5.369043180E+02  1.250000000E+02  0.00000E+00  9.000E+00
      21     1     1     2   501   512  5.486431546E+01 -6.305241501E+01  4.667524115E+01  9.573023705E+01  3.754619538E-06  0.00000E+00  9.000E+00
#rwgt            1           1   3.8380620389135721E-002           7      303579           0
</event>
<event>
      5   9999  3.19816E-02  6.47268E+00 -1.00000E+00  2.20476E-01
      21    -1     0     0   502   511  0.000000000E+00  0.000000000E+00  1.082356116E+02  1.082356116E+02  0.000000000E+00  0.00000E+00  9.000E+00
      21    -1     0     0   501   502  0.000000000E+00  0.000000000E+00 -3.138663861E+02  3.138663861E+02  0.000000000E+00  0.00000E+00  9.000E+00
      25     1     1     2     0     0 -6.955526411E-01  1.196331069E+02 -1.004172020E+02  2.000529393E+02  1.250000000E+02  0.00000E+00  9.000E+00
      25     1     1     2     0     0 -2.454720573E+00 -1.139787813E+02 -1.189850126E+02  2.068323511E+02  1.250000000E+02  0.00000E+00  9.000E+00
      21     1     1     2   501   511  3.150273214E+00 -5.654325655E+00  1.377144009E+01  1.521670733E+01  2.384185791E-07  0.00000E+00  9.000E+00
#rwgt            1           1   2.4028935323714831E-002           7      303624           0
</event>
<event>
      5   9999  3.19816E-02  8.09917E+01 -1.00000E+00  1.28091E-01
      21    -1     0     0   502   512  0.000000000E+00  0.000000000E+00  2.266493633E+02  2.266493633E+02  0.000000000E+00  0.00000E+00  9.000E+00
      21    -1     0     0   501   502  0.000000000E+00  0.000000000E+00 -5.247640358E+02  5.247640358E+02  0.000000000E+00  0.00000E+00  9.000E+00
      25     1     1     2     0     0 -1.693165519E+02  1.016358568E+01 -2.920574676E+02  3.601304730E+02  1.250000000E+02  0.00000E+00  9.000E+00
      25     1     1     2     0     0  9.296403198E+01 -3.718123309E+01 -1.542783825E+02  2.223771001E+02  1.250000000E+02  0.00000E+00  9.000E+00
      21     1     1     2   501   512  7.635251988E+01  2.701764741E+01  1.482211777E+02  1.689058260E+02  0.000000000E+00  0.00000E+00  9.000E+00
#rwgt            1           1   2.9648982038914341E-002           7      303941           0
</event>
<event>
      5   9999  3.19816E-02  2.01789E+02 -1.00000E+00  1.11507E-01
      21    -1     0     0   502   501  0.000000000E+00  0.000000000E+00  1.621224416E+02  1.621224416E+02  0.000000000E+00  0.00000E+00  9.000E+00
      21    -1     0     0   501   511  0.000000000E+00  0.000000000E+00 -7.437140392E+02  7.437140392E+02  0.000000000E+00  0.00000E+00  9.000E+00
      25     1     1     2     0     0 -6.959104591E+01 -6.029313306E+01 -4.240964424E+01  1.609402171E+02  1.250000000E+02  0.00000E+00  9.000E+00
      25     1     1     2     0     0 -1.296455979E+02  9.228355527E+01 -3.973180539E+01  2.062228212E+02  1.250000000E+02  0.00000E+00  9.000E+00
      21     1     1     2   502   511  1.992366438E+02 -3.199042221E+01 -4.994501480E+02  5.386734425E+02  5.394796609E-06  0.00000E+00  9.000E+00
#rwgt            1           1   3.6889351332878378E-002           7      303993           0
</event>
<event>
      5   9999  3.19816E-02  1.64620E+02 -1.00000E+00  1.14815E-01
      21    -1     0     0   502   501  0.000000000E+00  0.000000000E+00  1.289454385E+03  1.289454385E+03  0.000000000E+00  0.00000E+00  9.000E+00
       2    -1     0     0   501     0  0.000000000E+00  0.000000000E+00 -2.771838766E+02  2.771838766E+02  0.000000000E+00  0.00000E+00  9.000E+00
      25     1     1     2     0     0 -5.017836868E+01 -2.289140194E+02  5.427456963E+02  6.042494417E+02  1.250000000E+02  0.00000E+00  9.000E+00
      25     1     1     2     0     0  1.610193454E+02  1.072013700E+02  6.667975606E+02  7.054525853E+02  1.250000000E+02  0.00000E+00  9.000E+00
       2     1     1     2   502     0 -1.108409768E+02  1.217126494E+02 -1.972727487E+02  2.569362344E+02  3.814697266E-06  0.00000E+00  9.000E+00
#rwgt            1           1   3.2128965020363887E-002           7      304053           0
</event>
<event>
      5   9999  3.19816E-02  5.50326E+01 -1.00000E+00  1.36740E-01
       1    -1     0     0   502     0  0.000000000E+00  0.000000000E+00  2.749779068E+03  2.749779068E+03  0.000000000E+00  0.00000E+00  9.000E+00
      21    -1     0     0   501   502  0.000000000E+00  0.000000000E+00 -1.422118882E+03  1.422118882E+03  0.000000000E+00  0.00000E+00  9.000E+00
      25     1     1     2     0     0 -4.740362985E+02 -5.361430253E+02 -7.248948608E+02  1.026283253E+03  1.250000000E+02  0.00000E+00  9.000E+00
      25     1     1     2     0     0  4.629331958E+02  5.900439540E+02 -2.816145955E+02  8.107963936E+02  1.250000000E+02  0.00000E+00  9.000E+00
       1     1     1     2   501     0  1.110310276E+01 -5.390092869E+01  2.334169642E+03  2.334818303E+03  5.285799584E-05  0.00000E+00  9.000E+00
#rwgt            1           1   2.5132050439860658E-002           7      304097           0
</event>
<event>
      5   9999  3.19816E-02  8.46476E+01 -1.00000E+00  1.27174E-01
      21    -1     0     0   511   501  0.000000000E+00  0.000000000E+00  9.254261621E+02  9.254261621E+02  0.000000000E+00  0.00000E+00  9.000E+00
      21    -1     0     0   501   502  0.000000000E+00  0.000000000E+00 -8.484255263E+02  8.484255263E+02  0.000000000E+00  0.00000E+00  9.000E+00
      25     1     1     2     0     0 -1.603728981E+02 -5.496562055E+02  6.296354175E+02  8.601785685E+02  1.250000000E+02  0.00000E+00  9.000E+00
      25     1     1     2     0     0  7.578618610E+01  5.528674905E+02 -5.895371877E+02  8.213312996E+02  1.250000000E+02  0.00000E+00  9.000E+00
      21     1     1     2   511   502  8.458671204E+01 -3.211284971E+00  3.690240586E+01  9.234182023E+01  1.966049969E-06  0.00000E+00  9.000E+00
#rwgt            1           1   2.8418079425632129E-002           7      304230           0
</event>
<event>
      5   9999  3.19816E-02  8.81014E+01 -1.00000E+00  1.26354E-01
      21    -1     0     0   512   501  0.000000000E+00  0.000000000E+00  6.122749413E+02  6.122749413E+02  0.000000000E+00  0.00000E+00  9.000E+00
      21    -1     0     0   501   502  0.000000000E+00  0.000000000E+00 -2.517400601E+02  2.517400601E+02  0.000000000E+00  0.00000E+00  9.000E+00
      25     1     1     2     0     0  2.961384181E+02  2.104936440E+02  2.356025912E+02  4.507095714E+02  1.250000000E+02  0.00000E+00  9.000E+00
      25     1     1     2     0     0 -2.265570464E+02 -1.564539314E+02  7.309361730E+01  3.110845621E+02  1.250000000E+02  0.00000E+00  9.000E+00
      21     1     1     2   512   502 -6.958137173E+01 -5.403971260E+01  5.183867273E+01  1.022208678E+02  1.784161275E-06  0.00000E+00  9.000E+00
#rwgt            1           1   2.8192754574349974E-002           7      304308           0
</event>
<event>
      5   9999  3.19816E-02  7.13767E+01 -1.00000E+00  1.30794E-01
      21    -1     0     0   502   511  0.000000000E+00  0.000000000E+00  4.316275053E+02  4.316275053E+02  0.000000000E+00  0.00000E+00  9.000E+00
      21    -1     0     0   501   502  0.000000000E+00  0.000000000E+00 -6.949959234E+02  6.949959234E+02  0.000000000E+00  0.00000E+00  9.000E+00
      25     1     1     2     0     0 -3.860510594E+02  4.985648845E+01  1.707544224E+02  4.430611274E+02  1.250000000E+02  0.00000E+00  9.000E+00
      25     1     1     2     0     0  3.857060342E+02 -1.212323685E+02 -4.417887975E+02  6.117751005E+02  1.250000000E+02  0.00000E+00  9.000E+00
      21     1     1     2   501   511  3.450251185E-01  7.137588004E+01  7.665956971E+00  7.178720074E+01  2.007181435E-06  0.00000E+00  9.000E+00
#rwgt            1           1   2.8842722532987704E-002           7      304375           0
</event>
<event>
      5   9999  3.19816E-02  2.49109E+01 -1.00000E+00  1.58867E-01
      21    -1     0     0   512   501  0.000000000E+00  0.000000000E+00  4.586454292E+02  4.586454292E+02  0.000000000E+00  0.00000E+00  9.000E+00
      21    -1     0     0   501   502  0.000000000E+00  0.000000000E+00 -6.411808161E+02  6.411808161E+02  0.000000000E+00  0.00000E+00  9.000E+00
      25     1     1     2     0     0  4.797171369E+02 -1.277303580E+02  7.123291474E+01  5.168584951E+02  1.250000000E+02  0.00000E+00  9.000E+00
      25     1     1     2     0     0 -4.605240623E+02  1.436104276E+02 -2.507968506E+02  5.578802982E+02  1.250000000E+02  0.00000E+00  9.000E+00
      21     1     1     2   512   502 -1.919307463E+01 -1.588006967E+01 -2.971451083E+00  2.508745200E+01  4.986882368E-07  0.00000E+00  9.000E+00
#rwgt            1           1   2.4643829788554315E-002           7      304506           0
</event>
<event>
      5   9999  3.19816E-02  7.38249E+01 -1.00000E+00  1.30061E-01
       2    -1     0     0   502     0  0.000000000E+00  0.000000000E+00  1.407681288E+03  1.407681288E+03  0.000000000E+00  0.00000E+00  9.000E+00
      21    -1     0     0   501   502  0.000000000E+00  0.000000000E+00 -5.766984298E+01  5.766984298E+01  0.000000000E+00  0.00000E+00  9.000E+00
      25     1     1     2     0     0 -1.735646339E+02  4.237580327E+01  3.247161682E+02  3.911342234E+02  1.250000000E+02  0.00000E+00  9.000E+00
      25     1     1     2     0     0  1.106734203E+02 -3.712952899E+00  2.855449034E+02  3.307919041E+02  1.250000000E+02  0.00000E+00  9.000E+00
       2     1     1     2   501     0  6.289121364E+01 -3.866285037E+01  7.397503736E+02  7.434250036E+02  1.078959322E-05  0.00000E+00  9.000E+00
#rwgt            1           1   2.7564217519906290E-002           7      304731           0
</event>
<event>
      5   9999  3.19816E-02  1.72113E+02 -1.00000E+00  1.14075E-01
       2    -1     0     0   502     0  0.000000000E+00  0.000000000E+00  2.079065488E+03  2.079065488E+03  0.000000000E+00  0.00000E+00  9.000E+00
      21    -1     0     0   501   502  0.000000000E+00  0.000000000E+00 -1.325662044E+03  1.325662044E+03  0.000000000E+00  0.00000E+00  9.000E+00
      25     1     1     2     0     0 -4.576653327E+02  9.527092342E+02 -3.308736794E+02  1.114546918E+03  1.250000000E+02  0.00000E+00  9.000E+00
      25     1     1     2     0     0  5.911421979E+02 -8.440498094E+02 -1.457177707E+02  1.048202198E+03  1.250000000E+02  0.00000E+00  9.000E+00
       2     1     1     2   501     0 -1.334768652E+02 -1.086594248E+02  1.229994895E+03  1.241978416E+03  2.642899792E-05  0.00000E+00  9.000E+00
#rwgt            1           1   3.3030786439096030E-002           7      304776           0
</event>
<event>
      5   9999  3.19816E-02  3.25362E+02 -1.00000E+00  1.04459E-01
      21    -1     0     0   502   511  0.000000000E+00  0.000000000E+00  1.234207373E+03  1.234207373E+03  0.000000000E+00  0.00000E+00  9.000E+00
      21    -1     0     0   501   502  0.000000000E+00  0.000000000E+00 -2.789740904E+02  2.789740904E+02  0.000000000E+00  0.00000E+00  9.000E+00
      25     1     1     2     0     0  2.756224514E+02 -9.838704887E+00 -7.685104165E+00  3.029003081E+02  1.250000000E+02  0.00000E+00  9.000E+00
      25     1     1     2     0     0 -1.673620218E+02 -2.969841412E+02  2.968493093E+02  4.689926854E+02  1.250000000E+02  0.00000E+00  9.000E+00
      21     1     1     2   501   511 -1.082604296E+02  3.068228461E+02  6.660690771E+02  7.412884695E+02  1.078959322E-05  0.00000E+00  9.000E+00
#rwgt            1           1   2.8231428996678298E-002           7      304849           0
</event>
<event>
      5   9999  3.19816E-02  6.78240E+01 -1.00000E+00  1.31919E-01
      21    -1     0     0   502   501  0.000000000E+00  0.000000000E+00  1.998812127E+02  1.998812127E+02  0.000000000E+00  0.00000E+00  9.000E+00
      21    -1     0     0   512   502  0.000000000E+00  0.000000000E+00 -3.885010622E+02  3.885010622E+02  0.000000000E+00  0.00000E+00  9.000E+00
      25     1     1     2     0     0  1.933957998E+02  1.075978036E+02 -1.102240348E+02  2.770443296E+02  1.250000000E+02  0.00000E+00  9.000E+00
      25     1     1     2     0     0 -1.262598450E+02 -9.796162517E+01  6.112260195E+00  2.029787876E+02  1.250000000E+02  0.00000E+00  9.000E+00
      21     1     1     2   512   501 -6.713595475E+01 -9.636178403E+00 -8.450807479E+01  1.083591577E+02  1.348699152E-06  0.00000E+00  9.000E+00
#rwgt            1           1   2.2791191419378819E-002           7      304881           0
</event>
<event>
      5   9999  3.19816E-02  8.76584E+01 -1.00000E+00  1.26457E-01
      21    -1     0     0   502   501  0.000000000E+00  0.000000000E+00  3.241201694E+02  3.241201694E+02  0.000000000E+00  0.00000E+00  9.000E+00
      21    -1     0     0   511   502  0.000000000E+00  0.000000000E+00 -5.174888853E+02  5.174888853E+02  0.000000000E+00  0.00000E+00  9.000E+00
      25     1     1     2     0     0  1.055819720E+02  2.681391759E+02  1.529669869E+02  3.493852738E+02  1.250000000E+02  0.00000E+00  9.000E+00
      25     1     1     2     0     0 -1.207878230E+02 -1.818097310E+02 -3.049048837E+02  3.952675860E+02  1.250000000E+02  0.00000E+00  9.000E+00
      21     1     1     2   511   501  1.520585096E+01 -8.632944486E+01 -4.143081914E+01  9.695619490E+01  1.348699152E-06  0.00000E+00  9.000E+00
#rwgt            1           1   2.7985223908472912E-002           7      304960           0
</event>
<event>
      5   9999  3.19816E-02  9.84797E+01 -1.00000E+00  1.24128E-01
      21    -1     0     0   512   501  0.000000000E+00  0.000000000E+00  6.355333782E+02  6.355333782E+02  0.000000000E+00  0.00000E+00  9.000E+00
      21    -1     0     0   501   502  0.000000000E+00  0.000000000E+00 -3.122960782E+02  3.122960782E+02  0.000000000E+00  0.00000E+00  9.000E+00
      25     1     1     2     0     0 -1.370209605E+02  1.314439162E+02 -2.097452400E+02  3.093061791E+02  1.250000000E+02  0.00000E+00  9.000E+00
      25     1     1     2     0     0  2.098463821E+02 -6.515134298E+01  3.704825349E+02  4.485114382E+02  1.250000000E+02  0.00000E+00  9.000E+00
      21     1     1     2   512   502 -7.282542160E+01 -6.629257319E+01  1.625000052E+02  1.900118390E+02  3.303624740E-06  0.00000E+00  9.000E+00
#rwgt            1           1   2.7264194173738203E-002           7      305052           0
</event>
<event>
      5   9999  3.19816E-02  2.45125E+01 -1.00000E+00  1.59394E-01
      21    -1     0     0   502   511  0.000000000E+00  0.000000000E+00  2.906997506E+03  2.906997506E+03  0.000000000E+00  0.00000E+00  9.000E+00
      21    -1     0     0   501   502  0.000000000E+00  0.000000000E+00 -4.896350319E+01  4.896350319E+01  0.000000000E+00  0.00000E+00  9.000E+00
      25     1     1     2     0     0  1.372686347E+02 -2.265105637E+02  5.286201523E+02  6.043293629E+02  1.250000000E+02  0.00000E+00  9.000E+00
      25     1     1     2     0     0 -1.171870125E+02  2.405672700E+02  2.216269422E+03  2.235862375E+03  1.250000000E+02  0.00000E+00  9.000E+00
      21     1     1     2   501   511 -2.008162217E+01 -1.405670633E+01  1.131444283E+02  1.157692713E+02  1.348699152E-06  0.00000E+00  9.000E+00
#rwgt            1           1   5.4148131055753584E-002           7      305090           0
</event>
<event>
      5   9999  3.19816E-02  1.56812E+02 -1.00000E+00  1.15634E-01
      21    -1     0     0   502   501  0.000000000E+00  0.000000000E+00  5.107038998E+02  5.107038998E+02  0.000000000E+00  0.00000E+00  9.000E+00
      21    -1     0     0   501   512  0.000000000E+00  0.000000000E+00 -3.129342743E+02  3.129342743E+02  0.000000000E+00  0.00000E+00  9.000E+00
      25     1     1     2     0     0 -2.564077418E+02 -6.388006857E+01  3.251933713E+02  4.372657338E+02  1.250000000E+02  0.00000E+00  9.000E+00
      25     1     1     2     0     0  1.020211425E+02  3.640455462E+01 -1.555519295E+02  2.270572789E+02  1.250000000E+02  0.00000E+00  9.000E+00
      21     1     1     2   502   512  1.543865993E+02  2.747551395E+01  2.812818375E+01  1.593151613E+02  3.090257978E-06  0.00000E+00  9.000E+00
#rwgt            1           1   2.7604117920728782E-002           7      305217           0
</event>
<event>
      5   9999  3.19816E-02  1.69626E+01 -1.00000E+00  1.72496E-01
      21    -1     0     0   502   511  0.000000000E+00  0.000000000E+00  4.795994011E+02  4.795994011E+02  0.000000000E+00  0.00000E+00  9.000E+00
      21    -1     0     0   501   502  0.000000000E+00  0.000000000E+00 -4.752756255E+02  4.752756255E+02  0.000000000E+00  0.00000E+00  9.000E+00
      25     1     1     2     0     0  5.998564086E+01  1.537261117E+02 -2.500191782E+02  3.245991128E+02  1.250000000E+02  0.00000E+00  9.000E+00
      25     1     1     2     0     0 -7.692113805E+01 -1.527673146E+02 -1.280275651E+02  2.475293343E+02  1.250000000E+02  0.00000E+00  9.000E+00
      21     1     1     2   501   511  1.693549719E+01 -9.587971224E-01  3.823705190E+02  3.827465795E+02  5.394796609E-06  0.00000E+00  9.000E+00
#rwgt            1           1   2.6354131503703655E-002           7      305291           0
</event>
<event>
      5   9999  3.19816E-02  3.77045E+01 -1.00000E+00  1.46450E-01
      21    -1     0     0   502   501  0.000000000E+00  0.000000000E+00  6.740650793E+02  6.740650793E+02  0.000000000E+00  0.00000E+00  9.000E+00
      21    -1     0     0   512   502  0.000000000E+00  0.000000000E+00 -1.773814289E+03  1.773814289E+03  0.000000000E+00  0.00000E+00  9.000E+00
      25     1     1     2     0     0 -7.833931568E+02  1.183912482E+02 -1.162378047E+03  1.412256722E+03  1.250000000E+02  0.00000E+00  9.000E+00
      25     1     1     2     0     0  8.165207752E+02 -1.003858848E+02  2.305993183E+02  8.634723781E+02  1.250000000E+02  0.00000E+00  9.000E+00
      21     1     1     2   512   501 -3.312761841E+01 -1.800536346E+01 -1.679704819E+02  1.721502687E+02  1.907348633E-06  0.00000E+00  9.000E+00
#rwgt            1           1   2.7499967093360347E-002           7      305445           0
</event>
<event>
      5   9999  3.19816E-02  1.00387E+01 -1.00000E+00  1.95563E-01
      21    -1     0     0   511   501  0.000000000E+00  0.000000000E+00  8.307907430E+02  8.307907430E+02  0.000000000E+00  0.00000E+00  9.000E+00
      21    -1     0     0   501   502  0.000000000E+00  0.000000000E+00 -2.882858391E+02  2.882858391E+02  0.000000000E+00  0.00000E+00  9.000E+00
      25     1     1     2     0     0  2.228636765E+02 -3.625667953E+02  1.062604559E+02  4.561131262E+02  1.250000000E+02  0.00000E+00  9.000E+00
      25     1     1     2     0     0 -2.279034838E+02  3.712487111E+02  3.409226270E+02  5.671144867E+02  1.250000000E+02  0.00000E+00  9.000E+00
      21     1     1     2   511   502  5.039807297E+00 -8.681915808E+00  9.532182107E+01  9.584896917E+01  1.348699152E-06  0.00000E+00  9.000E+00
#rwgt            1           1   2.6394388261902591E-002           7      305595           0
</event>
<event>
      5   9999  3.19816E-02  1.51407E+02 -1.00000E+00  1.16233E-01
      21    -1     0     0   512   501  0.000000000E+00  0.000000000E+00  2.829315782E+03  2.829315782E+03  0.000000000E+00  0.00000E+00  9.000E+00
      21    -1     0     0   501   502  0.000000000E+00  0.000000000E+00 -8.881318696E+01  8.881318696E+01  0.000000000E+00  0.00000E+00  9.000E+00
      25     1     1     2     0     0  8.449809099E+01  2.077034240E+02  2.165252018E+02  3.358404424E+02  1.250000000E+02  0.00000E+00  9.000E+00
      25     1     1     2     0     0 -3.098214450E+01 -3.493367315E+02  1.420937368E+03  1.468905732E+03  1.250000000E+02  0.00000E+00  9.000E+00
      21     1     1     2   512   502 -5.351594650E+01  1.416333074E+02  1.103040025E+03  1.113382794E+03  1.525878906E-05  0.00000E+00  9.000E+00
#rwgt            1           1   2.9199561887453825E-002           7      305881           0
</event>
<event>
      5   9999  3.19816E-02  1.19442E+02 -1.00000E+00  1.20454E-01
       1    -1     0     0   502     0  0.000000000E+00  0.000000000E+00  1.323534602E+03  1.323534602E+03  0.000000000E+00  0.00000E+00  9.000E+00
      21    -1     0     0   501   502  0.000000000E+00  0.000000000E+00 -2.015998871E+02  2.015998871E+02  0.000000000E+00  0.00000E+00  9.000E+00
      25     1     1     2     0     0  1.154824032E+02  1.524741229E+02  1.824535650E+02  2.924018588E+02  1.250000000E+02  0.00000E+00  9.000E+00
      25     1     1     2     0     0 -1.726051805E+02 -4.757693802E+01 -5.975069255E+01  2.263874083E+02  1.250000000E+02  0.00000E+00  9.000E+00
       1     1     1     2   501     0  5.712277732E+01 -1.048971849E+02  9.992318424E+02  1.006345222E+03  0.000000000E+00  0.00000E+00  9.000E+00
#rwgt            1           1   2.7784745735976894E-002           7      305949           0
</event>
<event>
      5   9999  3.19816E-02  8.58170E+01 -1.00000E+00  1.26891E-01
      21    -1     0     0   511   501  0.000000000E+00  0.000000000E+00  5.402694954E+01  5.402694954E+01  0.000000000E+00  0.00000E+00  9.000E+00
      21    -1     0     0   501   502  0.000000000E+00  0.000000000E+00 -1.413305700E+03  1.413305700E+03  0.000000000E+00  0.00000E+00  9.000E+00
      25     1     1     2     0     0 -1.259417085E+01 -2.033911808E+02 -4.395498819E+02  5.003555578E+02  1.250000000E+02  0.00000E+00  9.000E+00
      25     1     1     2     0     0 -4.753391025E+01  1.421606430E+02 -7.704635157E+02  7.948006983E+02  1.250000000E+02  0.00000E+00  9.000E+00
      21     1     1     2   511   502  6.012808110E+01  6.123053782E+01 -1.492653533E+02  1.721763938E+02  0.000000000E+00  0.00000E+00  9.000E+00
#rwgt            1           1   3.0308322957868471E-002           7      305998           0
</event>
<event>
      5   9999  3.19816E-02  3.23586E+02 -1.00000E+00  1.04535E-01
       3    -1     0     0   502     0  0.000000000E+00  0.000000000E+00  4.416501384E+02  4.416501384E+02  0.000000000E+00  0.00000E+00  9.000E+00
      21    -1     0     0   501   502  0.000000000E+00  0.000000000E+00 -6.934589172E+02  6.934589172E+02  0.000000000E+00  0.00000E+00  9.000E+00
      25     1     1     2     0     0  9.045384097E+00 -2.222434014E+02  4.588450800E+01  2.592379920E+02  1.250000000E+02  0.00000E+00  9.000E+00
      25     1     1     2     0     0 -3.172921370E+02  3.206895535E+02 -5.491405731E+01  4.713349591E+02  1.250000000E+02  0.00000E+00  9.000E+00
       3     1     1     2   501     0  3.082467529E+02 -9.844615217E+01 -2.427792295E+02  4.045361045E+02  5.394796609E-06  0.00000E+00  9.000E+00
#rwgt            1           1   2.9032182423547759E-002           7      306083           0
</event>
<event>
      5   9999  3.19816E-02  3.57727E+01 -1.00000E+00  1.47914E-01
      21    -1     0     0   502   501  0.000000000E+00  0.000000000E+00  2.196032266E+02  2.196032266E+02  0.000000000E+00  0.00000E+00  9.000E+00
       2    -1     0     0   501     0  0.000000000E+00  0.000000000E+00 -1.920312322E+03  1.920312322E+03  0.000000000E+00  0.00000E+00  9.000E+00
      25     1     1     2     0     0  8.383693881E+01  2.453246645E+02  1.170499686E+01  2.880535198E+02  1.250000000E+02  0.00000E+00  9.000E+00
      25     1     1     2     0     0 -4.944912466E+01 -2.551817475E+02 -2.296935158E+02  3.687099827E+02  1.250000000E+02  0.00000E+00  9.000E+00
       2     1     1     2   502     0 -3.438781415E+01  9.857082995E+00 -1.482720576E+03  1.483152046E+03  3.051757812E-05  0.00000E+00  9.000E+00
#rwgt            1           1   2.9269017267790597E-002           7      306110           0
</event>
<event>
      5   9999  3.19816E-02  3.42767E+01 -1.00000E+00  1.49126E-01
      21    -1     0     0   502   511  0.000000000E+00  0.000000000E+00  4.713952925E+02  4.713952925E+02  0.000000000E+00  0.00000E+00  9.000E+00
      21    -1     0     0   501   502  0.000000000E+00  0.000000000E+00 -1.214343275E+03  1.214343275E+03  0.000000000E+00  0.00000E+00  9.000E+00
      25     1     1     2     0     0  9.736427704E+01  5.020113178E+01  1.899628817E+02  2.524100879E+02  1.250000000E+02  0.00000E+00  9.000E+00
      25     1     1     2     0     0 -1.289036472E+02 -3.677880426E+01 -1.174805622E+03  1.189017275E+03  1.250000000E+02  0.00000E+00  9.000E+00
      21     1     1     2   501   511  3.153937013E+01 -1.342232752E+01  2.418947579E+02  2.443112045E+02  2.697398305E-06  0.00000E+00  9.000E+00
#rwgt            1           1   3.5024232451888952E-002           7      306238           0
</event>
<event>
      5   9999  3.19816E-02  5.98821E+01 -1.00000E+00  1.34749E-01
      21    -1     0     0   502   501  0.000000000E+00  0.000000000E+00  4.292379941E+02  4.292379941E+02  0.000000000E+00  0.00000E+00  9.000E+00
      21    -1     0     0   501   512  0.000000000E+00  0.000000000E+00 -4.409675907E+02  4.409675907E+02  0.000000000E+00  0.00000E+00  9.000E+00
      25     1     1     2     0     0  1.681128551E+02 -2.992655822E+02  1.653482704E+01  3.656777560E+02  1.250000000E+02  0.00000E+00  9.000E+00
      25     1     1     2     0     0 -1.840795799E+02  2.415514235E+02  1.160224886E+02  3.483081966E+02  1.250000000E+02  0.00000E+00  9.000E+00
      21     1     1     2   502   512  1.596672478E+01  5.771415867E+01 -1.442869123E+02  1.562196322E+02  1.907348633E-06  0.00000E+00  9.000E+00
#rwgt            1           1   2.7792463077606775E-002           7      306343           0
</event>
<event>
      5   9999  3.19816E-02  2.08908E+01 -1.00000E+00  1.64823E-01
      21    -1     0     0   502   501  0.000000000E+00  0.000000000E+00  6.227533587E+02  6.227533587E+02  0.000000000E+00  0.00000E+00  9.000E+00
      21    -1     0     0   501   511  0.000000000E+00  0.000000000E+00 -6.456255900E+02  6.456255900E+02  0.000000000E+00  0.00000E+00  9.000E+00
      25     1     1     2     0     0  4.388079893E+02  5.785325420E+01 -8.352659875E+01  4.674410585E+02  1.250000000E+02  0.00000E+00  9.000E+00
      25     1     1     2     0     0 -4.560965379E+02 -6.958068520E+01  2.975971054E+02  5.630759814E+02  1.250000000E+02  0.00000E+00  9.000E+00
      21     1     1     2   502   511  1.728854860E+01  1.172743101E+01 -2.369427380E+02  2.378619088E+02  0.000000000E+00  0.00000E+00  9.000E+00
#rwgt            1           1   2.9326639118365853E-002           7      306463           0
</event>
<event>
      5   9999  3.19816E-02  1.31580E+01 -1.00000E+00  1.82917E-01
      21    -1     0     0   502   501  0.000000000E+00  0.000000000E+00  6.531773263E+02  6.531773263E+02  0.000000000E+00  0.00000E+00  9.000E+00
      21    -1     0     0   512   502  0.000000000E+00  0.000000000E+00 -7.632603408E+02  7.632603408E+02  0.000000000E+00  0.00000E+00  9.000E+00
      25     1     1     2     0     0 -3.550164009E+02  1.785301772E+01  7.881589928E+01  3.849575575E+02  1.250000000E+02  0.00000E+00  9.000E+00
      25     1     1     2     0     0  3.465421069E+02 -7.787277320E+00  3.406211361E+02  5.017966041E+02  1.250000000E+02  0.00000E+00  9.000E+00
      21     1     1     2   512   501  8.474293964E+00 -1.006574040E+01 -5.295200499E+02  5.296835055E+02  1.078959322E-05  0.00000E+00  9.000E+00
#rwgt            1           1   2.9527760735608824E-002           7      306663           0
</event>
<event>
      5   9999  3.19816E-02  8.76848E+01 -1.00000E+00  1.26451E-01
      21    -1     0     0   502   511  0.000000000E+00  0.000000000E+00  2.097498318E+02  2.097498318E+02  0.000000000E+00  0.00000E+00  9.000E+00
      21    -1     0     0   501   502  0.000000000E+00  0.000000000E+00 -3.046503619E+02  3.046503619E+02  0.000000000E+00  0.00000E+00  9.000E+00
      25     1     1     2     0     0  1.195861283E+02 -6.887497121E+01  1.099032689E+01  1.865218245E+02  1.250000000E+02  0.00000E+00  9.000E+00
      25     1     1     2     0     0 -5.017955346E+01  1.529003113E+01 -1.713250071E+02  2.184697478E+02  1.250000000E+02  0.00000E+00  9.000E+00
      21     1     1     2   501   511 -6.940657482E+01  5.358494008E+01  6.543415010E+01  1.094086214E+02  9.536743164E-07  0.00000E+00  9.000E+00
#rwgt            1           1   2.7471334440585367E-002           7      306839           0
</event>
<event>
      5   9999  3.19816E-02  4.29091E+01 -1.00000E+00  1.42974E-01
      21    -1     0     0   502   501  0.000000000E+00  0.000000000E+00  5.190329631E+02  5.190329631E+02  0.000000000E+00  0.00000E+00  9.000E+00
       2    -1     0     0   501     0  0.000000000E+00  0.000000000E+00 -7.150877570E+02  7.150877570E+02  0.000000000E+00  0.00000E+00  9.000E+00
      25     1     1     2     0     0  1.823857659E+02  9.801114275E+01 -3.188107024E+01  2.439511310E+02  1.250000000E+02  0.00000E+00  9.000E+00
      25     1     1     2     0     0 -1.475587689E+02 -1.230764764E+02  3.802807544E+02  4.440268702E+02  1.250000000E+02  0.00000E+00  9.000E+00
       2     1     1     2   502     0 -3.482699696E+01  2.506533368E+01 -5.444544780E+02  5.461427188E+02  7.629394531E-06  0.00000E+00  9.000E+00
#rwgt            2          13   1.1249526251406270E-003           7      306925           0
</event>
<event>
      5   9999  3.19816E-02  1.31096E+02 -1.00000E+00  1.18760E-01
      21    -1     0     0   502   501  0.000000000E+00  0.000000000E+00  3.037301797E+02  3.037301797E+02  0.000000000E+00  0.00000E+00  9.000E+00
      -1    -1     0     0     0   502  0.000000000E+00  0.000000000E+00 -9.879385426E+02  9.879385426E+02  0.000000000E+00  0.00000E+00  9.000E+00
      25     1     1     2     0     0  2.832220250E+02 -5.467688662E+01  1.017442779E+02  3.304257488E+02  1.250000000E+02  0.00000E+00  9.000E+00
      25     1     1     2     0     0 -2.005509219E+02 -4.706599445E+01 -7.941405959E+02  8.298916593E+02  1.250000000E+02  0.00000E+00  9.000E+00
      -1     1     1     2     0   501 -8.267110313E+01  1.017428811E+02  8.187955048E+00  1.313513142E+02  1.484143686E-06  0.00000E+00  9.000E+00
#rwgt            1           1   2.8200494690297288E-002           7      306944           0
</event>
<event>
      5   9999  3.19816E-02  5.13023E+01 -1.00000E+00  1.38441E-01
       2    -1     0     0   502     0  0.000000000E+00  0.000000000E+00  1.847839720E+03  1.847839720E+03  0.000000000E+00  0.00000E+00  9.000E+00
      21    -1     0     0   501   502  0.000000000E+00  0.000000000E+00 -3.634789575E+02  3.634789575E+02  0.000000000E+00  0.00000E+00  9.000E+00
      25     1     1     2     0     0  3.017009009E+02  2.457884322E+02 -1.448395175E+02  4.336344922E+02  1.250000000E+02  0.00000E+00  9.000E+00
      25     1     1     2     0     0 -2.529121079E+02 -2.299271943E+02  3.754850946E+02  5.229197885E+02  1.250000000E+02  0.00000E+00  9.000E+00
       2     1     1     2   501     0 -4.878879298E+01 -1.586123794E+01  1.253715185E+03  1.254764397E+03  1.525878906E-05  0.00000E+00  9.000E+00
#rwgt            1           1   2.7722231075261859E-002           7      307025           0
</event>
<event>
      5   9999  3.19816E-02  7.53216E+01 -1.00000E+00  1.29629E-01
      21    -1     0     0   502   501  0.000000000E+00  0.000000000E+00  3.031894643E+02  3.031894643E+02  0.000000000E+00  0.00000E+00  9.000E+00
      21    -1     0     0   511   502  0.000000000E+00  0.000000000E+00 -1.302154648E+03  1.302154648E+03  0.000000000E+00  0.00000E+00  9.000E+00
      25     1     1     2     0     0  1.321657177E+02 -2.531892977E+02 -8.289059115E+02  8.855973168E+02  1.250000000E+02  0.00000E+00  9.000E+00
      25     1     1     2     0     0 -1.159914873E+02  1.796248209E+02  2.146410564E+02  3.277421006E+02  1.250000000E+02  0.00000E+00  9.000E+00
      21     1     1     2   511   501 -1.617423035E+01  7.356447682E+01 -3.847003285E+02  3.920046948E+02  0.000000000E+00  0.00000E+00  9.000E+00
#rwgt            1           1   2.8606500005617371E-002           7      307085           0
</event>
<event>
      5   9999  3.19816E-02  1.98423E+01 -1.00000E+00  1.66653E-01
      21    -1     0     0   512   501  0.000000000E+00  0.000000000E+00  4.979888926E+02  4.979888926E+02  0.000000000E+00  0.00000E+00  9.000E+00
      21    -1     0     0   501   502  0.000000000E+00  0.000000000E+00 -4.819882590E+02  4.819882590E+02  0.000000000E+00  0.00000E+00  9.000E+00
      25     1     1     2     0     0  3.374624854E+02 -8.138827664E+01 -3.054761315E+02  4.790048512E+02  1.250000000E+02  0.00000E+00  9.000E+00
      25     1     1     2     0     0 -3.363030806E+02  6.157984570E+01  3.093494679E+02  4.777174193E+02  1.250000000E+02  0.00000E+00  9.000E+00
      21     1     1     2   512   502 -1.159404809E+00  1.980843093E+01  1.212729711E+01  2.325488101E+01  3.371747881E-07  0.00000E+00  9.000E+00
#rwgt            1           1   3.0191630583570220E-002           7      307224           0
</event>
<event>
      5   9999  3.19816E-02  3.37437E+01 -1.00000E+00  1.49575E-01
      21    -1     0     0   511   501  0.000000000E+00  0.000000000E+00  3.646825755E+02  3.646825755E+02  0.000000000E+00  0.00000E+00  9.000E+00
      21    -1     0     0   501   502  0.000000000E+00  0.000000000E+00 -5.687898907E+02  5.687898907E+02  0.000000000E+00  0.00000E+00  9.000E+00
      25     1     1     2     0     0  2.486397963E-01  2.810130857E+02 -9.335786004E+01  3.214173396E+02  1.250000000E+02  0.00000E+00  9.000E+00
      25     1     1     2     0     0 -3.395128626E+01 -2.793494813E+02 -2.939935818E+02  4.257300185E+02  1.250000000E+02  0.00000E+00  9.000E+00
      21     1     1     2   511   502  3.370264646E+01 -1.663604450E+00  1.832441266E+02  1.863251080E+02  3.814697266E-06  0.00000E+00  9.000E+00
#rwgt            1           1   2.8236048279813460E-002           7      307421           0
</event>
<event>
      5   9999  3.19816E-02  7.68241E+01 -1.00000E+00  1.29207E-01
      21    -1     0     0   502   501  0.000000000E+00  0.000000000E+00  7.596428689E+02  7.596428689E+02  0.000000000E+00  0.00000E+00  9.000E+00
      21    -1     0     0   501   512  0.000000000E+00  0.000000000E+00 -5.293553234E+02  5.293553234E+02  0.000000000E+00  0.00000E+00  9.000E+00
      25     1     1     2     0     0  3.087030029E+01 -2.812632974E+02  3.436331363E+02  4.623534906E+02  1.250000000E+02  0.00000E+00  9.000E+00
      25     1     1     2     0     0  3.796510826E+01  3.153753633E+02  2.702771316E+02  4.354052102E+02  1.250000000E+02  0.00000E+00  9.000E+00
      21     1     1     2   502   512 -6.883540856E+01 -3.411206593E+01 -3.836227224E+02  3.912394914E+02  5.394796609E-06  0.00000E+00  9.000E+00
#rwgt            1           1   2.7780133943957622E-002           7      307521           0
</event>
<event>
      5   9999  3.19816E-02  2.35541E+01 -1.00000E+00  1.60714E-01
      21    -1     0     0   502   511  0.000000000E+00  0.000000000E+00  5.210785906E+02  5.210785906E+02  0.000000000E+00  0.00000E+00  9.000E+00
      21    -1     0     0   501   502  0.000000000E+00  0.000000000E+00 -2.192541263E+02  2.192541263E+02  0.000000000E+00  0.00000E+00  9.000E+00
      25     1     1     2     0     0  4.993356322E+01 -2.849539003E+02  8.849622756E+01  3.273357119E+02  1.250000000E+02  0.00000E+00  9.000E+00
      25     1     1     2     0     0 -6.116349767E+01  2.642492272E+02  1.287906404E+02  3.252393835E+02  1.250000000E+02  0.00000E+00  9.000E+00
      21     1     1     2   501   511  1.122993445E+01  2.070467310E+01  8.453759634E+01  8.775762138E+01  9.536743164E-07  0.00000E+00  9.000E+00
#rwgt            1           1   2.5975464247760302E-002           7      307588           0
</event>
<event>
      5   9999  3.19816E-02  4.65211E+01 -1.00000E+00  1.40886E-01
      21    -1     0     0   512   501  0.000000000E+00  0.000000000E+00  6.808480758E+02  6.808480758E+02  0.000000000E+00  0.00000E+00  9.000E+00
      21    -1     0     0   501   502  0.000000000E+00  0.000000000E+00 -5.299455615E+02  5.299455615E+02  0.000000000E+00  0.00000E+00  9.000E+00
      25     1     1     2     0     0 -4.255649769E+02  2.755103470E+02 -1.849963211E+02  5.539495822E+02  1.250000000E+02  0.00000E+00  9.000E+00
      25     1     1     2     0     0  3.950562721E+02 -3.106305502E+02  3.052645753E+02  6.011424605E+02  1.250000000E+02  0.00000E+00  9.000E+00
      21     1     1     2   512   502  3.050870478E+01  3.512020328E+01  3.063426017E+01  5.570159461E+01  9.536743164E-07  0.00000E+00  9.000E+00
#rwgt            1           1   2.9069994458106544E-002           7      307714           0
</event>
<event>
      5   9999  3.19816E-02  9.58971E+01 -1.00000E+00  1.24652E-01
      21    -1     0     0   502   501  0.000000000E+00  0.000000000E+00  6.826405358E+02  6.826405358E+02  0.000000000E+00  0.00000E+00  9.000E+00
       2    -1     0     0   501     0  0.000000000E+00  0.000000000E+00 -2.690937428E+02  2.690937428E+02  0.000000000E+00  0.00000E+00  9.000E+00
      25     1     1     2     0     0  2.998041478E+02  7.144882672E+00  4.446587887E+02  5.507086478E+02  1.250000000E+02  0.00000E+00  9.000E+00
      25     1     1     2     0     0 -2.047036570E+02 -1.947957465E+01  8.061701220E+01  2.537856254E+02  1.250000000E+02  0.00000E+00  9.000E+00
       2     1     1     2   502     0 -9.510049077E+01  1.233469198E+01 -1.117290079E+02  1.472400054E+02  1.907348633E-06  0.00000E+00  9.000E+00
#rwgt            1           1   2.7241425672826957E-002           7      307852           0
</event>
<event>
      5   9999  3.19816E-02  1.90586E+02 -1.00000E+00  1.12416E-01
      21    -1     0     0   502   501  0.000000000E+00  0.000000000E+00  1.376727410E+03  1.376727410E+03  0.000000000E+00  0.00000E+00  9.000E+00
      21    -1     0     0   511   502  0.000000000E+00  0.000000000E+00 -1.508201093E+02  1.508201093E+02  0.000000000E+00  0.00000E+00  9.000E+00
      25     1     1     2     0     0  5.506436382E+01  2.414642889E+02  1.058361199E+03  1.094116316E+03  1.250000000E+02  0.00000E+00  9.000E+00
      25     1     1     2     0     0 -1.299161769E+02 -6.619228081E+01  1.467723349E+02  2.417162579E+02  1.250000000E+02  0.00000E+00  9.000E+00
      21     1     1     2   511   501  7.485181307E+01 -1.752720081E+02  2.077376719E+01  1.917149451E+02  1.784161275E-06  0.00000E+00  9.000E+00
#rwgt            1           1   2.9691700472660829E-002           7      307931           0
</event>
<event>
      5   9999  3.19816E-02  5.97624E+01 -1.00000E+00  1.34796E-01
       1    -1     0     0   502     0  0.000000000E+00  0.000000000E+00  1.047391259E+03  1.047391259E+03  0.000000000E+00  0.00000E+00  9.000E+00
      21    -1     0     0   501   502  0.000000000E+00  0.000000000E+00 -4.026475913E+02  4.026475913E+02  0.000000000E+00  0.00000E+00  9.000E+00
      25     1     1     2     0     0 -3.872001470E+01  3.306197376E+02  2.811999160E+02  4.533288466E+02  1.250000000E+02  0.00000E+00  9.000E+00
      25     1     1     2     0     0  8.358211791E+01 -3.701030610E+02 -1.883011701E+02  4.416385138E+02  1.250000000E+02  0.00000E+00  9.000E+00
       1     1     1     2   501     0 -4.486210321E+01  3.948332337E+01  5.518449215E+02  5.550714896E+02  0.000000000E+00  0.00000E+00  9.000E+00
#rwgt            1           1   2.6316116705819601E-002           7      307990           0
</event>
<event>
      5   9999  3.19816E-02  6.59810E+01 -1.00000E+00  1.32535E-01
      21    -1     0     0   502   501  0.000000000E+00  0.000000000E+00  9.728576475E+01  9.728576475E+01  0.000000000E+00  0.00000E+00  9.000E+00
      21    -1     0     0   511   502  0.000000000E+00  0.000000000E+00 -1.995730960E+03  1.995730960E+03  0.000000000E+00  0.00000E+00  9.000E+00
      25     1     1     2     0     0  2.826124098E+01  1.214414635E+02 -8.648010117E-01  1.765572844E+02  1.250000000E+02  0.00000E+00  9.000E+00
      25     1     1     2     0     0  3.011562657E+01 -1.521926634E+02 -1.540977929E+03  1.553804214E+03  1.250000000E+02  0.00000E+00  9.000E+00
      21     1     1     2   511   501 -5.837686755E+01  3.075119990E+01 -3.566024650E+02  3.626552260E+02  0.000000000E+00  0.00000E+00  9.000E+00
#rwgt            1           1   2.7454534192991757E-002           7      308071           0
</event>
<event>
      5   9999  3.19816E-02  2.76127E+01 -1.00000E+00  1.55584E-01
      21    -1     0     0   502   501  0.000000000E+00  0.000000000E+00  7.897422070E+01  7.897422070E+01  0.000000000E+00  0.00000E+00  9.000E+00
      21    -1     0     0   512   502  0.000000000E+00  0.000000000E+00 -3.223393841E+03  3.223393841E+03  0.000000000E+00  0.00000E+00  9.000E+00
      25     1     1     2     0     0 -4.044616269E+02  2.151048129E+02 -1.673473708E+03  1.739539749E+03  1.250000000E+02  0.00000E+00  9.000E+00
      25     1     1     2     0     0  4.102469856E+02 -1.881049527E+02 -1.164457348E+03  1.255098394E+03  1.250000000E+02  0.00000E+00  9.000E+00
      21     1     1     2   512   501 -5.785358698E+00 -2.699986024E+01 -3.064885641E+02  3.077299185E+02  6.607249480E-06  0.00000E+00  9.000E+00
#rwgt            1           1   5.5333374307405869E-002           7      308135           0
</event>
<event>
      5   9999  3.19816E-02  5.61104E+01 -1.00000E+00  1.36278E-01
      21    -1     0     0   502   501  0.000000000E+00  0.000000000E+00  1.379538274E+02  1.379538274E+02  0.000000000E+00  0.00000E+00  9.000E+00
       2    -1     0     0   501     0  0.000000000E+00  0.000000000E+00 -2.858808504E+03  2.858808504E+03  0.000000000E+00  0.00000E+00  9.000E+00
      25     1     1     2     0     0 -1.249587457E+02 -8.170315578E+01 -2.629669633E+00  1.947357413E+02  1.250000000E+02  0.00000E+00  9.000E+00
      25     1     1     2     0     0  1.398114236E+02  2.759429002E+01 -1.744007438E+02  2.575835757E+02  1.250000000E+02  0.00000E+00  9.000E+00
       2     1     1     2   502     0 -1.485267792E+01  5.410886576E+01 -2.543824263E+03  2.544443014E+03  5.285799584E-05  0.00000E+00  9.000E+00
#rwgt            1           1   2.6002369247249749E-002           7      308267           0
</event>
<event>
      5   9999  3.19816E-02  5.31338E+01 -1.00000E+00  1.37586E-01
      21    -1     0     0   502   501  0.000000000E+00  0.000000000E+00  2.955294136E+02  2.955294136E+02  0.000000000E+00  0.00000E+00  9.000E+00
      -4    -1     0     0     0   502  0.000000000E+00  0.000000000E+00 -7.502806889E+02  7.502806889E+02  0.000000000E+00  0.00000E+00  9.000E+00
      25     1     1     2     0     0 -3.281336805E+01  3.335183781E+01  2.672296161E+02  2.987067625E+02  1.250000000E+02  0.00000E+00  9.000E+00
      25     1     1     2     0     0  1.044063328E+01  1.484221229E+01 -3.660825379E+02  3.872605358E+02  1.250000000E+02  0.00000E+00  9.000E+00
      -4     1     1     2     0   501  2.237273477E+01 -4.819405010E+01 -3.558983535E+02  3.598428042E+02  3.814697266E-06  0.00000E+00  9.000E+00
#rwgt            1           1   2.5983240018764422E-002           7      308338           0
</event>
<event>
      5   9999  3.19816E-02  1.77586E+02 -1.00000E+00  1.13560E-01
      21    -1     0     0   511   501  0.000000000E+00  0.000000000E+00  6.020975900E+02  6.020975900E+02  0.000000000E+00  0.00000E+00  9.000E+00
      21    -1     0     0   501   502  0.000000000E+00  0.000000000E+00 -3.766886198E+02  3.766886198E+02  0.000000000E+00  0.00000E+00  9.000E+00
      25     1     1     2     0     0  2.575192781E+02 -1.981971890E+02 -6.055269798E+01  3.533976988E+02  1.250000000E+02  0.00000E+00  9.000E+00
      25     1     1     2     0     0 -3.492277348E+02  4.612390991E+01  2.313924850E+02  4.396076751E+02  1.250000000E+02  0.00000E+00  9.000E+00
      21     1     1     2   511   502  9.170845675E+01  1.520732791E+02  5.456918305E+01  1.857808359E+02  3.303624740E-06  0.00000E+00  9.000E+00
#rwgt            2          11   3.9339206807740600E-003           7      308606           0
</event>
<event>
      5   9999  3.19816E-02  1.49692E+01 -1.00000E+00  1.77468E-01
      21    -1     0     0   502   501  0.000000000E+00  0.000000000E+00  1.014494518E+02  1.014494518E+02  0.000000000E+00  0.00000E+00  9.000E+00
      21    -1     0     0   501   512  0.000000000E+00  0.000000000E+00 -3.029224490E+02  3.029224490E+02  0.000000000E+00  0.00000E+00  9.000E+00
      25     1     1     2     0     0  8.081052232E+00 -9.319575340E+01 -2.739426610E+01  1.585124527E+02  1.250000000E+02  0.00000E+00  9.000E+00
      25     1     1     2     0     0 -2.224092922E+01  8.834044959E+01 -1.399400422E+02  2.085830995E+02  1.250000000E+02  0.00000E+00  9.000E+00
      21     1     1     2   502   512  1.415987699E+01  4.855303805E+00 -3.413868886E+01  3.727634865E+01  4.768371582E-07  0.00000E+00  9.000E+00
#rwgt            2          11   2.7071081829793614E-003           7      308626           0
</event>
<event>
      5   9999  3.19816E-02  3.47200E+02 -1.00000E+00  1.03570E-01
      21    -1     0     0   502   511  0.000000000E+00  0.000000000E+00  3.259511694E+02  3.259511694E+02  0.000000000E+00  0.00000E+00  9.000E+00
      21    -1     0     0   501   502  0.000000000E+00  0.000000000E+00 -1.808828100E+03  1.808828100E+03  0.000000000E+00  0.00000E+00  9.000E+00
      25     1     1     2     0     0  3.995336939E+02 -9.710160576E+01 -2.619904838E+02  5.033089588E+02  1.250000000E+02  0.00000E+00  9.000E+00
      25     1     1     2     0     0 -6.087309653E+02  3.742010202E+02 -9.234082630E+02  1.174260453E+03  1.250000000E+02  0.00000E+00  9.000E+00
      21     1     1     2   501   511  2.091972715E+02 -2.770994145E+02 -2.974781835E+02  4.572098573E+02  7.629394531E-06  0.00000E+00  9.000E+00
#rwgt            2          11   3.3268408993340345E-003           7      308661           0
</event>
<event>
      5   9999  3.19816E-02  6.18144E+01 -1.00000E+00  1.34016E-01
      21    -1     0     0   512   501  0.000000000E+00  0.000000000E+00  1.441379076E+03  1.441379076E+03  0.000000000E+00  0.00000E+00  9.000E+00
      21    -1     0     0   501   502  0.000000000E+00  0.000000000E+00 -1.976516116E+02  1.976516116E+02  0.000000000E+00  0.00000E+00  9.000E+00
      25     1     1     2     0     0  1.267600622E+02 -6.026981509E+01 -3.590280908E+01  1.913493550E+02  1.250000000E+02  0.00000E+00  9.000E+00
      25     1     1     2     0     0 -6.538630398E+01  6.763721464E+01 -9.817148876E+00  1.567531115E+02  1.250000000E+02  0.00000E+00  9.000E+00
      21     1     1     2   512   502 -6.137375820E+01 -7.367399554E+00  1.289447422E+03  1.290928221E+03  2.157918644E-05  0.00000E+00  9.000E+00
#rwgt            1           1   2.7012343746004093E-002           7      308711           0
</event>
<event>
      5   9999  3.19816E-02  1.94466E+01 -1.00000E+00  1.67381E-01
      21    -1     0     0   502   501  0.000000000E+00  0.000000000E+00  1.055038153E+03  1.055038153E+03  0.000000000E+00  0.00000E+00  9.000E+00
      21    -1     0     0   511   502  0.000000000E+00  0.000000000E+00 -1.000769919E+03  1.000769919E+03  0.000000000E+00  0.00000E+00  9.000E+00
      25     1     1     2     0     0  8.511937369E+02 -1.484654021E+02  4.920446966E+02  1.002150556E+03  1.250000000E+02  0.00000E+00  9.000E+00
      25     1     1     2     0     0 -8.325074094E+02  1.538497720E+02 -2.884756093E+02  9.030955188E+02  1.250000000E+02  0.00000E+00  9.000E+00
      21     1     1     2   511   501 -1.868632750E+01 -5.384369888E+00 -1.493008535E+02  1.505619976E+02  3.303624740E-06  0.00000E+00  9.000E+00
#rwgt            1           1   1.9380708320129694E-002           7      308775           0
</event>
<event>
      5   9999  3.19816E-02  7.68427E+01 -1.00000E+00  1.29202E-01
      21    -1     0     0   502   512  0.000000000E+00  0.000000000E+00  6.150262473E+02  6.150262473E+02  0.000000000E+00  0.00000E+00  9.000E+00
      21    -1     0     0   501   502  0.000000000E+00  0.000000000E+00 -9.377498364E+01  9.377498364E+01  0.000000000E+00  0.00000E+00  9.000E+00
      25     1     1     2     0     0  4.259938866E+01 -1.316450219E+02  6.350625999E+01  1.969851892E+02  1.250000000E+02  0.00000E+00  9.000E+00
      25     1     1     2     0     0 -3.437139341E+01  5.524412849E+01  3.656991731E+02  3.919109486E+02  1.250000000E+02  0.00000E+00  9.000E+00
      21     1     1     2   501   512 -8.227995252E+00  7.640089346E+01  9.204583051E+01  1.199050931E+02  1.907348633E-06  0.00000E+00  9.000E+00
#rwgt            1           1   2.4906542756043436E-002           7      309084           0
</event>
<event>
      5   9999  3.19816E-02  3.89253E+01 -1.00000E+00  1.45578E-01
      21    -1     0     0   502   511  0.000000000E+00  0.000000000E+00  6.788279225E+02  6.788279225E+02  0.000000000E+00  0.00000E+00  9.000E+00
      21    -1     0     0   501   502  0.000000000E+00  0.000000000E+00 -1.010539203E+02  1.010539203E+02  0.000000000E+00  0.00000E+00  9.000E+00
      25     1     1     2     0     0  5.588705704E+01 -7.201518161E+01  8.921776537E+00  1.549649884E+02  1.250000000E+02  0.00000E+00  9.000E+00
      25     1     1     2     0     0 -9.480166317E+01  7.292811444E+01  2.519320736E+02  3.056151746E+02  1.250000000E+02  0.00000E+00  9.000E+00
      21     1     1     2   501   511  3.891460613E+01 -9.129328300E-01  3.169201520E+02  3.193016799E+02  5.394796609E-06  0.00000E+00  9.000E+00
#rwgt            1           1   2.5518401903472591E-002           7      309166           0
</event>
<event>
      5   9999  3.19816E-02  1.03716E+02 -1.00000E+00  1.23119E-01
      21    -1     0     0   502   501  0.000000000E+00  0.000000000E+00  1.751157101E+03  1.751157101E+03  0.000000000E+00  0.00000E+00  9.000E+00
      21    -1     0     0   512   502  0.000000000E+00  0.000000000E+00 -3.938762892E+02  3.938762892E+02  0.000000000E+00  0.00000E+00  9.000E+00
      25     1     1     2     0     0  3.499485373E+02  2.114217068E+02  2.921238350E+02  5.178073501E+02  1.250000000E+02  0.00000E+00  9.000E+00
      25     1     1     2     0     0 -4.096780764E+02 -2.962115120E+02  1.283705242E+03  1.385316402E+03  1.250000000E+02  0.00000E+00  9.000E+00
      21     1     1     2   512   501  5.972953908E+01  8.478980518E+01 -2.185482649E+02  2.419096381E+02  3.814697266E-06  0.00000E+00  9.000E+00
#rwgt            1           1   3.2337879537500537E-002           7      309292           0
</event>
<event>
      5   9999  3.19816E-02  1.21272E+02 -1.00000E+00  1.20174E-01
      21    -1     0     0   502   501  0.000000000E+00  0.000000000E+00  5.148004211E+02  5.148004211E+02  0.000000000E+00  0.00000E+00  9.000E+00
      21    -1     0     0   501   511  0.000000000E+00  0.000000000E+00 -5.894932208E+02  5.894932208E+02  0.000000000E+00  0.00000E+00  9.000E+00
      25     1     1     2     0     0  1.946931248E+02 -2.052867104E+02 -3.205762539E+02  4.454684960E+02  1.250000000E+02  0.00000E+00  9.000E+00
      25     1     1     2     0     0 -2.638343935E+02  1.056554814E+02  3.715427819E+02  4.841907751E+02  1.250000000E+02  0.00000E+00  9.000E+00
      21     1     1     2   502   511  6.914126867E+01  9.963122906E+01 -1.256593277E+02  1.746343709E+02  2.336015456E-06  0.00000E+00  9.000E+00
#rwgt            1           1   2.5941427106737702E-002           7      309367           0
</event>
<event>
      5   9999  3.19816E-02  3.35736E+01 -1.00000E+00  1.49721E-01
      21    -1     0     0   512   501  0.000000000E+00  0.000000000E+00  1.097635953E+03  1.097635953E+03  0.000000000E+00  0.00000E+00  9.000E+00
      21    -1     0     0   501   502  0.000000000E+00  0.000000000E+00 -8.153341773E+01  8.153341773E+01  0.000000000E+00  0.00000E+00  9.000E+00
      25     1     1     2     0     0 -1.905290724E+02 -1.018086477E+02  2.459061535E+02  3.503728935E+02  1.250000000E+02  0.00000E+00  9.000E+00
      25     1     1     2     0     0  1.649460943E+02  1.235502151E+02  4.846033118E+02  5.412367684E+02  1.250000000E+02  0.00000E+00  9.000E+00
      21     1     1     2   512   502  2.558297815E+01 -2.174156744E+01  2.855930701E+02  2.875597090E+02  0.000000000E+00  0.00000E+00  9.000E+00
#rwgt            1           1   2.8872909519520235E-002           7      309405           0
</event>
<event>
      5   9999  3.19816E-02  1.48916E+01 -1.00000E+00  1.77681E-01
      21    -1     0     0   511   501  0.000000000E+00  0.000000000E+00  2.312965310E+02  2.312965310E+02  0.000000000E+00  0.00000E+00  9.000E+00
      21    -1     0     0   501   502  0.000000000E+00  0.000000000E+00 -1.332557283E+03  1.332557283E+03  0.000000000E+00  0.00000E+00  9.000E+00
      25     1     1     2     0     0 -1.488394602E+02 -3.514553092E+02 -9.307925516E+02  1.013742469E+03  1.250000000E+02  0.00000E+00  9.000E+00
      25     1     1     2     0     0  1.631696588E+02  3.555055165E+02 -2.422646367E+02  4.767868119E+02  1.250000000E+02  0.00000E+00  9.000E+00
      21     1     1     2   511   502 -1.433019858E+01 -4.050207254E+00  7.179643673E+01  7.332453271E+01  1.348699152E-06  0.00000E+00  9.000E+00
#rwgt            1           1   2.5224297609233573E-002           7      309546           0
</event>
<event>
      5   9999  3.19816E-02  4.05116E+01 -1.00000E+00  1.44499E-01
      21    -1     0     0   502   501  0.000000000E+00  0.000000000E+00  6.237274258E+02  6.237274258E+02  0.000000000E+00  0.00000E+00  9.000E+00
      21    -1     0     0   512   502  0.000000000E+00  0.000000000E+00 -9.496214383E+01  9.496214383E+01  0.000000000E+00  0.00000E+00  9.000E+00
      25     1     1     2     0     0 -1.444985017E+02  5.102613072E+01  1.184559875E+02  2.305218080E+02  1.250000000E+02  0.00000E+00  9.000E+00
      25     1     1     2     0     0  1.785400744E+02 -2.906348119E+01  3.735848524E+02  4.334880460E+02  1.250000000E+02  0.00000E+00  9.000E+00
      21     1     1     2   512   501 -3.404157271E+01 -2.196264953E+01  3.672444209E+01  5.467971556E+01  6.743495762E-07  0.00000E+00  9.000E+00
#rwgt            1           1   2.7307881007464646E-002           7      309733           0
</event>
<event>
      5   9999  3.19816E-02  1.02631E+01 -1.00000E+00  1.94462E-01
      21    -1     0     0   502   501  0.000000000E+00  0.000000000E+00  2.524134599E+02  2.524134599E+02  0.000000000E+00  0.00000E+00  9.000E+00
      21    -1     0     0   501   511  0.000000000E+00  0.000000000E+00 -1.581639273E+02  1.581639273E+02  0.000000000E+00  0.00000E+00  9.000E+00
      25     1     1     2     0     0 -1.046419928E+02 -1.134293161E+01  4.176232009E+01  1.686644602E+02  1.250000000E+02  0.00000E+00  9.000E+00
      25     1     1     2     0     0  1.147027644E+02  1.337065978E+01  9.723871787E+01  1.959996606E+02  1.250000000E+02  0.00000E+00  9.000E+00
      21     1     1     2   502   511 -1.006077157E+01 -2.027728166E+00 -4.475150538E+01  4.591326649E+01  6.743495762E-07  0.00000E+00  9.000E+00
#rwgt            1           1   3.3143464026048050E-002           7      309799           0
</event>
<event>
      5   9999  3.19816E-02  8.02511E+01 -1.00000E+00  1.28284E-01
      21    -1     0     0   502   501  0.000000000E+00  0.000000000E+00  5.471618628E+02  5.471618628E+02  0.000000000E+00  0.00000E+00  9.000E+00
      21    -1     0     0   501   512  0.000000000E+00  0.000000000E+00 -1.074633589E+03  1.074633589E+03  0.000000000E+00  0.00000E+00  9.000E+00
      25     1     1     2     0     0  3.907738990E+02 -8.572849260E+01 -8.184332051E+02  9.195170068E+02  1.250000000E+02  0.00000E+00  9.000E+00
      25     1     1     2     0     0 -4.118157761E+02  1.631718908E+02  3.693186825E+02  5.901174363E+02  1.250000000E+02  0.00000E+00  9.000E+00
      21     1     1     2   502   512  2.104187706E+01 -7.744339821E+01 -7.835720364E+01  1.121610087E+02  1.651812370E-06  0.00000E+00  9.000E+00
#rwgt            1           1   3.3360344688258825E-002           7      309963           0
</event>
<event>
      5   9999  3.19816E-02  1.61503E+02 -1.00000E+00  1.15136E-01
      21    -1     0     0   502   511  0.000000000E+00  0.000000000E+00  1.164232645E+03  1.164232645E+03  0.000000000E+00  0.00000E+00  9.000E+00
      21    -1     0     0   501   502  0.000000000E+00  0.000000000E+00 -4.296097192E+02  4.296097192E+02  0.000000000E+00  0.00000E+00  9.000E+00
      25     1     1     2     0     0 -4.223632726E+02 -2.198494709E+02  4.421006752E+02  6.616664801E+02  1.250000000E+02  0.00000E+00  9.000E+00
      25     1     1     2     0     0  5.248538703E+02  3.446651099E+02  5.183112774E+01  6.423216398E+02  1.250000000E+02  0.00000E+00  9.000E+00
      21     1     1     2   501   511 -1.024905976E+02 -1.248156390E+02  2.406911233E+02  2.898542447E+02  3.814697266E-06  0.00000E+00  9.000E+00
#rwgt            1           1   3.1355892263513700E-002           7      310104           0
</event>
<event>
      5   9999  3.19816E-02  5.71637E+01 -1.00000E+00  1.35837E-01
      21    -1     0     0   502   501  0.000000000E+00  0.000000000E+00  3.177416019E+02  3.177416019E+02  0.000000000E+00  0.00000E+00  9.000E+00
      21    -1     0     0   501   512  0.000000000E+00  0.000000000E+00 -9.745134253E+02  9.745134253E+02  0.000000000E+00  0.00000E+00  9.000E+00
      25     1     1     2     0     0 -1.968944819E+02  2.358834767E+02  1.811169134E+02  3.779375450E+02  1.250000000E+02  0.00000E+00  9.000E+00
      25     1     1     2     0     0  1.524151610E+02 -1.999769826E+02 -7.941787085E+02  8.423574039E+02  1.250000000E+02  0.00000E+00  9.000E+00
      21     1     1     2   502   512  4.447932088E+01 -3.590649406E+01 -4.371002832E+01  7.196007836E+01  1.168007728E-06  0.00000E+00  9.000E+00
#rwgt            1           1   2.1731379658722585E-002           7      310144           0
</event>
<event>
      5   9999  3.19816E-02  6.66283E+01 -1.00000E+00  1.32316E-01
      21    -1     0     0   502   501  0.000000000E+00  0.000000000E+00  1.904234315E+03  1.904234315E+03  0.000000000E+00  0.00000E+00  9.000E+00
      21    -1     0     0   511   502  0.000000000E+00  0.000000000E+00 -1.102704672E+02  1.102704672E+02  0.000000000E+00  0.00000E+00  9.000E+00
      25     1     1     2     0     0 -7.209771806E+01 -4.017375554E+02  9.956473139E+02  1.083295767E+03  1.250000000E+02  0.00000E+00  9.000E+00
      25     1     1     2     0     0  9.956864868E+01  3.410360176E+02  7.731190215E+02  8.599752918E+02  1.250000000E+02  0.00000E+00  9.000E+00
      21     1     1     2   511   501 -2.747093062E+01  6.070153779E+01  2.519751197E+01  7.123372326E+01  9.536743164E-07  0.00000E+00  9.000E+00
#rwgt            1           1   4.4564351095390566E-002           7      310210           0
</event>
<event>
      5   9999  3.19816E-02  1.21135E+02 -1.00000E+00  1.20195E-01
       2    -1     0     0   502     0  0.000000000E+00  0.000000000E+00  3.679058591E+03  3.679058591E+03  0.000000000E+00  0.00000E+00  9.000E+00
      21    -1     0     0   501   502  0.000000000E+00  0.000000000E+00 -3.704647648E+01  3.704647648E+01  0.000000000E+00  0.00000E+00  9.000E+00
      25     1     1     2     0     0  2.457183268E+02 -6.592890999E+00  7.612857942E+02  8.096925484E+02  1.250000000E+02  0.00000E+00  9.000E+00
      25     1     1     2     0     0 -1.401307337E+02 -5.277770239E+01  8.507226438E+02  8.727978718E+02  1.250000000E+02  0.00000E+00  9.000E+00
       2     1     1     2   501     0 -1.055875932E+02  5.937059339E+01  2.030003677E+03  2.033614648E+03  3.051757812E-05  0.00000E+00  9.000E+00
#rwgt            1           1   3.4838306969621875E-002           7      310331           0
</event>
<event>
      5   9999  3.19816E-02  3.08123E+01 -1.00000E+00  1.52238E-01
      21    -1     0     0   502   501  0.000000000E+00  0.000000000E+00  8.188147878E+02  8.188147878E+02  0.000000000E+00  0.00000E+00  9.000E+00
      21    -1     0     0   501   511  0.000000000E+00  0.000000000E+00 -1.550273100E+02  1.550273100E+02  0.000000000E+00  0.00000E+00  9.000E+00
      25     1     1     2     0     0 -7.487749297E+01  2.080210934E+02  6.246167660E+02  6.742777755E+02  1.250000000E+02  0.00000E+00  9.000E+00
      25     1     1     2     0     0  5.223963091E+01 -2.289238497E+02  3.197155235E+01  2.679221681E+02  1.250000000E+02  0.00000E+00  9.000E+00
      21     1     1     2   502   511  2.263786206E+01  2.090275635E+01  7.199159514E+00  3.164215415E+01  1.685873940E-07  0.00000E+00  9.000E+00
#rwgt            2          11   2.5934178927827650E-003           7      310389           0
</event>
<event>
      5   9999  3.19816E-02  1.18516E+02 -1.00000E+00  1.20598E-01
       2    -1     0     0   502     0  0.000000000E+00  0.000000000E+00  1.692008867E+03  1.692008867E+03  0.000000000E+00  0.00000E+00  9.000E+00
      21    -1     0     0   501   502  0.000000000E+00  0.000000000E+00 -6.450410956E+01  6.450410956E+01  0.000000000E+00  0.00000E+00  9.000E+00
      25     1     1     2     0     0 -2.030732088E+02  1.052341059E+02  4.134670552E+02  4.887667653E+02  1.250000000E+02  0.00000E+00  9.000E+00
      25     1     1     2     0     0  9.220898406E+01 -1.471281393E+02  4.986862904E+02  5.426437159E+02  1.250000000E+02  0.00000E+00  9.000E+00
       2     1     1     2   501     0  1.108642247E+02  4.189403346E+01  7.153514114E+02  7.251024950E+02  7.629394531E-06  0.00000E+00  9.000E+00
#rwgt            1           1   3.3465022023978039E-002           7      310409           0
</event>
<event>
      5   9999  3.19816E-02  5.02014E+01 -1.00000E+00  1.38976E-01
      21    -1     0     0   502   501  0.000000000E+00  0.000000000E+00  1.081274505E+03  1.081274505E+03  0.000000000E+00  0.00000E+00  9.000E+00
      21    -1     0     0   501   511  0.000000000E+00  0.000000000E+00 -9.810505938E+02  9.810505938E+02  0.000000000E+00  0.00000E+00  9.000E+00
      25     1     1     2     0     0  1.234427173E+02 -5.921995286E+01  1.053922069E+03  1.070103656E+03  1.250000000E+02  0.00000E+00  9.000E+00
      25     1     1     2     0     0 -9.742272992E+01  1.021517372E+02 -8.965189744E+02  9.161317794E+02  1.250000000E+02  0.00000E+00  9.000E+00
      21     1     1     2   502   511 -2.601998736E+01 -4.293178431E+01 -5.717918346E+01  7.608966334E+01  6.743495762E-07  0.00000E+00  9.000E+00
#rwgt            1           1   3.6558763444789720E-002           7      310456           0
</event>
<event>
      5   9999  3.19816E-02  2.41398E+01 -1.00000E+00  1.59898E-01
      21    -1     0     0   502   501  0.000000000E+00  0.000000000E+00  1.139977688E+02  1.139977688E+02  0.000000000E+00  0.00000E+00  9.000E+00
      21    -1     0     0   512   502  0.000000000E+00  0.000000000E+00 -1.390309234E+03  1.390309234E+03  0.000000000E+00  0.00000E+00  9.000E+00
      25     1     1     2     0     0 -2.539562794E+02  2.036071794E+02 -3.349235067E+02  4.834753672E+02  1.250000000E+02  0.00000E+00  9.000E+00
      25     1     1     2     0     0  2.759093316E+02 -2.136467775E+02 -8.859016556E+02  9.603216379E+02  1.250000000E+02  0.00000E+00  9.000E+00
      21     1     1     2   512   501 -2.195305220E+01  1.003959812E+01 -5.548630317E+01  6.050999811E+01  9.536743164E-07  0.00000E+00  9.000E+00
#rwgt            1           1   2.8168541137502636E-002           7      310553           0
</event>
<event>
      5   9999  3.19816E-02  4.82719E+01 -1.00000E+00  1.39953E-01
       2    -1     0     0   502     0  0.000000000E+00  0.000000000E+00  2.577104782E+03  2.577104782E+03  0.000000000E+00  0.00000E+00  9.000E+00
      21    -1     0     0   501   502  0.000000000E+00  0.000000000E+00 -9.788410304E+02  9.788410304E+02  0.000000000E+00  0.00000E+00  9.000E+00
      25     1     1     2     0     0  5.098239073E+01  1.985560132E+02 -2.941262006E+02  3.796826523E+02  1.250000000E+02  0.00000E+00  9.000E+00
      25     1     1     2     0     0 -4.536237546E+01 -2.464996474E+02 -6.111427944E+02  6.722650790E+02  1.250000000E+02  0.00000E+00  9.000E+00
       2     1     1     2   501     0 -5.620015270E+00  4.794363418E+01  2.503532747E+03  2.503998082E+03  3.051757812E-05  0.00000E+00  9.000E+00
#rwgt            1           1   2.8123435306226911E-002           7      310716           0
</event>
<event>
      5   9999  3.19816E-02  8.44292E+01 -1.00000E+00  1.27227E-01
      21    -1     0     0   502   501  0.000000000E+00  0.000000000E+00  4.178896749E+02  4.178896749E+02  0.000000000E+00  0.00000E+00  9.000E+00
       1    -1     0     0   501     0  0.000000000E+00  0.000000000E+00 -5.677808551E+02  5.677808551E+02  0.000000000E+00  0.00000E+00  9.000E+00
      25     1     1     2     0     0 -1.634956176E+02  3.706573885E+02  1.161211895E+02  4.395757583E+02  1.250000000E+02  0.00000E+00  9.000E+00
      25     1     1     2     0     0  2.049453150E+02 -2.971032776E+02 -1.695592861E+02  4.179094294E+02  1.250000000E+02  0.00000E+00  9.000E+00
       1     1     1     2   502     0 -4.144969737E+01 -7.355411091E+01 -9.645308359E+01  1.281853423E+02  0.000000000E+00  0.00000E+00  9.000E+00
#rwgt            1           1   3.1182022450493504E-002           7      310803           0
</event>
<event>
      5   9999  3.19816E-02  1.88336E+01 -1.00000E+00  1.68551E-01
      21    -1     0     0   502   501  0.000000000E+00  0.000000000E+00  2.460721927E+02  2.460721927E+02  0.000000000E+00  0.00000E+00  9.000E+00
      21    -1     0     0   501   511  0.000000000E+00  0.000000000E+00 -8.235712458E+02  8.235712458E+02  0.000000000E+00  0.00000E+00  9.000E+00
      25     1     1     2     0     0  5.100181515E+01  1.455851562E+02  1.801520831E+02  2.680969897E+02  1.250000000E+02  0.00000E+00  9.000E+00
      25     1     1     2     0     0 -5.182344237E+01 -1.267695029E+02 -3.740768907E+02  4.175101151E+02  1.250000000E+02  0.00000E+00  9.000E+00
      21     1     1     2   502   511  8.216272200E-01 -1.881565328E+01 -3.835742454E+02  3.840363337E+02  7.629394531E-06  0.00000E+00  9.000E+00
#rwgt            1           1   3.0717642670551538E-002           7      310895           0
</event>
<event>
      5   9999  3.19816E-02  2.64688E+01 -1.00000E+00  1.56916E-01
      21    -1     0     0   502   501  0.000000000E+00  0.000000000E+00  4.280896224E+02  4.280896224E+02  0.000000000E+00  0.00000E+00  9.000E+00
      21    -1     0     0   501   512  0.000000000E+00  0.000000000E+00 -7.186397649E+02  7.186397649E+02  0.000000000E+00  0.00000E+00  9.000E+00
      25     1     1     2     0     0 -1.486078513E+02  1.546695908E+02  3.534185809E+02  4.318989108E+02  1.250000000E+02  0.00000E+00  9.000E+00
      25     1     1     2     0     0  1.581116656E+02 -1.793733374E+02 -4.971756912E+02  5.656701874E+02  1.250000000E+02  0.00000E+00  9.000E+00
      21     1     1     2   502   512 -9.503814242E+00  2.470374659E+01 -1.467930322E+02  1.491602892E+02  1.907348633E-06  0.00000E+00  9.000E+00
#rwgt            1           1   2.9142620305826778E-002           7      311054           0
</event>
<event>
      5   9999  3.19816E-02  1.18418E+03 -1.00000E+00  8.92628E-02
      21    -1     0     0   502   501  0.000000000E+00  0.000000000E+00  1.328414773E+03  1.328414773E+03  0.000000000E+00  0.00000E+00  9.000E+00
       2    -1     0     0   501     0  0.000000000E+00  0.000000000E+00 -1.505127804E+03  1.505127804E+03  0.000000000E+00  0.00000E+00  9.000E+00
      25     1     1     2     0     0 -1.631575215E+02 -2.663409189E+01  4.525575367E+02  4.977580493E+02  1.250000000E+02  0.00000E+00  9.000E+00
      25     1     1     2     0     0 -1.019815023E+03 -2.683435231E+01 -8.142678069E+01  1.031017984E+03  1.250000000E+02  0.00000E+00  9.000E+00
       2     1     1     2   502     0  1.182972544E+03  5.346844420E+01 -5.478437871E+02  1.304766542E+03  1.525878906E-05  0.00000E+00  9.000E+00
#rwgt            2          13   6.2570518200843832E-004           7      311239           0
</event>
<event>
      5   9999  3.19816E-02  9.59336E+00 -1.00000E+00  1.97865E-01
      21    -1     0     0   511   501  0.000000000E+00  0.000000000E+00  4.494629009E+02  4.494629009E+02  0.000000000E+00  0.00000E+00  9.000E+00
      21    -1     0     0   501   502  0.000000000E+00  0.000000000E+00 -7.929719271E+02  7.929719271E+02  0.000000000E+00  0.00000E+00  9.000E+00
      25     1     1     2     0     0  5.388522272E+02 -6.412585061E+01  2.403431335E+01  5.573836162E+02  1.250000000E+02  0.00000E+00  9.000E+00
      25     1     1     2     0     0 -5.292776252E+02  6.472548834E+01 -3.819741623E+02  6.677225877E+02  1.250000000E+02  0.00000E+00  9.000E+00
      21     1     1     2   511   502 -9.574601937E+00 -5.996377294E-01  1.443082278E+01  1.732862411E+01  0.000000000E+00  0.00000E+00  9.000E+00
#rwgt            1           1   2.8497009449406314E-002           7      311273           0
</event>
<event>
      5   9999  3.19816E-02  1.00882E+02 -1.00000E+00  1.23657E-01
      21    -1     0     0   502   501  0.000000000E+00  0.000000000E+00  1.328468382E+03  1.328468382E+03  0.000000000E+00  0.00000E+00  9.000E+00
      21    -1     0     0   512   502  0.000000000E+00  0.000000000E+00 -1.857717198E+02  1.857717198E+02  0.000000000E+00  0.00000E+00  9.000E+00
      25     1     1     2     0     0 -3.975663071E+01  2.682175926E+02  8.588667366E+01  3.106811668E+02  1.250000000E+02  0.00000E+00  9.000E+00
      25     1     1     2     0     0 -3.046131036E+01 -3.406510241E+02  1.039201223E+03  1.101151758E+03  1.250000000E+02  0.00000E+00  9.000E+00
      21     1     1     2   512   501  7.021794107E+01  7.243343143E+01  1.760876505E+01  1.024071767E+02  1.430511475E-06  0.00000E+00  9.000E+00
#rwgt            1           1   2.9852695884532009E-002           7      311639           0
</event>
<event>
      5   9999  3.19816E-02  7.69320E+01 -1.00000E+00  1.29177E-01
      21    -1     0     0   502   511  0.000000000E+00  0.000000000E+00  2.672171587E+02  2.672171587E+02  0.000000000E+00  0.00000E+00  9.000E+00
      21    -1     0     0   501   502  0.000000000E+00  0.000000000E+00 -5.490058758E+02  5.490058758E+02  0.000000000E+00  0.00000E+00  9.000E+00
      25     1     1     2     0     0 -2.465534916E+02 -1.979986786E+02 -1.877511161E+02  3.884167640E+02  1.250000000E+02  0.00000E+00  9.000E+00
      25     1     1     2     0     0  1.861765430E+02  2.456762926E+02 -1.077788303E+02  3.496567204E+02  1.250000000E+02  0.00000E+00  9.000E+00
      21     1     1     2   501   511  6.037694858E+01 -4.767761397E+01  1.374122936E+01  7.814955008E+01  1.420542632E-06  0.00000E+00  9.000E+00
#rwgt            1           1   2.5913109510234754E-002           7      311733           0
</event>
<event>
      5   9999  3.19816E-02  3.31336E+02 -1.00000E+00  1.04209E-01
      21    -1     0     0   502   501  0.000000000E+00  0.000000000E+00  4.232918467E+02  4.232918467E+02  0.000000000E+00  0.00000E+00  9.000E+00
       2    -1     0     0   501     0  0.000000000E+00  0.000000000E+00 -8.990622389E+02  8.990622389E+02  0.000000000E+00  0.00000E+00  9.000E+00
      25     1     1     2     0     0  2.427563867E+02  3.222925284E+02  1.652858734E+02  4.535940444E+02  1.250000000E+02  0.00000E+00  9.000E+00
      25     1     1     2     0     0  6.903564309E+01 -2.101786956E+02 -2.544941497E+02  3.596293597E+02  1.250000000E+02  0.00000E+00  9.000E+00
       2     1     1     2   502     0 -3.117920298E+02 -1.121138328E+02 -3.865621160E+02  5.091306815E+02  0.000000000E+00  0.00000E+00  9.000E+00
#rwgt            1           1   2.6157645706385645E-002           7      311844           0
</event>
<event>
      5   9999  3.19816E-02  1.63403E+01 -1.00000E+00  1.73952E-01
      21    -1     0     0   502   511  0.000000000E+00  0.000000000E+00  4.281810633E+02  4.281810633E+02  0.000000000E+00  0.00000E+00  9.000E+00
      21    -1     0     0   501   502  0.000000000E+00  0.000000000E+00 -1.442631201E+03  1.442631201E+03  0.000000000E+00  0.00000E+00  9.000E+00
      25     1     1     2     0     0 -5.035945085E+02 -1.012829390E+01  1.637787079E+02  5.442044437E+02  1.250000000E+02  0.00000E+00  9.000E+00
      25     1     1     2     0     0  5.198786893E+02  8.774651103E+00 -1.191209158E+03  1.305739294E+03  1.250000000E+02  0.00000E+00  9.000E+00
      21     1     1     2   501   511 -1.628418079E+01  1.353642796E+00  1.298031234E+01  2.086852657E+01  2.920019320E-07  0.00000E+00  9.000E+00
#rwgt            1           1   3.4104732554554748E-002           7      311884           0
</event>
<event>
      5   9999  3.19816E-02  8.86219E+01 -1.00000E+00  1.26234E-01
       2    -1     0     0   502     0  0.000000000E+00  0.000000000E+00  4.465140730E+02  4.465140730E+02  0.000000000E+00  0.00000E+00  9.000E+00
      21    -1     0     0   501   502  0.000000000E+00  0.000000000E+00 -2.400807237E+03  2.400807237E+03  0.000000000E+00  0.00000E+00  9.000E+00
      25     1     1     2     0     0 -2.047139887E+02 -7.320112496E+02 -9.442649584E+01  7.760732245E+02  1.250000000E+02  0.00000E+00  9.000E+00
      25     1     1     2     0     0  1.378067409E+02  7.901254506E+02 -1.757146715E+03  1.935582213E+03  1.250000000E+02  0.00000E+00  9.000E+00
       2     1     1     2   501     0  6.690724775E+01 -5.811420099E+01 -1.027199530E+02  1.356658723E+02  2.336015456E-06  0.00000E+00  9.000E+00
#rwgt            1           1   2.9888635760804434E-002           7      312161           0
</event>
<event>
      5   9999  3.19816E-02  1.42957E+02 -1.00000E+00  1.17227E-01
      21    -1     0     0   502   511  0.000000000E+00  0.000000000E+00  7.599580980E+02  7.599580980E+02  0.000000000E+00  0.00000E+00  9.000E+00
      21    -1     0     0   501   502  0.000000000E+00  0.000000000E+00 -5.755522192E+02  5.755522192E+02  0.000000000E+00  0.00000E+00  9.000E+00
      25     1     1     2     0     0 -2.464648014E+02 -1.424176301E+02 -6.728661097E+01  3.180883018E+02  1.250000000E+02  0.00000E+00  9.000E+00
      25     1     1     2     0     0  3.878218955E+02  1.210874244E+02 -2.517774781E+02  4.940494767E+02  1.250000000E+02  0.00000E+00  9.000E+00
      21     1     1     2   501   511 -1.413570940E+02  2.133020573E+01  5.034699678E+02  5.233725387E+02  7.629394531E-06  0.00000E+00  9.000E+00
#rwgt            1           1   3.0308290166053957E-002           7      312250           0
</event>
<event>
      5   9999  3.19816E-02  3.53446E+01 -1.00000E+00  1.48254E-01
      21    -1     0     0   502   512  0.000000000E+00  0.000000000E+00  1.233754056E+02  1.233754056E+02  0.000000000E+00  0.00000E+00  9.000E+00
      21    -1     0     0   501   502  0.000000000E+00  0.000000000E+00 -1.984226158E+03  1.984226158E+03  0.000000000E+00  0.00000E+00  9.000E+00
      25     1     1     2     0     0 -2.974645935E+02  2.545423669E+02 -1.120391208E+03  1.193389484E+03  1.250000000E+02  0.00000E+00  9.000E+00
      25     1     1     2     0     0  2.863435740E+02 -2.880918298E+02 -7.622289176E+02  8.727012477E+02  1.250000000E+02  0.00000E+00  9.000E+00
      21     1     1     2   501   512  1.112101945E+01  3.354946291E+01  2.176937364E+01  4.151083188E+01  1.348699152E-06  0.00000E+00  9.000E+00
#rwgt            1           1   3.0988077865374757E-002           7      312307           0
</event>
<event>
      5   9999  3.19816E-02  2.29339E+02 -1.00000E+00  1.09526E-01
       1    -1     0     0   502     0  0.000000000E+00  0.000000000E+00  4.239850897E+03  4.239850897E+03  0.000000000E+00  0.00000E+00  9.000E+00
      21    -1     0     0   501   502  0.000000000E+00  0.000000000E+00 -6.402275344E+01  6.402275344E+01  0.000000000E+00  0.00000E+00  9.000E+00
      25     1     1     2     0     0  1.123037346E+02  1.358486633E+02  6.091167379E+02  6.463088956E+02  1.250000000E+02  0.00000E+00  9.000E+00
      25     1     1     2     0     0 -3.129603346E+02 -2.479284244E+01  6.567749174E+02  7.386048661E+02  1.250000000E+02  0.00000E+00  9.000E+00
       1     1     1     2   501     0  2.006566000E+02 -1.110558209E+02  2.909936488E+03  2.918959889E+03  7.475249459E-05  0.00000E+00  9.000E+00
#rwgt            1           1   3.2107254207131439E-002           7      312453           0
</event>
<event>
      5   9999  3.19816E-02  2.16646E+02 -1.00000E+00  1.10399E-01
      21    -1     0     0   502   511  0.000000000E+00  0.000000000E+00  8.005449764E+02  8.005449764E+02  0.000000000E+00  0.00000E+00  9.000E+00
      21    -1     0     0   501   502  0.000000000E+00  0.000000000E+00 -1.212253537E+03  1.212253537E+03  0.000000000E+00  0.00000E+00  9.000E+00
      25     1     1     2     0     0 -2.136702469E+02  2.372776471E+02 -1.030577071E+03  1.086126031E+03  1.250000000E+02  0.00000E+00  9.000E+00
      25     1     1     2     0     0 -2.673851766E-01 -2.031274542E+02 -3.204639108E+01  2.406507954E+02  1.250000000E+02  0.00000E+00  9.000E+00
      21     1     1     2   501   511  2.139376321E+02 -3.415019289E+01  6.509149014E+02  6.860216870E+02  7.629394531E-06  0.00000E+00  9.000E+00
#rwgt            1           1   3.2408691995098070E-002           7      312503           0
</event>
<event>
      5   9999  3.19816E-02  4.90606E+01 -1.00000E+00  1.39547E-01
       2    -1     0     0   502     0  0.000000000E+00  0.000000000E+00  1.702508827E+03  1.702508827E+03  0.000000000E+00  0.00000E+00  9.000E+00
      21    -1     0     0   501   502  0.000000000E+00  0.000000000E+00 -3.600932892E+02  3.600932892E+02  0.000000000E+00  0.00000E+00  9.000E+00
      25     1     1     2     0     0  4.963460496E+02  3.104678043E+01  6.200620262E+02  8.046273795E+02  1.250000000E+02  0.00000E+00  9.000E+00
      25     1     1     2     0     0 -5.127910379E+02 -7.726909445E+01 -5.256162528E-01  5.334326928E+02  1.250000000E+02  0.00000E+00  9.000E+00
       2     1     1     2   501     0  1.644498830E+01  4.622231402E+01  7.228791276E+02  7.245420436E+02  7.629394531E-06  0.00000E+00  9.000E+00
#rwgt            1           1   2.2793306975210682E-002           7      312535           0
</event>
<event>
      5   9999  3.19816E-02  2.87331E+01 -1.00000E+00  1.54353E-01
      21    -1     0     0   511   501  0.000000000E+00  0.000000000E+00  2.649147373E+02  2.649147373E+02  0.000000000E+00  0.00000E+00  9.000E+00
      21    -1     0     0   501   502  0.000000000E+00  0.000000000E+00 -1.971119344E+02  1.971119344E+02  0.000000000E+00  0.00000E+00  9.000E+00
      25     1     1     2     0     0 -3.956338130E+01  1.491948145E+02 -4.826457753E+01  2.043986870E+02  1.250000000E+02  0.00000E+00  9.000E+00
      25     1     1     2     0     0  1.947840590E+01 -1.286476191E+02  5.256887884E+01  1.879311183E+02  1.250000000E+02  0.00000E+00  9.000E+00
      21     1     1     2   511   502  2.008497539E+01 -2.054719540E+01  6.349850157E+01  6.969686633E+01  6.743495762E-07  0.00000E+00  9.000E+00
#rwgt            1           1   2.4543961598992942E-002           7      312622           0
</event>
<event>
      5   9999  3.19816E-02  9.55532E+01 -1.00000E+00  1.24723E-01
      21    -1     0     0   502   512  0.000000000E+00  0.000000000E+00  5.358634117E+02  5.358634117E+02  0.000000000E+00  0.00000E+00  9.000E+00
      21    -1     0     0   501   502  0.000000000E+00  0.000000000E+00 -3.766733206E+02  3.766733206E+02  0.000000000E+00  0.00000E+00  9.000E+00
      25     1     1     2     0     0 -2.280001968E+02  1.615675130E+02  1.952037966E+02  3.630670367E+02  1.250000000E+02  0.00000E+00  9.000E+00
      25     1     1     2     0     0  2.505196889E+02 -2.544292139E+02 -1.444401903E+02  4.049472904E+02  1.250000000E+02  0.00000E+00  9.000E+00
      21     1     1     2   501   512 -2.251949213E+01  9.286170091E+01  1.084264848E+02  1.445224053E+02  1.348699152E-06  0.00000E+00  9.000E+00
#rwgt            1           1   2.6415997173126930E-002           7      312771           0
</event>
<event>
      5   9999  3.19816E-02  7.38921E+01 -1.00000E+00  1.30041E-01
      21    -1     0     0   502   501  0.000000000E+00  0.000000000E+00  1.136676807E+02  1.136676807E+02  0.000000000E+00  0.00000E+00  9.000E+00
       1    -1     0     0   501     0  0.000000000E+00  0.000000000E+00 -1.328956890E+03  1.328956890E+03  0.000000000E+00  0.00000E+00  9.000E+00
      25     1     1     2     0     0 -1.879547473E+02 -2.740409408E+02 -3.301653091E+02  4.848294087E+02  1.250000000E+02  0.00000E+00  9.000E+00
      25     1     1     2     0     0  1.642050915E+02  2.040695422E+02 -7.415500307E+02  7.963222577E+02  1.250000000E+02  0.00000E+00  9.000E+00
       1     1     1     2   502     0  2.374965583E+01  6.997139859E+01 -1.435738695E+02  1.614729042E+02  1.907348633E-06  0.00000E+00  9.000E+00
#rwgt            1           1   3.0085182490876355E-002           7      312862           0
</event>
<event>
      5   9999  3.19816E-02  6.51086E+01 -1.00000E+00  1.32834E-01
      21    -1     0     0   502   501  0.000000000E+00  0.000000000E+00  4.915393606E+02  4.915393606E+02  0.000000000E+00  0.00000E+00  9.000E+00
       1    -1     0     0   501     0  0.000000000E+00  0.000000000E+00 -2.321111550E+03  2.321111550E+03  0.000000000E+00  0.00000E+00  9.000E+00
      25     1     1     2     0     0  4.534225526E+02  8.527592706E+01 -1.579432823E+02  5.034233560E+02  1.250000000E+02  0.00000E+00  9.000E+00
      25     1     1     2     0     0 -5.034286012E+02 -4.358033082E+01  1.053166093E+02  5.310896252E+02  1.250000000E+02  0.00000E+00  9.000E+00
       1     1     1     2   502     0  5.000604870E+01 -4.169559624E+01 -1.776945516E+03  1.778137929E+03  2.157918644E-05  0.00000E+00  9.000E+00
#rwgt            1           1   3.0084551925177106E-002           7      312983           0
</event>
<event>
      5   9999  3.19816E-02  1.12285E+02 -1.00000E+00  1.21606E-01
      21    -1     0     0   502   501  0.000000000E+00  0.000000000E+00  1.238406439E+03  1.238406439E+03  0.000000000E+00  0.00000E+00  9.000E+00
      21    -1     0     0   511   502  0.000000000E+00  0.000000000E+00 -1.429020811E+02  1.429020811E+02  0.000000000E+00  0.00000E+00  9.000E+00
      25     1     1     2     0     0 -2.718043155E+02  4.287381507E-01  2.688098833E+02  4.021958765E+02  1.250000000E+02  0.00000E+00  9.000E+00
      25     1     1     2     0     0  3.796668787E+02  3.077237836E+01  7.207190561E+02  8.247150028E+02  1.250000000E+02  0.00000E+00  9.000E+00
      21     1     1     2   511   501 -1.078625632E+02 -3.120111651E+01  1.059754190E+02  1.543976413E+02  2.697398305E-06  0.00000E+00  9.000E+00
#rwgt            1           1   2.1960404727798668E-002           7      313064           0
</event>
<event>
      5   9999  3.19816E-02  2.77333E+01 -1.00000E+00  1.55448E-01
      21    -1     0     0   502   501  0.000000000E+00  0.000000000E+00  1.921432594E+02  1.921432594E+02  0.000000000E+00  0.00000E+00  9.000E+00
      21    -1     0     0   501   512  0.000000000E+00  0.000000000E+00 -3.601378238E+02  3.601378238E+02  0.000000000E+00  0.00000E+00  9.000E+00
      25     1     1     2     0     0 -4.647048660E+01  1.904598702E+02 -6.331519073E+00  2.325931135E+02  1.250000000E+02  0.00000E+00  9.000E+00
      25     1     1     2     0     0  2.759302614E+01 -2.107767786E+02 -1.346333644E+02  2.809615068E+02  1.250000000E+02  0.00000E+00  9.000E+00
      21     1     1     2   502   512  1.887746046E+01  2.031690837E+01 -2.702968100E+01  3.872646297E+01  8.920806376E-07  0.00000E+00  9.000E+00
#rwgt            1           1   2.7660933557005045E-002           7      313159           0
</event>
<event>
      5   9999  3.19816E-02  8.01259E+01 -1.00000E+00  1.28316E-01
       2    -1     0     0   502     0  0.000000000E+00  0.000000000E+00  3.925218987E+03  3.925218987E+03  0.000000000E+00  0.00000E+00  9.000E+00
      21    -1     0     0   501   502  0.000000000E+00  0.000000000E+00 -8.082924362E+01  8.082924362E+01  0.000000000E+00  0.00000E+00  9.000E+00
      25     1     1     2     0     0  1.575652680E+02  2.134703727E+02  2.290308059E+02  3.721243391E+02  1.250000000E+02  0.00000E+00  9.000E+00
      25     1     1     2     0     0 -8.280520279E+01 -1.846415845E+02  1.663231408E+03  1.680152652E+03  1.250000000E+02  0.00000E+00  9.000E+00
       2     1     1     2   501     0 -7.476006520E+01 -2.882878813E+01  1.952127529E+03  1.953771240E+03  2.157918644E-05  0.00000E+00  9.000E+00
#rwgt            1           1   3.1790916843703401E-002           7      313277           0
</event>
<event>
      5   9999  3.19816E-02  7.19205E+01 -1.00000E+00  1.30628E-01
      21    -1     0     0   502   501  0.000000000E+00  0.000000000E+00  3.965378542E+02  3.965378542E+02  0.000000000E+00  0.00000E+00  9.000E+00
      21    -1     0     0   511   502  0.000000000E+00  0.000000000E+00 -2.830933693E+02  2.830933693E+02  0.000000000E+00  0.00000E+00  9.000E+00
      25     1     1     2     0     0  1.859675347E+02 -1.549553853E+02  1.056874054E+02  2.922155421E+02  1.250000000E+02  0.00000E+00  9.000E+00
      25     1     1     2     0     0 -1.449287705E+02  9.589290242E+01  1.264560273E+02  2.486280839E+02  1.250000000E+02  0.00000E+00  9.000E+00
      21     1     1     2   511   501 -4.103876419E+01  5.906248291E+01 -1.186989477E+02  1.387875976E+02  0.000000000E+00  0.00000E+00  9.000E+00
#rwgt            1           1   2.8444915381626537E-002           7      313351           0
</event>
<event>
      5   9999  3.19816E-02  1.09506E+02 -1.00000E+00  1.22080E-01
      21    -1     0     0   502   501  0.000000000E+00  0.000000000E+00  8.826003104E+01  8.826003104E+01  0.000000000E+00  0.00000E+00  9.000E+00
      21    -1     0     0   512   502  0.000000000E+00  0.000000000E+00 -1.273823790E+03  1.273823790E+03  0.000000000E+00  0.00000E+00  9.000E+00
      25     1     1     2     0     0 -1.996541911E+02 -7.469772910E+01 -5.386168972E+02  5.925999567E+02  1.250000000E+02  0.00000E+00  9.000E+00
      25     1     1     2     0     0  1.923802450E+02 -3.456678424E+01 -1.908421891E+02  3.004176466E+02  1.250000000E+02  0.00000E+00  9.000E+00
      21     1     1     2   512   501  7.273946107E+00  1.092645133E+02 -4.561046722E+02  4.690662172E+02  5.394796609E-06  0.00000E+00  9.000E+00
#rwgt            1           1   1.3442522618884404E-002           7      313387           0
</event>
<event>
      5   9999  3.19816E-02  2.36381E+01 -1.00000E+00  1.60595E-01
      21    -1     0     0   502   501  0.000000000E+00  0.000000000E+00  1.452877987E+03  1.452877987E+03  0.000000000E+00  0.00000E+00  9.000E+00
      21    -1     0     0   501   511  0.000000000E+00  0.000000000E+00 -9.820048588E+01  9.820048588E+01  0.000000000E+00  0.00000E+00  9.000E+00
      25     1     1     2     0     0 -6.024474217E+01  2.360012842E+02  1.096635771E+03  1.130292462E+03  1.250000000E+02  0.00000E+00  9.000E+00
      25     1     1     2     0     0  6.872177155E+01 -2.580671108E+02  2.646788475E+02  3.962337794E+02  1.250000000E+02  0.00000E+00  9.000E+00
      21     1     1     2   502   511 -8.477029379E+00  2.206582660E+01 -6.637117742E+00  2.455223132E+01  3.769728732E-07  0.00000E+00  9.000E+00
#rwgt            1           1   2.6302232974393484E-002           7      313425           0
</event>
<event>
      5   9999  3.19816E-02  5.92232E+01 -1.00000E+00  1.35007E-01
      21    -1     0     0   512   501  0.000000000E+00  0.000000000E+00  9.809305402E+02  9.809305402E+02  0.000000000E+00  0.00000E+00  9.000E+00
      21    -1     0     0   501   502  0.000000000E+00  0.000000000E+00 -1.161577981E+03  1.161577981E+03  0.000000000E+00  0.00000E+00  9.000E+00
      25     1     1     2     0     0 -3.986113714E+02 -7.457927203E+02 -7.133927082E+02  1.113396588E+03  1.250000000E+02  0.00000E+00  9.000E+00
      25     1     1     2     0     0  3.401109503E+02  7.365683219E+02  4.890268451E+02  9.555001866E+02  1.250000000E+02  0.00000E+00  9.000E+00
      21     1     1     2   512   502  5.850042116E+01  9.224398386E+00  4.371842203E+01  7.361174652E+01  8.259061849E-07  0.00000E+00  9.000E+00
#rwgt            1           1   2.5602912939952861E-002           7      313525           0
</event>
<event>
      5   9999  3.19816E-02  4.15595E+01 -1.00000E+00  1.43817E-01
      21    -1     0     0   502   501  0.000000000E+00  0.000000000E+00  2.480472850E+02  2.480472850E+02  0.000000000E+00  0.00000E+00  9.000E+00
      21    -1     0     0   501   511  0.000000000E+00  0.000000000E+00 -1.730686088E+03  1.730686088E+03  0.000000000E+00  0.00000E+00  9.000E+00
      25     1     1     2     0     0  4.403649686E+02  3.209818166E+02 -3.119965197E+02  6.402479679E+02  1.250000000E+02  0.00000E+00  9.000E+00
      25     1     1     2     0     0 -4.814145073E+02 -3.144909794E+02 -9.778330227E+02  1.141247968E+03  1.250000000E+02  0.00000E+00  9.000E+00
      21     1     1     2   502   511  4.104953873E+01 -6.490837264E+00 -1.928092602E+02  1.972374366E+02  2.697398305E-06  0.00000E+00  9.000E+00
#rwgt            1           1   2.9290992991934866E-002           7      313644           0
</event>
<event>
      5   9999  3.19816E-02  4.45002E+02 -1.00000E+00  1.00311E-01
      21    -1     0     0   502   501  0.000000000E+00  0.000000000E+00  4.069734086E+02  4.069734086E+02  0.000000000E+00  0.00000E+00  9.000E+00
      -3    -1     0     0     0   502  0.000000000E+00  0.000000000E+00 -1.547599266E+03  1.547599266E+03  0.000000000E+00  0.00000E+00  9.000E+00
      25     1     1     2     0     0 -3.171971051E+02  5.943796092E+02 -2.101894542E+02  7.167326768E+02  1.250000000E+02  0.00000E+00  9.000E+00
      25     1     1     2     0     0  2.576433917E+00 -2.796727000E+02 -6.311168094E+02  7.015389399E+02  1.250000000E+02  0.00000E+00  9.000E+00
      -3     1     1     2     0   501  3.146206712E+02 -3.147069092E+02 -2.993195935E+02  5.363010577E+02  1.265191952E-05  0.00000E+00  9.000E+00
#rwgt            2           8   1.9512455665378282E-005           7      313812           0
</event>
<event>
      5   9999  3.19816E-02  5.73478E+01 -1.00000E+00  1.35761E-01
      21    -1     0     0   502   501  0.000000000E+00  0.000000000E+00  2.444625978E+02  2.444625978E+02  0.000000000E+00  0.00000E+00  9.000E+00
      21    -1     0     0   511   502  0.000000000E+00  0.000000000E+00 -1.282678630E+03  1.282678630E+03  0.000000000E+00  0.00000E+00  9.000E+00
      25     1     1     2     0     0 -5.259546486E+02 -2.298424651E+01 -5.346349116E+02  7.606681646E+02  1.250000000E+02  0.00000E+00  9.000E+00
      25     1     1     2     0     0  4.923229947E+02 -2.346661551E+01 -3.957522401E+02  6.443426485E+02  1.250000000E+02  0.00000E+00  9.000E+00
      21     1     1     2   511   501  3.363165389E+01  4.645086202E+01 -1.078288807E+02  1.221304149E+02  1.348699152E-06  0.00000E+00  9.000E+00
#rwgt            1           1   3.0214928980745390E-002           7      313831           0
</event>
<event>
      5   9999  3.19816E-02  5.86072E+01 -1.00000E+00  1.35251E-01
      21    -1     0     0   502   501  0.000000000E+00  0.000000000E+00  4.869790374E+02  4.869790374E+02  0.000000000E+00  0.00000E+00  9.000E+00
      21    -1     0     0   512   502  0.000000000E+00  0.000000000E+00 -6.589971354E+02  6.589971354E+02  0.000000000E+00  0.00000E+00  9.000E+00
      25     1     1     2     0     0  2.476075149E+02  1.082100691E+02  2.892215535E+02  4.150819287E+02  1.250000000E+02  0.00000E+00  9.000E+00
      25     1     1     2     0     0 -1.908803967E+02 -9.348448339E+01  1.879872526E+01  2.472914608E+02  1.250000000E+02  0.00000E+00  9.000E+00
      21     1     1     2   512   501 -5.672711813E+01 -1.472558571E+01 -4.800383768E+02  4.836027833E+02  7.629394531E-06  0.00000E+00  9.000E+00
#rwgt            1           1   2.7567787201406034E-002           7      313940           0
</event>
<event>
      5   9999  3.19816E-02  1.86861E+01 -1.00000E+00  1.68841E-01
      21    -1     0     0   502   501  0.000000000E+00  0.000000000E+00  3.931549029E+02  3.931549029E+02  0.000000000E+00  0.00000E+00  9.000E+00
      21    -1     0     0   511   502  0.000000000E+00  0.000000000E+00 -4.186244618E+02  4.186244618E+02  0.000000000E+00  0.00000E+00  9.000E+00
      25     1     1     2     0     0  1.586025340E+02 -3.334224340E+02  6.242164834E+01  3.947742968E+02  1.250000000E+02  0.00000E+00  9.000E+00
      25     1     1     2     0     0 -1.529501621E+02  3.156117466E+02 -5.120535197E+01  3.758344246E+02  1.250000000E+02  0.00000E+00  9.000E+00
      21     1     1     2   511   501 -5.652371858E+00  1.781068741E+01 -3.668585522E+01  4.117064326E+01  8.259061849E-07  0.00000E+00  9.000E+00
#rwgt            1           1   2.7444587235664262E-002           7      314036           0
</event>
<event>
      5   9999  3.19816E-02  1.30423E+01 -1.00000E+00  1.83303E-01
       2    -1     0     0   502     0  0.000000000E+00  0.000000000E+00  5.228070256E+02  5.228070256E+02  0.000000000E+00  0.00000E+00  9.000E+00
      21    -1     0     0   501   502  0.000000000E+00  0.000000000E+00 -1.467229661E+02  1.467229661E+02  0.000000000E+00  0.00000E+00  9.000E+00
      25     1     1     2     0     0  6.091396192E+01 -3.643256256E+01 -2.714136147E+01  1.462856653E+02  1.250000000E+02  0.00000E+00  9.000E+00
      25     1     1     2     0     0 -7.395627107E+01  3.646286426E+01  3.370394626E+01  1.534927571E+02  1.250000000E+02  0.00000E+00  9.000E+00
       2     1     1     2   501     0  1.304230916E+01 -3.030169579E-02  3.695214746E+02  3.697515692E+02  7.629394531E-06  0.00000E+00  9.000E+00
#rwgt            1           1   4.3968184460532411E-002           7      314252           0
</event>
<event>
      5   9999  3.19816E-02  2.96769E+01 -1.00000E+00  1.53367E-01
      21    -1     0     0   502   511  0.000000000E+00  0.000000000E+00  2.271928199E+02  2.271928199E+02  0.000000000E+00  0.00000E+00  9.000E+00
      21    -1     0     0   501   502  0.000000000E+00  0.000000000E+00 -1.824068033E+03  1.824068033E+03  0.000000000E+00  0.00000E+00  9.000E+00
      25     1     1     2     0     0  1.432748638E+02  6.441514811E+00 -7.294762569E+02  7.538765078E+02  1.250000000E+02  0.00000E+00  9.000E+00
      25     1     1     2     0     0 -1.144176849E+02  4.854584249E-01 -1.074695725E+03  1.087974055E+03  1.250000000E+02  0.00000E+00  9.000E+00
      21     1     1     2   501   511 -2.885717890E+01 -6.926973236E+00  2.072967684E+02  2.094102908E+02  3.814697266E-06  0.00000E+00  9.000E+00
#rwgt            1           1   9.2542018160843925E-002           7      314407           0
</event>
<event>
      5   9999  3.19816E-02  7.89999E+01 -1.00000E+00  1.28614E-01
      21    -1     0     0   502   501  0.000000000E+00  0.000000000E+00  6.530174083E+02  6.530174083E+02  0.000000000E+00  0.00000E+00  9.000E+00
      21    -1     0     0   512   502  0.000000000E+00  0.000000000E+00 -6.064250349E+02  6.064250349E+02  0.000000000E+00  0.00000E+00  9.000E+00
      25     1     1     2     0     0 -8.014529063E+01 -4.475496300E+02  4.720613888E-02  4.715389073E+02  1.250000000E+02  0.00000E+00  9.000E+00
      25     1     1     2     0     0  5.727057637E+01  5.231652956E+02  2.302776641E+02  5.879070062E+02  1.250000000E+02  0.00000E+00  9.000E+00
      21     1     1     2   512   501  2.287471426E+01 -7.561566560E+01 -1.837324969E+02  1.999965296E+02  2.697398305E-06  0.00000E+00  9.000E+00
#rwgt            1           1   2.5790919052253877E-002           7      314489           0
</event>
<event>
      5   9999  3.19816E-02  1.30411E+02 -1.00000E+00  1.18854E-01
      21    -1     0     0   511   501  0.000000000E+00  0.000000000E+00  1.195205682E+03  1.195205682E+03  0.000000000E+00  0.00000E+00  9.000E+00
      21    -1     0     0   501   502  0.000000000E+00  0.000000000E+00 -3.623086595E+02  3.623086595E+02  0.000000000E+00  0.00000E+00  9.000E+00
      25     1     1     2     0     0 -2.311896076E+02  4.950788105E+02  2.559150578E+02  6.161730115E+02  1.250000000E+02  0.00000E+00  9.000E+00
      25     1     1     2     0     0  3.603468754E+02 -4.770387111E+02  4.441197602E+02  7.551709501E+02  1.250000000E+02  0.00000E+00  9.000E+00
      21     1     1     2   511   502 -1.291572677E+02 -1.804009937E+01  1.328622045E+02  1.861703799E+02  1.907348633E-06  0.00000E+00  9.000E+00
#rwgt            1           1   2.6991212782152801E-002           7      314591           0
</event>
<event>
      5   9999  3.19816E-02  4.13365E+01 -1.00000E+00  1.43960E-01
      21    -1     0     0   502   501  0.000000000E+00  0.000000000E+00  1.370520714E+03  1.370520714E+03  0.000000000E+00  0.00000E+00  9.000E+00
      21    -1     0     0   501   512  0.000000000E+00  0.000000000E+00 -4.648403527E+02  4.648403527E+02  0.000000000E+00  0.00000E+00  9.000E+00
      25     1     1     2     0     0  5.585091158E+02  7.971605265E+01  4.835063885E+02  7.534523934E+02  1.250000000E+02  0.00000E+00  9.000E+00
      25     1     1     2     0     0 -5.174370743E+02 -8.438421878E+01  6.534064284E+02  8.470104975E+02  1.250000000E+02  0.00000E+00  9.000E+00
      21     1     1     2   502   512 -4.107204146E+01  4.668166131E+00 -2.312324557E+02  2.348981757E+02  0.000000000E+00  0.00000E+00  9.000E+00
#rwgt            1           1   2.6918543204227631E-002           7      314655           0
</event>
<event>
      5   9999  3.19816E-02  8.60859E+01 -1.00000E+00  1.26827E-01
      21    -1     0     0   502   501  0.000000000E+00  0.000000000E+00  4.176934317E+02  4.176934317E+02  0.000000000E+00  0.00000E+00  9.000E+00
      21    -1     0     0   501   511  0.000000000E+00  0.000000000E+00 -6.394220441E+02  6.394220441E+02  0.000000000E+00  0.00000E+00  9.000E+00
      25     1     1     2     0     0 -1.199252588E+02  2.467162616E+02 -2.754529246E+02  4.083507011E+02  1.250000000E+02  0.00000E+00  9.000E+00
      25     1     1     2     0     0  1.391736400E+02 -1.628098408E+02  2.992095991E+02  3.886228641E+02  1.250000000E+02  0.00000E+00  9.000E+00
      21     1     1     2   502   511 -1.924838125E+01 -8.390642074E+01 -2.454852868E+02  2.601419106E+02  3.814697266E-06  0.00000E+00  9.000E+00
#rwgt            1           1   2.8619058121791816E-002           7      314841           0
</event>
<event>
      5   9999  3.19816E-02  4.69118E+02 -1.00000E+00  9.96450E-02
      21    -1     0     0   502   501  0.000000000E+00  0.000000000E+00  1.330686622E+03  1.330686622E+03  0.000000000E+00  0.00000E+00  9.000E+00
      21    -1     0     0   501   512  0.000000000E+00  0.000000000E+00 -2.808413329E+03  2.808413329E+03  0.000000000E+00  0.00000E+00  9.000E+00
      25     1     1     2     0     0 -7.638999438E+02  1.697437699E+03 -4.704975695E+02  1.924014248E+03  1.250000000E+02  0.00000E+00  9.000E+00
      25     1     1     2     0     0  5.319919808E+02 -1.289650733E+03 -4.175598845E+02  1.461573035E+03  1.250000000E+02  0.00000E+00  9.000E+00
      21     1     1     2   502   512  2.319079630E+02 -4.077869658E+02 -5.896692525E+02  7.535126675E+02  1.705984480E-05  0.00000E+00  9.000E+00
#rwgt            2          11   4.1321771289921259E-003           7      315131           0
</event>
<event>
      5   9999  3.19816E-02  1.64802E+02 -1.00000E+00  1.14797E-01
      21    -1     0     0   502   501  0.000000000E+00  0.000000000E+00  3.014719806E+03  3.014719806E+03  0.000000000E+00  0.00000E+00  9.000E+00
      21    -1     0     0   501   511  0.000000000E+00  0.000000000E+00 -1.386642903E+03  1.386642903E+03  0.000000000E+00  0.00000E+00  9.000E+00
      25     1     1     2     0     0  5.287705819E+01  1.271958120E+02  1.571730941E+03  1.582699564E+03  1.250000000E+02  0.00000E+00  9.000E+00
      25     1     1     2     0     0  3.834040649E+01 -2.644512789E+02  1.417345756E+03  1.447721816E+03  1.250000000E+02  0.00000E+00  9.000E+00
      21     1     1     2   502   511 -9.121746468E+01  1.372554668E+02 -1.360999794E+03  1.370941329E+03  0.000000000E+00  0.00000E+00  9.000E+00
#rwgt            1           1   3.7105462882386309E-002           7      315166           0
</event>
<event>
      5   9999  3.19816E-02  2.45426E+01 -1.00000E+00  1.59354E-01
      21    -1     0     0   502   501  0.000000000E+00  0.000000000E+00  4.323874722E+02  4.323874722E+02  0.000000000E+00  0.00000E+00  9.000E+00
      21    -1     0     0   512   502  0.000000000E+00  0.000000000E+00 -3.002497461E+02  3.002497461E+02  0.000000000E+00  0.00000E+00  9.000E+00
      25     1     1     2     0     0  2.011602484E+02  1.481304926E+02  2.933973047E+02  4.051111783E+02  1.250000000E+02  0.00000E+00  9.000E+00
      25     1     1     2     0     0 -1.842669787E+02 -1.303271797E+02 -1.335728420E+02  2.905274468E+02  1.250000000E+02  0.00000E+00  9.000E+00
      21     1     1     2   512   501 -1.689326965E+01 -1.780331297E+01 -2.768673664E+01  3.699859318E+01  0.000000000E+00  0.00000E+00  9.000E+00
#rwgt            1           1   2.4850001984505363E-002           7      315233           0
</event>
<event>
      5   9999  3.19816E-02  2.90633E+01 -1.00000E+00  1.54003E-01
      21    -1     0     0   502   511  0.000000000E+00  0.000000000E+00  5.312962206E+02  5.312962206E+02  0.000000000E+00  0.00000E+00  9.000E+00
      21    -1     0     0   501   502  0.000000000E+00  0.000000000E+00 -2.018915320E+02  2.018915320E+02  0.000000000E+00  0.00000E+00  9.000E+00
      25     1     1     2     0     0  2.053613397E+02  1.799934498E+02  2.486060889E+02  3.898729399E+02  1.250000000E+02  0.00000E+00  9.000E+00
      25     1     1     2     0     0 -1.871016312E+02 -2.026044162E+02  6.312008227E+01  3.092971301E+02  1.250000000E+02  0.00000E+00  9.000E+00
      21     1     1     2   501   511 -1.825970848E+01  2.261096641E+01  1.767851738E+01  3.401768265E+01  2.384185791E-07  0.00000E+00  9.000E+00
#rwgt            1           1   3.0133540239808326E-002           7      315417           0
</event>
<event>
      5   9999  3.19816E-02  5.60005E+01 -1.00000E+00  1.36324E-01
      21    -1     0     0   502   501  0.000000000E+00  0.000000000E+00  5.470478582E+01  5.470478582E+01  0.000000000E+00  0.00000E+00  9.000E+00
      21    -1     0     0   512   502  0.000000000E+00  0.000000000E+00 -1.109918537E+03  1.109918537E+03  0.000000000E+00  0.00000E+00  9.000E+00
      25     1     1     2     0     0  2.393552393E+01  1.482096220E+02 -2.963274368E+02  3.549280929E+02  1.250000000E+02  0.00000E+00  9.000E+00
      25     1     1     2     0     0 -7.520942732E+01 -1.707273481E+02 -5.685747627E+02  6.113154228E+02  1.250000000E+02  0.00000E+00  9.000E+00
      21     1     1     2   512   501  5.127390338E+01  2.251772611E+01 -1.903115518E+02  1.983798072E+02  0.000000000E+00  0.00000E+00  9.000E+00
#rwgt            1           1   2.8440570603949573E-002           7      315545           0
</event>
<event>
      5   9999  3.19816E-02  5.91084E+01 -1.00000E+00  1.35052E-01
      21    -1     0     0   511   501  0.000000000E+00  0.000000000E+00  4.001966965E+02  4.001966965E+02  0.000000000E+00  0.00000E+00  9.000E+00
      21    -1     0     0   501   502  0.000000000E+00  0.000000000E+00 -1.426416640E+02  1.426416640E+02  0.000000000E+00  0.00000E+00  9.000E+00
      25     1     1     2     0     0 -1.377391252E+02 -5.515794088E+01  2.259937261E+02  2.978466540E+02  1.250000000E+02  0.00000E+00  9.000E+00
      25     1     1     2     0     0  8.766801437E+01  2.374643766E+01 -3.242793371E+01  1.578801600E+02  1.250000000E+02  0.00000E+00  9.000E+00
      21     1     1     2   511   502  5.007111082E+01  3.141150321E+01  6.398924013E+01  8.711154645E+01  9.536743164E-07  0.00000E+00  9.000E+00
#rwgt            1           1   2.4066550301511180E-002           7      315649           0
</event>
<event>
      5   9999  3.19816E-02  7.10281E+01 -1.00000E+00  1.30901E-01
      21    -1     0     0   502   501  0.000000000E+00  0.000000000E+00  5.459717085E+02  5.459717085E+02  0.000000000E+00  0.00000E+00  9.000E+00
      21    -1     0     0   512   502  0.000000000E+00  0.000000000E+00 -5.427855913E+02  5.427855913E+02  0.000000000E+00  0.00000E+00  9.000E+00
      25     1     1     2     0     0  3.103998427E+02 -2.945476249E+02  2.088605666E+02  4.922947308E+02  1.250000000E+02  0.00000E+00  9.000E+00
      25     1     1     2     0     0 -3.796426068E+02  2.787226188E+02 -1.940227751E+02  5.244851232E+02  1.250000000E+02  0.00000E+00  9.000E+00
      21     1     1     2   512   501  6.924276412E+01  1.582500606E+01 -1.165167430E+01  7.197744587E+01  8.085167388E-07  0.00000E+00  9.000E+00
#rwgt            2          11   6.5188198372423053E-003           7      316033           0
</event>
<event>
      5   9999  3.19816E-02  3.08690E+01 -1.00000E+00  1.52183E-01
      21    -1     0     0   502   511  0.000000000E+00  0.000000000E+00  8.259343896E+02  8.259343896E+02  0.000000000E+00  0.00000E+00  9.000E+00
      21    -1     0     0   501   502  0.000000000E+00  0.000000000E+00 -3.086519430E+02  3.086519430E+02  0.000000000E+00  0.00000E+00  9.000E+00
      25     1     1     2     0     0  3.423149452E+02  3.761414704E+01 -2.451674280E+01  3.671789978E+02  1.250000000E+02  0.00000E+00  9.000E+00
      25     1     1     2     0     0 -3.313574992E+02 -6.647291410E+01  1.772808802E+02  4.015843013E+02  1.250000000E+02  0.00000E+00  9.000E+00
      21     1     1     2   501   511 -1.095744602E+01  2.885876707E+01  3.645183092E+02  3.658230334E+02  0.000000000E+00  0.00000E+00  9.000E+00
#rwgt            1           1   2.7946191926115322E-002           7      316113           0
</event>
<event>
      5   9999  3.19816E-02  1.18674E+02 -1.00000E+00  1.20573E-01
      21    -1     0     0   502   501  0.000000000E+00  0.000000000E+00  3.471993514E+02  3.471993514E+02  0.000000000E+00  0.00000E+00  9.000E+00
       2    -1     0     0   501     0  0.000000000E+00  0.000000000E+00 -1.585344806E+03  1.585344806E+03  0.000000000E+00  0.00000E+00  9.000E+00
      25     1     1     2     0     0 -4.551579447E+01 -8.165359858E+01 -8.435263783E+02  8.578465764E+02  1.250000000E+02  0.00000E+00  9.000E+00
      25     1     1     2     0     0 -3.625578653E+01 -4.352075216E+00  3.225133366E+02  3.478121259E+02  1.250000000E+02  0.00000E+00  9.000E+00
       2     1     1     2   502     0  8.177158099E+01  8.600567379E+01 -7.171324124E+02  7.268854548E+02  1.705984480E-05  0.00000E+00  9.000E+00
#rwgt            1           1   3.1591109021454469E-002           7      316203           0
</event>
<event>
      5   9999  3.19816E-02  3.48130E+02 -1.00000E+00  1.03534E-01
      21    -1     0     0   502   501  0.000000000E+00  0.000000000E+00  3.012294303E+02  3.012294303E+02  0.000000000E+00  0.00000E+00  9.000E+00
      -1    -1     0     0     0   502  0.000000000E+00  0.000000000E+00 -1.326592954E+03  1.326592954E+03  0.000000000E+00  0.00000E+00  9.000E+00
      25     1     1     2     0     0 -4.107032790E+02  3.642612515E+02 -5.381825928E+02  7.788638815E+02  1.250000000E+02  0.00000E+00  9.000E+00
      25     1     1     2     0     0  2.331413730E+02 -6.481851079E+01 -2.954739843E+01  2.739605590E+02  1.250000000E+02  0.00000E+00  9.000E+00
      -1     1     1     2     0   501  1.775619060E+02 -2.994427407E+02 -4.576335330E+02  5.749979443E+02  5.394796609E-06  0.00000E+00  9.000E+00
#rwgt            2          10   6.9868162495622456E-005           7      316449           0
</event>
<event>
      5   9999  3.19816E-02  3.39341E+02 -1.00000E+00  1.03882E-01
      -2    -1     0     0     0   501  0.000000000E+00  0.000000000E+00  2.217767199E+03  2.217767199E+03  0.000000000E+00  0.00000E+00  9.000E+00
      21    -1     0     0   501   502  0.000000000E+00  0.000000000E+00 -5.108898617E+02  5.108898617E+02  0.000000000E+00  0.00000E+00  9.000E+00
      25     1     1     2     0     0 -5.713225449E+02  1.592911172E+02  1.058411408E+03  1.219689641E+03  1.250000000E+02  0.00000E+00  9.000E+00
      25     1     1     2     0     0  4.661900633E+02 -4.819350974E+02 -9.791952589E+01  6.890630209E+02  1.250000000E+02  0.00000E+00  9.000E+00
      -2     1     1     2     0   502  1.051324816E+02  3.226439802E+02  7.463854551E+02  8.199043994E+02  1.525878906E-05  0.00000E+00  9.000E+00
#rwgt            1           1   3.0201802900841266E-002           7      316468           0
</event>
<event>
      5   9999  3.19816E-02  1.09967E+02 -1.00000E+00  1.22000E-01
       1    -1     0     0   502     0  0.000000000E+00  0.000000000E+00  6.819092867E+02  6.819092867E+02  0.000000000E+00  0.00000E+00  9.000E+00
      21    -1     0     0   501   502  0.000000000E+00  0.000000000E+00 -1.719080947E+02  1.719080947E+02  0.000000000E+00  0.00000E+00  9.000E+00
      25     1     1     2     0     0  1.898683438E+02  2.422497412E+02  2.024300254E+02  3.890216450E+02  1.250000000E+02  0.00000E+00  9.000E+00
      25     1     1     2     0     0 -1.099252213E+02 -1.667397526E+02  1.808553733E+02  2.970174497E+02  1.250000000E+02  0.00000E+00  9.000E+00
       1     1     1     2   501     0 -7.994312252E+01 -7.550998865E+01  1.267157933E+02  1.677782867E+02  1.907348633E-06  0.00000E+00  9.000E+00
#rwgt            1           1   3.1047431848826287E-002           7      316518           0
</event>
<event>
      5   9999  3.19816E-02  1.00887E+02 -1.00000E+00  1.23656E-01
      21    -1     0     0   511   501  0.000000000E+00  0.000000000E+00  3.872425589E+02  3.872425589E+02  0.000000000E+00  0.00000E+00  9.000E+00
      21    -1     0     0   501   502  0.000000000E+00  0.000000000E+00 -7.711723515E+02  7.711723515E+02  0.000000000E+00  0.00000E+00  9.000E+00
      25     1     1     2     0     0 -2.563344132E+02 -2.669812747E+02  1.773258722E+02  4.290172461E+02  1.250000000E+02  0.00000E+00  9.000E+00
      25     1     1     2     0     0  1.556482593E+02  2.606194490E+02 -5.306155399E+02  6.239605187E+02  1.250000000E+02  0.00000E+00  9.000E+00
      21     1     1     2   511   502  1.006861539E+02  6.361825792E+00 -3.064012502E+01  1.054371456E+02  1.719260824E-06  0.00000E+00  9.000E+00
#rwgt            1           1   2.9407248891589476E-002           7      316579           0
</event>
<event>
      5   9999  3.19816E-02  1.25068E+02 -1.00000E+00  1.19611E-01
      21    -1     0     0   502   501  0.000000000E+00  0.000000000E+00  7.941178679E+02  7.941178679E+02  0.000000000E+00  0.00000E+00  9.000E+00
      21    -1     0     0   501   512  0.000000000E+00  0.000000000E+00 -8.472076776E+02  8.472076776E+02  0.000000000E+00  0.00000E+00  9.000E+00
      25     1     1     2     0     0 -5.869247078E+01 -7.877702145E+02  1.293249913E+02  8.101707661E+02  1.250000000E+02  0.00000E+00  9.000E+00
      25     1     1     2     0     0  1.138764130E+01  6.719932240E+02 -1.760732760E+02  7.059258956E+02  1.250000000E+02  0.00000E+00  9.000E+00
      21     1     1     2   502   512  4.730482948E+01  1.157769904E+02 -6.341524983E+00  1.252288838E+02  9.938080311E-07  0.00000E+00  9.000E+00
#rwgt            1           1   3.1265115995742943E-002           7      316672           0
</event>
<event>
      5   9999  3.19816E-02  1.48366E+01 -1.00000E+00  1.77833E-01
      21    -1     0     0   502   501  0.000000000E+00  0.000000000E+00  3.972850406E+02  3.972850406E+02  0.000000000E+00  0.00000E+00  9.000E+00
      -5    -1     0     0     0   502  0.000000000E+00  0.000000000E+00 -2.042940220E+03  2.042940220E+03  0.000000000E+00  0.00000E+00  9.000E+00
      25     1     1     2     0     0 -1.042116694E+02  6.121096366E+01  3.081193631E+02  3.537928716E+02  1.250000000E+02  0.00000E+00  9.000E+00
      25     1     1     2     0     0  1.184823467E+02 -6.526954475E+01 -6.161592876E+01  1.942156086E+02  1.250000000E+02  0.00000E+00  9.000E+00
      -5     1     1     2     0   501 -1.427067736E+01  4.058581083E+00 -1.892158613E+03  1.892216780E+03  3.051757812E-05  0.00000E+00  9.000E+00
#rwgt            1           1   2.7684108161955583E-002           7      316742           0
</event>
<event>
      5   9999  3.19816E-02  6.16757E+02 -1.00000E+00  9.63299E-02
      21    -1     0     0   502   511  0.000000000E+00  0.000000000E+00  8.849189391E+02  8.849189391E+02  0.000000000E+00  0.00000E+00  9.000E+00
      21    -1     0     0   501   502  0.000000000E+00  0.000000000E+00 -8.256309324E+02  8.256309324E+02  0.000000000E+00  0.00000E+00  9.000E+00
      25     1     1     2     0     0 -1.579161954E+02  1.530009140E+02 -5.896903031E+01  2.597097437E+02  1.250000000E+02  0.00000E+00  9.000E+00
      25     1     1     2     0     0  6.769375001E+02  1.801753828E+02 -2.233468625E+02  7.457991476E+02  1.250000000E+02  0.00000E+00  9.000E+00
      21     1     1     2   501   511 -5.190213047E+02 -3.331762969E+02  3.416038995E+02  7.050409801E+02  1.572839976E-05  0.00000E+00  9.000E+00
#rwgt            2          11   1.9966463514867663E-003           7      316923           0
</event>
<event>
      5   9999  3.19816E-02  6.29149E+01 -1.00000E+00  1.33612E-01
      21    -1     0     0   502   501  0.000000000E+00  0.000000000E+00  6.713534391E+01  6.713534391E+01  0.000000000E+00  0.00000E+00  9.000E+00
      21    -1     0     0   512   502  0.000000000E+00  0.000000000E+00 -7.581076061E+02  7.581076061E+02  0.000000000E+00  0.00000E+00  9.000E+00
      25     1     1     2     0     0  7.968182502E+01 -7.421647954E+01 -3.570842983E+02  3.936895670E+02  1.250000000E+02  0.00000E+00  9.000E+00
      25     1     1     2     0     0 -1.408542964E+02  5.951234525E+01 -1.879815072E+02  2.726604099E+02  1.250000000E+02  0.00000E+00  9.000E+00
      21     1     1     2   512   501  6.117247137E+01  1.470413428E+01 -1.459064567E+02  1.588929732E+02  1.907348633E-06  0.00000E+00  9.000E+00
#rwgt            1           1   2.8377316794993543E-002           7      316973           0
</event>
<event>
      5   9999  3.19816E-02  1.70050E+02 -1.00000E+00  1.14274E-01
      21    -1     0     0   502   501  0.000000000E+00  0.000000000E+00  6.738510240E+02  6.738510240E+02  0.000000000E+00  0.00000E+00  9.000E+00
      21    -1     0     0   511   502  0.000000000E+00  0.000000000E+00 -5.301525811E+02  5.301525811E+02  0.000000000E+00  0.00000E+00  9.000E+00
      25     1     1     2     0     0 -9.903873622E+01 -1.962394461E+02  4.743255387E+02  5.375205188E+02  1.250000000E+02  0.00000E+00  9.000E+00
      25     1     1     2     0     0  2.296807040E+02  3.050963732E+02 -2.774804499E+02  4.883210244E+02  1.250000000E+02  0.00000E+00  9.000E+00
      21     1     1     2   511   501 -1.306419678E+02 -1.088569271E+02 -5.314664595E+01  1.781620620E+02  1.907348633E-06  0.00000E+00  9.000E+00
#rwgt            1           1   2.5985251853574979E-002           7      317027           0
</event>
<event>
      5   9999  3.19816E-02  2.14466E+02 -1.00000E+00  1.10555E-01
      21    -1     0     0   502   501  0.000000000E+00  0.000000000E+00  1.759944251E+03  1.759944251E+03  0.000000000E+00  0.00000E+00  9.000E+00
      21    -1     0     0   512   502  0.000000000E+00  0.000000000E+00 -3.825961963E+02  3.825961963E+02  0.000000000E+00  0.00000E+00  9.000E+00
      25     1     1     2     0     0  3.611886036E+02 -3.623351414E+02  1.305361036E+03  1.407599515E+03  1.250000000E+02  0.00000E+00  9.000E+00
      25     1     1     2     0     0 -2.486972690E+02  1.797394119E+02  2.817625883E+02  4.349387818E+02  1.250000000E+02  0.00000E+00  9.000E+00
      21     1     1     2   512   501 -1.124913346E+02  1.825957295E+02 -2.097755692E+02  3.000021503E+02  0.000000000E+00  0.00000E+00  9.000E+00
#rwgt            1           1   2.6504207522443857E-002           7      317094           0
</event>
<event>
      5   9999  3.19816E-02  7.39752E+01 -1.00000E+00  1.30017E-01
      21    -1     0     0   502   501  0.000000000E+00  0.000000000E+00  3.456168457E+01  3.456168457E+01  0.000000000E+00  0.00000E+00  9.000E+00
       2    -1     0     0   501     0  0.000000000E+00  0.000000000E+00 -3.291964891E+03  3.291964891E+03  0.000000000E+00  0.00000E+00  9.000E+00
      25     1     1     2     0     0 -1.361449852E+02 -1.236320160E+01 -4.481489437E+02  4.849234800E+02  1.250000000E+02  0.00000E+00  9.000E+00
      25     1     1     2     0     0  7.625484710E+01  5.578561967E+01 -3.775459502E+02  4.087698393E+02  1.250000000E+02  0.00000E+00  9.000E+00
       2     1     1     2   502     0  5.989013810E+01 -4.342241806E+01 -2.431708313E+03  2.432833257E+03  0.000000000E+00  0.00000E+00  9.000E+00
#rwgt            1           1   3.3654232266688490E-002           7      317195           0
</event>
<event>
      5   9999  3.19816E-02  5.13827E+01 -1.00000E+00  1.38403E-01
      21    -1     0     0   511   501  0.000000000E+00  0.000000000E+00  3.204054891E+02  3.204054891E+02  0.000000000E+00  0.00000E+00  9.000E+00
      21    -1     0     0   501   502  0.000000000E+00  0.000000000E+00 -6.751207611E+02  6.751207611E+02  0.000000000E+00  0.00000E+00  9.000E+00
      25     1     1     2     0     0  2.107679991E+02 -8.827987089E+01  1.696966067E+02  3.108672118E+02  1.250000000E+02  0.00000E+00  9.000E+00
      25     1     1     2     0     0 -1.606921507E+02  7.676512269E+01 -5.736298443E+02  6.135071717E+02  1.250000000E+02  0.00000E+00  9.000E+00
      21     1     1     2   511   502 -5.007584833E+01  1.151474820E+01  4.921796558E+01  7.115186679E+01  1.168007728E-06  0.00000E+00  9.000E+00
#rwgt            1           1   2.8239813032123254E-002           7      317255           0
</event>
<event>
      5   9999  3.19816E-02  3.17236E+01 -1.00000E+00  1.51374E-01
      21    -1     0     0   502   501  0.000000000E+00  0.000000000E+00  6.620620318E+02  6.620620318E+02  0.000000000E+00  0.00000E+00  9.000E+00
      21    -1     0     0   512   502  0.000000000E+00  0.000000000E+00 -1.789089381E+02  1.789089381E+02  0.000000000E+00  0.00000E+00  9.000E+00
      25     1     1     2     0     0  9.854748631E+01 -2.207143850E+02  2.136292801E+01  2.729612088E+02  1.250000000E+02  0.00000E+00  9.000E+00
      25     1     1     2     0     0 -1.227511757E+02  2.002066769E+02  4.654100943E+02  5.360803303E+02  1.250000000E+02  0.00000E+00  9.000E+00
      21     1     1     2   512   501  2.420368939E+01  2.050770806E+01 -3.619928570E+00  3.192943082E+01  3.318646170E-07  0.00000E+00  9.000E+00
#rwgt            1           1   2.7820319576004879E-002           7      317345           0
</event>
<event>
      5   9999  3.19816E-02  3.54907E+01 -1.00000E+00  1.48137E-01
      21    -1     0     0   502   501  0.000000000E+00  0.000000000E+00  1.530154187E+02  1.530154187E+02  0.000000000E+00  0.00000E+00  9.000E+00
      21    -1     0     0   511   502  0.000000000E+00  0.000000000E+00 -1.369000153E+03  1.369000153E+03  0.000000000E+00  0.00000E+00  9.000E+00
      25     1     1     2     0     0  1.445836449E+02 -3.704144121E+02 -4.539595733E+02  6.162917825E+02  1.250000000E+02  0.00000E+00  9.000E+00
      25     1     1     2     0     0 -1.797503232E+02  3.751991464E+02 -6.054128039E+02  7.451404172E+02  1.250000000E+02  0.00000E+00  9.000E+00
      21     1     1     2   511   501  3.516667833E+01 -4.784734305E+00 -1.566123571E+02  1.605833719E+02  2.697398305E-06  0.00000E+00  9.000E+00
#rwgt            1           1   2.8374303158245160E-002           7      317482           0
</event>
<event>
      5   9999  3.19816E-02  3.25595E+01 -1.00000E+00  1.50611E-01
      21    -1     0     0   502   501  0.000000000E+00  0.000000000E+00  2.843633512E+02  2.843633512E+02  0.000000000E+00  0.00000E+00  9.000E+00
      21    -1     0     0   501   512  0.000000000E+00  0.000000000E+00 -4.452219328E+02  4.452219328E+02  0.000000000E+00  0.00000E+00  9.000E+00
      25     1     1     2     0     0  9.970941143E+01 -2.435821443E+02  8.218673449E+01  3.027439299E+02  1.250000000E+02  0.00000E+00  9.000E+00
      25     1     1     2     0     0 -1.241466910E+02  2.650981501E+02 -2.188699006E+02  3.862880576E+02  1.250000000E+02  0.00000E+00  9.000E+00
      21     1     1     2   502   512  2.443727955E+01 -2.151600582E+01 -2.417541553E+01  4.055329647E+01  4.768371582E-07  0.00000E+00  9.000E+00
#rwgt            1           1   2.8992156853482880E-002           7      317664           0
</event>
<event>
      5   9999  3.19816E-02  7.67651E+01 -1.00000E+00  1.29223E-01
      21    -1     0     0   511   501  0.000000000E+00  0.000000000E+00  1.617278822E+02  1.617278822E+02  0.000000000E+00  0.00000E+00  9.000E+00
      21    -1     0     0   501   502  0.000000000E+00  0.000000000E+00 -4.483047673E+02  4.483047673E+02  0.000000000E+00  0.00000E+00  9.000E+00
      25     1     1     2     0     0 -1.053980375E+02  4.216571369E+01 -3.041036766E+02  3.478372319E+02  1.250000000E+02  0.00000E+00  9.000E+00
      25     1     1     2     0     0  6.963073970E+01 -1.100890228E+02  3.393312744E+01  1.836967337E+02  1.250000000E+02  0.00000E+00  9.000E+00
      21     1     1     2   511   502  3.576729785E+01  6.792330911E+01 -1.640633585E+01  7.849868388E+01  4.768371582E-07  0.00000E+00  9.000E+00
#rwgt            1           1   3.0923966679059542E-002           7      317778           0
</event>
<event>
      5   9999  3.19816E-02  2.12205E+02 -1.00000E+00  1.10719E-01
      21    -1     0     0   502   512  0.000000000E+00  0.000000000E+00  7.096805576E+02  7.096805576E+02  0.000000000E+00  0.00000E+00  9.000E+00
      21    -1     0     0   501   502  0.000000000E+00  0.000000000E+00 -1.138142696E+03  1.138142696E+03  0.000000000E+00  0.00000E+00  9.000E+00
      25     1     1     2     0     0  2.979475446E+02 -1.736792007E+02  1.323701128E+02  3.899795519E+02  1.250000000E+02  0.00000E+00  9.000E+00
      25     1     1     2     0     0 -1.268767515E+02  2.992414971E+02 -9.515218717E+02  1.013243335E+03  1.250000000E+02  0.00000E+00  9.000E+00
      21     1     1     2   501   512 -1.710707931E+02 -1.255622964E+02  3.906896205E+02  4.446003667E+02  7.629394531E-06  0.00000E+00  9.000E+00
#rwgt            1           1   3.0626954770629558E-002           7      317865           0
</event>
<event>
      5   9999  3.19816E-02  3.75058E+01 -1.00000E+00  1.46596E-01
      21    -1     0     0   502   501  0.000000000E+00  0.000000000E+00  2.472799420E+02  2.472799420E+02  0.000000000E+00  0.00000E+00  9.000E+00
      21    -1     0     0   501   511  0.000000000E+00  0.000000000E+00 -3.482041737E+02  3.482041737E+02  0.000000000E+00  0.00000E+00  9.000E+00
      25     1     1     2     0     0  1.029962589E+02  1.281183381E+02 -1.865334988E+02  2.782845380E+02  1.250000000E+02  0.00000E+00  9.000E+00
      25     1     1     2     0     0 -1.276443532E+02 -1.563876640E+02  1.202457236E+02  2.661469827E+02  1.250000000E+02  0.00000E+00  9.000E+00
      21     1     1     2   502   511  2.464809429E+01  2.826932594E+01 -3.463645637E+01  5.105259495E+01  9.536743164E-07  0.00000E+00  9.000E+00
#rwgt            1           1   2.7596949003132445E-002           7      317906           0
</event>
<event>
      5   9999  3.19816E-02  8.03638E+01 -1.00000E+00  1.28254E-01
      21    -1     0     0   502   501  0.000000000E+00  0.000000000E+00  4.289279589E+02  4.289279589E+02  0.000000000E+00  0.00000E+00  9.000E+00
      21    -1     0     0   501   512  0.000000000E+00  0.000000000E+00 -7.620160457E+02  7.620160457E+02  0.000000000E+00  0.00000E+00  9.000E+00
      25     1     1     2     0     0 -8.862665279E+01 -2.265785838E+01 -5.218038570E+02  5.443090366E+02  1.250000000E+02  0.00000E+00  9.000E+00
      25     1     1     2     0     0  2.895474046E+01  7.648718631E+01  3.965782361E+02  4.237782015E+02  1.250000000E+02  0.00000E+00  9.000E+00
      21     1     1     2   502   512  5.967191233E+01 -5.382932792E+01 -2.078624660E+02  2.228567666E+02  2.697398305E-06  0.00000E+00  9.000E+00
#rwgt            1           1   2.9382631202259535E-002           7      318028           0
</event>
<event>
      5   9999  3.19816E-02  2.75187E+01 -1.00000E+00  1.55690E-01
       3    -1     0     0   502     0  0.000000000E+00  0.000000000E+00  2.186684848E+02  2.186684848E+02  0.000000000E+00  0.00000E+00  9.000E+00
      21    -1     0     0   501   502  0.000000000E+00  0.000000000E+00 -1.578425260E+03  1.578425260E+03  0.000000000E+00  0.00000E+00  9.000E+00
      25     1     1     2     0     0 -3.845166225E+01  5.057385463E+02 -6.929576590E+02  8.677933652E+02  1.250000000E+02  0.00000E+00  9.000E+00
      25     1     1     2     0     0  1.855003238E+01 -4.867331917E+02 -7.148025810E+02  8.739685541E+02  1.250000000E+02  0.00000E+00  9.000E+00
       3     1     1     2   501     0  1.990162987E+01 -1.900535453E+01  4.800346444E+01  5.533182602E+01  1.651812370E-06  0.00000E+00  9.000E+00
#rwgt            1           1   3.2097697244116936E-002           7      318111           0
</event>
<event>
      5   9999  3.19816E-02  5.92000E+01 -1.00000E+00  1.35016E-01
      21    -1     0     0   511   501  0.000000000E+00  0.000000000E+00  2.519878003E+02  2.519878003E+02  0.000000000E+00  0.00000E+00  9.000E+00
      21    -1     0     0   501   502  0.000000000E+00  0.000000000E+00 -4.942439910E+02  4.942439910E+02  0.000000000E+00  0.00000E+00  9.000E+00
      25     1     1     2     0     0  1.727434491E+02 -7.742556099E+01 -4.851373085E+01  2.319775825E+02  1.250000000E+02  0.00000E+00  9.000E+00
      25     1     1     2     0     0 -2.206710318E+02  4.267528906E+01 -2.984484661E+02  3.939712825E+02  1.250000000E+02  0.00000E+00  9.000E+00
      21     1     1     2   511   502  4.792758266E+01  3.475027193E+01  1.047060063E+02  1.202829262E+02  2.336015456E-06  0.00000E+00  9.000E+00
#rwgt            1           1   2.5620134217803944E-002           7      318253           0
</event>
<event>
      5   9999  3.19816E-02  9.98406E+01 -1.00000E+00  1.23859E-01
       4    -1     0     0   502     0  0.000000000E+00  0.000000000E+00  7.853732326E+02  7.853732326E+02  0.000000000E+00  0.00000E+00  9.000E+00
      21    -1     0     0   501   502  0.000000000E+00  0.000000000E+00 -4.843006006E+02  4.843006006E+02  0.000000000E+00  0.00000E+00  9.000E+00
      25     1     1     2     0     0 -1.235753502E+02 -5.242536000E+02  2.217418093E+02  5.957408281E+02  1.250000000E+02  0.00000E+00  9.000E+00
      25     1     1     2     0     0  1.567930305E+02  4.301009178E+02 -8.456272472E+01  4.820235558E+02  1.250000000E+02  0.00000E+00  9.000E+00
       4     1     1     2   501     0 -3.321768034E+01  9.415268226E+01  1.638935474E+02  1.919094493E+02  1.907348633E-06  0.00000E+00  9.000E+00
#rwgt            1           1   3.0030473936748028E-002           7      318354           0
</event>
<event>
      5   9999  3.19816E-02  9.19251E+01 -1.00000E+00  1.25495E-01
      21    -1     0     0   502   501  0.000000000E+00  0.000000000E+00  2.213625800E+02  2.213625800E+02  0.000000000E+00  0.00000E+00  9.000E+00
      21    -1     0     0   511   502  0.000000000E+00  0.000000000E+00 -5.880580211E+02  5.880580211E+02  0.000000000E+00  0.00000E+00  9.000E+00
      25     1     1     2     0     0 -3.279040560E+00  2.477078795E+02 -6.470206164E+01  2.849233273E+02  1.250000000E+02  0.00000E+00  9.000E+00
      25     1     1     2     0     0 -7.212082786E+01 -3.002919908E+02 -2.066348335E+02  3.920454668E+02  1.250000000E+02  0.00000E+00  9.000E+00
      21     1     1     2   511   501  7.539986842E+01  5.258411136E+01 -9.535854587E+01  1.324518071E+02  2.336015456E-06  0.00000E+00  9.000E+00
#rwgt            1           1   2.6104370365566697E-002           7      318423           0
</event>
<event>
      5   9999  3.19816E-02  1.26628E+02 -1.00000E+00  1.19385E-01
      21    -1     0     0   502   501  0.000000000E+00  0.000000000E+00  3.054152561E+03  3.054152561E+03  0.000000000E+00  0.00000E+00  9.000E+00
      21    -1     0     0   512   502  0.000000000E+00  0.000000000E+00 -4.296131750E+02  4.296131750E+02  0.000000000E+00  0.00000E+00  9.000E+00
      25     1     1     2     0     0  4.191481160E+02 -4.100490620E+02  2.574054332E+03  2.642954045E+03  1.250000000E+02  0.00000E+00  9.000E+00
      25     1     1     2     0     0 -4.567731340E+02  5.309585039E+02  5.892901576E+01  7.139021346E+02  1.250000000E+02  0.00000E+00  9.000E+00
      21     1     1     2   512   501  3.762501798E+01 -1.209094420E+02 -8.443961890E+00  1.269095569E+02  1.086048314E-06  0.00000E+00  9.000E+00
#rwgt            1           1   3.8665866389254469E-002           7      318499           0
</event>
<event>
      5   9999  3.19816E-02  3.78353E+01 -1.00000E+00  1.46355E-01
      21    -1     0     0   502   501  0.000000000E+00  0.000000000E+00  1.762277291E+02  1.762277291E+02  0.000000000E+00  0.00000E+00  9.000E+00
      21    -1     0     0   501   511  0.000000000E+00  0.000000000E+00 -1.470239662E+03  1.470239662E+03  0.000000000E+00  0.00000E+00  9.000E+00
      25     1     1     2     0     0  3.455754666E+02 -1.422531037E+02 -1.559069215E+02  4.237809774E+02  1.250000000E+02  0.00000E+00  9.000E+00
      25     1     1     2     0     0 -3.144621360E+02  1.637814436E+02 -8.168444308E+02  8.992055495E+02  1.250000000E+02  0.00000E+00  9.000E+00
      21     1     1     2   502   511 -3.111333060E+01 -2.152833988E+01 -3.212605807E+02  3.234808641E+02  0.000000000E+00  0.00000E+00  9.000E+00
#rwgt            1           1   2.7130640817898757E-002           7      318608           0
</event>
<event>
      5   9999  3.19816E-02  1.17399E+02 -1.00000E+00  1.20774E-01
      21    -1     0     0   502   501  0.000000000E+00  0.000000000E+00  8.746807875E+02  8.746807875E+02  0.000000000E+00  0.00000E+00  9.000E+00
       1    -1     0     0   501     0  0.000000000E+00  0.000000000E+00 -8.666556262E+02  8.666556262E+02  0.000000000E+00  0.00000E+00  9.000E+00
      25     1     1     2     0     0 -7.335080420E+01  4.184205847E+02  6.269463556E+02  7.675564207E+02  1.250000000E+02  0.00000E+00  9.000E+00
      25     1     1     2     0     0  1.894544344E+02 -4.358118882E+02 -1.862908471E+02  5.255038195E+02  1.250000000E+02  0.00000E+00  9.000E+00
       1     1     1     2   502     0 -1.161036302E+02  1.739130347E+01 -4.326303472E+02  4.482761735E+02  5.394796609E-06  0.00000E+00  9.000E+00
#rwgt            1           1   3.2577784726312946E-002           7      318782           0
</event>
<event>
      5   9999  3.19816E-02  2.59533E+02 -1.00000E+00  1.07678E-01
       1    -1     0     0   502     0  0.000000000E+00  0.000000000E+00  8.736972233E+02  8.736972233E+02  0.000000000E+00  0.00000E+00  9.000E+00
      21    -1     0     0   501   502  0.000000000E+00  0.000000000E+00 -2.787155193E+03  2.787155193E+03  0.000000000E+00  0.00000E+00  9.000E+00
      25     1     1     2     0     0  1.737542609E+01 -5.015237392E+02 -6.198505352E+02  8.072593464E+02  1.250000000E+02  0.00000E+00  9.000E+00
      25     1     1     2     0     0  2.417088298E+02  4.862766472E+02 -2.013059499E+03  2.088760801E+03  1.250000000E+02  0.00000E+00  9.000E+00
       1     1     1     2   501     0 -2.590842559E+02  1.524709208E+01  7.194520649E+02  7.648322687E+02  1.078959322E-05  0.00000E+00  9.000E+00
#rwgt            2          17   8.2917843496053967E-003           7      319170           0
</event>
<event>
      5   9999  3.19816E-02  1.35941E+01 -1.00000E+00  1.81507E-01
      21    -1     0     0   502   501  0.000000000E+00  0.000000000E+00  4.843847228E+02  4.843847228E+02  0.000000000E+00  0.00000E+00  9.000E+00
      21    -1     0     0   511   502  0.000000000E+00  0.000000000E+00 -1.585534134E+02  1.585534134E+02  0.000000000E+00  0.00000E+00  9.000E+00
      25     1     1     2     0     0  2.344381069E+02 -1.849639678E+01  1.365393326E+02  2.992847006E+02  1.250000000E+02  0.00000E+00  9.000E+00
      25     1     1     2     0     0 -2.324168489E+02  3.193941883E+01  1.941943991E+02  3.292023432E+02  1.250000000E+02  0.00000E+00  9.000E+00
      21     1     1     2   511   501 -2.021258036E+00 -1.344302204E+01 -4.902422325E+00  1.445109236E+01  2.598106231E-07  0.00000E+00  9.000E+00
#rwgt            1           1   2.9563293193583820E-002           7      319189           0
</event>
<event>
      5   9999  3.19816E-02  8.73843E+01 -1.00000E+00  1.26521E-01
      21    -1     0     0   502   512  0.000000000E+00  0.000000000E+00  4.099418663E+02  4.099418663E+02  0.000000000E+00  0.00000E+00  9.000E+00
      21    -1     0     0   501   502  0.000000000E+00  0.000000000E+00 -4.941629191E+02  4.941629191E+02  0.000000000E+00  0.00000E+00  9.000E+00
      25     1     1     2     0     0  1.956848872E+02 -8.609431202E+01 -8.501174237E+01  2.618335387E+02  1.250000000E+02  0.00000E+00  9.000E+00
      25     1     1     2     0     0 -2.260332026E+02  4.149205082E+00 -2.604311459E+02  3.668209459E+02  1.250000000E+02  0.00000E+00  9.000E+00
      21     1     1     2   501   512  3.034831543E+01  8.194510694E+01  2.612218356E+02  2.754503007E+02  5.394796609E-06  0.00000E+00  9.000E+00
#rwgt            1           1   2.8172179596082592E-002           7      319403           0
</event>
<event>
      5   9999  3.19816E-02  1.68444E+01 -1.00000E+00  1.72767E-01
      21    -1     0     0   502   511  0.000000000E+00  0.000000000E+00  1.750891130E+02  1.750891130E+02  0.000000000E+00  0.00000E+00  9.000E+00
      21    -1     0     0   501   502  0.000000000E+00  0.000000000E+00 -1.290781875E+03  1.290781875E+03  0.000000000E+00  0.00000E+00  9.000E+00
      25     1     1     2     0     0  7.906688978E+01 -1.914672318E+02 -1.199078317E+01  2.422396598E+02  1.250000000E+02  0.00000E+00  9.000E+00
      25     1     1     2     0     0 -8.272454822E+01  2.079096877E+02 -1.147986435E+03  1.176251523E+03  1.250000000E+02  0.00000E+00  9.000E+00
      21     1     1     2   501   511  3.657658438E+00 -1.644245592E+01  4.428445678E+01  4.737980513E+01  4.768371582E-07  0.00000E+00  9.000E+00
#rwgt            1           1   3.5197477000505933E-002           7      319472           0
</event>
<event>
      5   9999  3.19816E-02  4.77239E+01 -1.00000E+00  1.40240E-01
      21    -1     0     0   512   501  0.000000000E+00  0.000000000E+00  2.643263208E+02  2.643263208E+02  0.000000000E+00  0.00000E+00  9.000E+00
      21    -1     0     0   501   502  0.000000000E+00  0.000000000E+00 -4.554921389E+02  4.554921389E+02  0.000000000E+00  0.00000E+00  9.000E+00
      25     1     1     2     0     0 -1.851265214E+02  1.529767119E+02  5.374595559E+01  2.760205265E+02  1.250000000E+02  0.00000E+00  9.000E+00
      25     1     1     2     0     0  2.314956028E+02 -1.416861632E+02 -2.574830609E+02  3.944460795E+02  1.250000000E+02  0.00000E+00  9.000E+00
      21     1     1     2   512   502 -4.636908147E+01 -1.129054868E+01  1.257128720E+01  4.935185374E+01  0.000000000E+00  0.00000E+00  9.000E+00
#rwgt            2          11   3.1819370348956481E-003           7      319694           0
</event>
<event>
      5   9999  3.19816E-02  2.75293E+02 -1.00000E+00  1.06819E-01
      -2    -1     0     0     0   501  0.000000000E+00  0.000000000E+00  2.308608001E+03  2.308608001E+03  0.000000000E+00  0.00000E+00  9.000E+00
      21    -1     0     0   501   502  0.000000000E+00  0.000000000E+00 -1.619535626E+02  1.619535626E+02  0.000000000E+00  0.00000E+00  9.000E+00
      25     1     1     2     0     0 -7.714489548E+01  4.781872639E+02  7.005955969E+02  8.608563089E+02  1.250000000E+02  0.00000E+00  9.000E+00
      25     1     1     2     0     0 -1.773446413E+02 -3.732053623E+02  8.999798973E+02  9.981593960E+02  1.250000000E+02  0.00000E+00  9.000E+00
      -2     1     1     2     0   502  2.544895368E+02 -1.049819017E+02  5.460789441E+02  6.115458586E+02  1.321449896E-05  0.00000E+00  9.000E+00
#rwgt            2           4   3.0237690046694727E-005           7      319774           0
</event>
<event>
      5   9999  3.19816E-02  1.25154E+02 -1.00000E+00  1.19598E-01
      21    -1     0     0   502   511  0.000000000E+00  0.000000000E+00  1.016901875E+03  1.016901875E+03  0.000000000E+00  0.00000E+00  9.000E+00
      21    -1     0     0   501   502  0.000000000E+00  0.000000000E+00 -2.245216429E+02  2.245216429E+02  0.000000000E+00  0.00000E+00  9.000E+00
      25     1     1     2     0     0  2.773239112E+02 -2.009045034E+02  2.681593804E+02  4.525545541E+02  1.250000000E+02  0.00000E+00  9.000E+00
      25     1     1     2     0     0 -3.007793826E+02  3.238413456E+02  3.670539276E+02  5.879583658E+02  1.250000000E+02  0.00000E+00  9.000E+00
      21     1     1     2   501   511  2.345547136E+01 -1.229368423E+02  1.571669240E+02  2.009105978E+02  3.814697266E-06  0.00000E+00  9.000E+00
#rwgt            1           1   3.3299682148602718E-002           7      319793           0
</event>
<event>
      5   9999  3.19816E-02  9.75272E+01 -1.00000E+00  1.24319E-01
       3    -1     0     0   502     0  0.000000000E+00  0.000000000E+00  1.081752757E+03  1.081752757E+03  0.000000000E+00  0.00000E+00  9.000E+00
      21    -1     0     0   501   502  0.000000000E+00  0.000000000E+00 -7.480813290E+01  7.480813290E+01  0.000000000E+00  0.00000E+00  9.000E+00
      25     1     1     2     0     0  1.495477326E+01  2.003397537E+01  1.836161640E+02  2.235283004E+02  1.250000000E+02  0.00000E+00  9.000E+00
      25     1     1     2     0     0  6.272908649E+01 -7.899819573E+01  7.307540453E+01  1.764671867E+02  1.250000000E+02  0.00000E+00  9.000E+00
       3     1     1     2   501     0 -7.768385974E+01  5.896422035E+01  7.502530556E+02  7.565654029E+02  1.078959322E-05  0.00000E+00  9.000E+00
#rwgt            1           1   3.6836406029300953E-002           7      319877           0
</event>
<event>
      5   9999  3.19816E-02  1.30124E+02 -1.00000E+00  1.18894E-01
       2    -1     0     0   502     0  0.000000000E+00  0.000000000E+00  3.010711292E+03  3.010711292E+03  0.000000000E+00  0.00000E+00  9.000E+00
      21    -1     0     0   501   502  0.000000000E+00  0.000000000E+00 -1.417610871E+02  1.417610871E+02  0.000000000E+00  0.00000E+00  9.000E+00
      25     1     1     2     0     0 -3.410968498E+02 -4.427550986E+02  1.408107036E+03  1.520121562E+03  1.250000000E+02  0.00000E+00  9.000E+00
      25     1     1     2     0     0  2.110670347E+02  4.378065778E+02  7.049207616E+02  8.653104488E+02  1.250000000E+02  0.00000E+00  9.000E+00
       2     1     1     2   501     0  1.300298151E+02  4.948520839E+00  7.559224078E+02  7.670403687E+02  1.078959322E-05  0.00000E+00  9.000E+00
#rwgt            1           1   4.2527880331331133E-002           7      319921           0
</event>
<event>
      5   9999  3.19816E-02  6.13305E+01 -1.00000E+00  1.34196E-01
      21    -1     0     0   502   501  0.000000000E+00  0.000000000E+00  7.922745433E+02  7.922745433E+02  0.000000000E+00  0.00000E+00  9.000E+00
      21    -1     0     0   511   502  0.000000000E+00  0.000000000E+00 -8.378327822E+01  8.378327822E+01  0.000000000E+00  0.00000E+00  9.000E+00
      25     1     1     2     0     0  5.048064830E+01 -1.570049687E+02  3.481673261E+02  4.050238795E+02  1.250000000E+02  0.00000E+00  9.000E+00
      25     1     1     2     0     0 -6.049770079E+01  9.649806028E+01  3.719717602E+02  4.086071925E+02  1.250000000E+02  0.00000E+00  9.000E+00
      21     1     1     2   511   501  1.001705248E+01  6.050690840E+01 -1.164782119E+01  6.242674942E+01  1.951540177E-06  0.00000E+00  9.000E+00
#rwgt            1           1   2.8457943227232288E-002           7      319997           0
</event>
<event>
      5   9999  3.19816E-02  3.76058E+01 -1.00000E+00  1.46522E-01
      21    -1     0     0   502   512  0.000000000E+00  0.000000000E+00  5.668540864E+02  5.668540864E+02  0.000000000E+00  0.00000E+00  9.000E+00
      21    -1     0     0   501   502  0.000000000E+00  0.000000000E+00 -8.138801789E+01  8.138801789E+01  0.000000000E+00  0.00000E+00  9.000E+00
      25     1     1     2     0     0  7.107707032E+01  1.013956835E+02  1.337027649E+02  2.209852120E+02  1.250000000E+02  0.00000E+00  9.000E+00
      25     1     1     2     0     0 -1.075692714E+02 -9.231172123E+01  2.190108181E+02  2.892807295E+02  1.250000000E+02  0.00000E+00  9.000E+00
      21     1     1     2   501   512  3.649220106E+01 -9.083962248E+00  1.327524855E+02  1.379761629E+02  2.697398305E-06  0.00000E+00  9.000E+00
#rwgt            1           1   3.1245421063887495E-002           7      320073           0
</event>
<event>
      5   9999  3.19816E-02  1.16428E+02 -1.00000E+00  1.20928E-01
      21    -1     0     0   502   501  0.000000000E+00  0.000000000E+00  1.656201547E+03  1.656201547E+03  0.000000000E+00  0.00000E+00  9.000E+00
      21    -1     0     0   511   502  0.000000000E+00  0.000000000E+00 -3.720707042E+02  3.720707042E+02  0.000000000E+00  0.00000E+00  9.000E+00
      25     1     1     2     0     0 -1.190997642E+02  1.715189772E+02  6.810162464E+00  2.434643540E+02  1.250000000E+02  0.00000E+00  9.000E+00
      25     1     1     2     0     0  1.170410272E+01 -2.164814226E+02  1.506822876E+03  1.527462396E+03  1.250000000E+02  0.00000E+00  9.000E+00
      21     1     1     2   511   501  1.073956615E+02  4.496244538E+01 -2.295021950E+02  2.573455015E+02  5.394796609E-06  0.00000E+00  9.000E+00
#rwgt            1           1   2.5971665586982356E-002           7      320143           0
</event>
<event>
      5   9999  3.19816E-02  1.56263E+02 -1.00000E+00  1.15694E-01
      21    -1     0     0   502   501  0.000000000E+00  0.000000000E+00  9.052381796E+02  9.052381796E+02  0.000000000E+00  0.00000E+00  9.000E+00
      21    -1     0     0   501   512  0.000000000E+00  0.000000000E+00 -6.065747978E+02  6.065747978E+02  0.000000000E+00  0.00000E+00  9.000E+00
      25     1     1     2     0     0 -2.839137002E+02 -3.848900511E+01 -1.073936469E+02  3.305250188E+02  1.250000000E+02  0.00000E+00  9.000E+00
      25     1     1     2     0     0  4.361788606E+02  3.369845878E+00  7.082211902E+02  8.411097482E+02  1.250000000E+02  0.00000E+00  9.000E+00
      21     1     1     2   502   512 -1.522651604E+02  3.511915923E+01 -3.021641614E+02  3.401782105E+02  0.000000000E+00  0.00000E+00  9.000E+00
#rwgt            1           1   1.8341398528360631E-002           7      320239           0
</event>
<event>
      5   9999  3.19816E-02  4.08556E+01 -1.00000E+00  1.44272E-01
      21    -1     0     0   502   501  0.000000000E+00  0.000000000E+00  6.618458873E+02  6.618458873E+02  0.000000000E+00  0.00000E+00  9.000E+00
      21    -1     0     0   511   502  0.000000000E+00  0.000000000E+00 -1.316301590E+02  1.316301590E+02  0.000000000E+00  0.00000E+00  9.000E+00
      25     1     1     2     0     0  6.536892328E+01 -4.214555475E+01  5.462337823E+02  5.657258072E+02  1.250000000E+02  0.00000E+00  9.000E+00
      25     1     1     2     0     0 -6.625196564E+01  8.299158412E+01  2.943058155E+01  1.666375861E+02  1.250000000E+02  0.00000E+00  9.000E+00
      21     1     1     2   511   501  8.830423635E-01 -4.084602937E+01 -4.544863557E+01  6.111265297E+01  1.784161275E-06  0.00000E+00  9.000E+00
#rwgt            1           1   2.7062941028539941E-002           7      320290           0
</event>
<event>
      5   9999  3.19816E-02  2.70660E+02 -1.00000E+00  1.07065E-01
      21    -1     0     0   502   501  0.000000000E+00  0.000000000E+00  1.777089195E+03  1.777089195E+03  0.000000000E+00  0.00000E+00  9.000E+00
       1    -1     0     0   501     0  0.000000000E+00  0.000000000E+00 -6.585429178E+02  6.585429178E+02  0.000000000E+00  0.00000E+00  9.000E+00
      25     1     1     2     0     0 -4.957147620E+02  3.253108257E+02  2.199822758E+02  6.446529766E+02  1.250000000E+02  0.00000E+00  9.000E+00
      25     1     1     2     0     0  4.150808533E+02 -6.694046113E+01  1.263017029E+03  1.337015391E+03  1.250000000E+02  0.00000E+00  9.000E+00
       1     1     1     2   502     0  8.063390874E+01 -2.583703646E+02 -3.644530277E+02  4.539637452E+02  0.000000000E+00  0.00000E+00  9.000E+00
#rwgt            2          12   6.4856269448921298E-004           7      320435           0
</event>
<event>
      5   9999  3.19816E-02  2.60029E+01 -1.00000E+00  1.57482E-01
      21    -1     0     0   502   501  0.000000000E+00  0.000000000E+00  1.210338906E+02  1.210338906E+02  0.000000000E+00  0.00000E+00  9.000E+00
      21    -1     0     0   511   502  0.000000000E+00  0.000000000E+00 -7.790866714E+02  7.790866714E+02  0.000000000E+00  0.00000E+00  9.000E+00
      25     1     1     2     0     0 -2.458423324E+02 -1.168506791E+02 -3.274026778E+02  4.437454755E+02  1.250000000E+02  0.00000E+00  9.000E+00
      25     1     1     2     0     0  2.216566176E+02  1.073006695E+02 -2.531897063E+02  3.746666748E+02  1.250000000E+02  0.00000E+00  9.000E+00
      21     1     1     2   511   501  2.418571472E+01  9.550009610E+00 -7.746039678E+01  8.170841174E+01  1.348699152E-06  0.00000E+00  9.000E+00
#rwgt            1           1   2.9060946413375411E-002           7      320454           0
</event>
<event>
      5   9999  3.19816E-02  3.35934E+01 -1.00000E+00  1.49704E-01
       1    -1     0     0   502     0  0.000000000E+00  0.000000000E+00  1.039029040E+03  1.039029040E+03  0.000000000E+00  0.00000E+00  9.000E+00
      21    -1     0     0   501   502  0.000000000E+00  0.000000000E+00 -1.174653963E+02  1.174653963E+02  0.000000000E+00  0.00000E+00  9.000E+00
      25     1     1     2     0     0 -8.635780424E+01  7.328143067E+01  1.049071904E+02  1.986412773E+02  1.250000000E+02  0.00000E+00  9.000E+00
      25     1     1     2     0     0  1.191180522E+02 -8.071659696E+01  5.910355046E+01  1.995557793E+02  1.250000000E+02  0.00000E+00  9.000E+00
       1     1     1     2   501     0 -3.276024792E+01  7.435166291E+00  7.575529030E+02  7.582973799E+02  0.000000000E+00  0.00000E+00  9.000E+00
#rwgt            1           1   2.2700690599781040E-002           7      320591           0
</event>
<event>
      5   9999  3.19816E-02  9.27336E+01 -1.00000E+00  1.25320E-01
      21    -1     0     0   502   511  0.000000000E+00  0.000000000E+00  1.014920079E+03  1.014920079E+03  0.000000000E+00  0.00000E+00  9.000E+00
      21    -1     0     0   501   502  0.000000000E+00  0.000000000E+00 -4.742759974E+02  4.742759974E+02  0.000000000E+00  0.00000E+00  9.000E+00
      25     1     1     2     0     0 -4.580793546E+02  5.207927723E+01 -3.984800521E+01  4.793347575E+02  1.250000000E+02  0.00000E+00  9.000E+00
      25     1     1     2     0     0  5.026844231E+02  2.922204356E+01  1.100413808E+02  5.303580513E+02  1.250000000E+02  0.00000E+00  9.000E+00
      21     1     1     2   501   511 -4.460506857E+01 -8.130132079E+01  4.704507061E+02  4.795032678E+02  5.394796609E-06  0.00000E+00  9.000E+00
#rwgt            1           1   2.6761773771307906E-002           7      320695           0
</event>
<event>
      5   9999  3.19816E-02  2.18008E+01 -1.00000E+00  1.63338E-01
      21    -1     0     0   502   512  0.000000000E+00  0.000000000E+00  3.611075328E+02  3.611075328E+02  0.000000000E+00  0.00000E+00  9.000E+00
      21    -1     0     0   501   502  0.000000000E+00  0.000000000E+00 -2.989874913E+02  2.989874913E+02  0.000000000E+00  0.00000E+00  9.000E+00
      25     1     1     2     0     0 -5.825833149E+01 -2.011075674E+02  2.292520992E+02  3.346936089E+02  1.250000000E+02  0.00000E+00  9.000E+00
      25     1     1     2     0     0  3.900272645E+01  2.113300016E+02 -1.729347333E+02  3.028415497E+02  1.250000000E+02  0.00000E+00  9.000E+00
      21     1     1     2   501   512  1.925560504E+01 -1.022243427E+01  5.802675623E+00  2.255986552E+01  0.000000000E+00  0.00000E+00  9.000E+00
#rwgt            1           1   2.9190214102157667E-002           7      320764           0
</event>
<event>
      5   9999  3.19816E-02  9.69888E+01 -1.00000E+00  1.24428E-01
      21    -1     0     0   502   501  0.000000000E+00  0.000000000E+00  4.722596743E+02  4.722596743E+02  0.000000000E+00  0.00000E+00  9.000E+00
      21    -1     0     0   511   502  0.000000000E+00  0.000000000E+00 -4.330217451E+02  4.330217451E+02  0.000000000E+00  0.00000E+00  9.000E+00
      25     1     1     2     0     0 -1.266506121E+01  1.822580657E+02  3.698457413E+02  4.310328046E+02  1.250000000E+02  0.00000E+00  9.000E+00
      25     1     1     2     0     0  1.560867410E+01 -8.531389823E+01 -2.571313867E+01  1.542992464E+02  1.250000000E+02  0.00000E+00  9.000E+00
      21     1     1     2   511   501 -2.943612890E+00 -9.694416748E+01 -3.048946735E+02  3.199493685E+02  5.394796609E-06  0.00000E+00  9.000E+00
#rwgt            2          11   3.6148460526356481E-003           7      321007           0
</event>
<event>
      5   9999  3.19816E-02  3.48609E+01 -1.00000E+00  1.48644E-01
      21    -1     0     0   502   501  0.000000000E+00  0.000000000E+00  1.402213050E+03  1.402213050E+03  0.000000000E+00  0.00000E+00  9.000E+00
      21    -1     0     0   512   502  0.000000000E+00  0.000000000E+00 -2.454895996E+02  2.454895996E+02  0.000000000E+00  0.00000E+00  9.000E+00
      25     1     1     2     0     0 -3.226008604E+02 -4.278859639E+02  8.456459185E+02  1.008910171E+03  1.250000000E+02  0.00000E+00  9.000E+00
      25     1     1     2     0     0  2.920798697E+02  4.110409618E+02  3.076328056E+02  6.037617623E+02  1.250000000E+02  0.00000E+00  9.000E+00
      21     1     1     2   512   501  3.052099070E+01  1.684500216E+01  3.444726444E+00  3.503071668E+01  6.502099105E-07  0.00000E+00  9.000E+00
#rwgt            1           1   2.9014577827339450E-002           7      321042           0
</event>
<event>
      5   9999  3.19816E-02  3.11185E+01 -1.00000E+00  1.51944E-01
      21    -1     0     0   502   501  0.000000000E+00  0.000000000E+00  9.729464311E+02  9.729464311E+02  0.000000000E+00  0.00000E+00  9.000E+00
      21    -1     0     0   501   511  0.000000000E+00  0.000000000E+00 -3.297154137E+02  3.297154137E+02  0.000000000E+00  0.00000E+00  9.000E+00
      25     1     1     2     0     0  2.878359595E+01  1.879533505E+02 -1.001269965E+02  2.486068639E+02  1.250000000E+02  0.00000E+00  9.000E+00
      25     1     1     2     0     0 -5.972597755E+01 -1.846474905E+02  8.821317051E+02  9.118350910E+02  1.250000000E+02  0.00000E+00  9.000E+00
      21     1     1     2   502   511  3.094238160E+01 -3.305860012E+00 -1.387736912E+02  1.422198898E+02  2.697398305E-06  0.00000E+00  9.000E+00
#rwgt            1           1   2.7754939791730784E-002           7      321166           0
</event>
<event>
      5   9999  3.19816E-02  1.99995E+01 -1.00000E+00  1.66370E-01
      21    -1     0     0   502   512  0.000000000E+00  0.000000000E+00  1.682216246E+03  1.682216246E+03  0.000000000E+00  0.00000E+00  9.000E+00
      21    -1     0     0   501   502  0.000000000E+00  0.000000000E+00 -1.124224906E+02  1.124224906E+02  0.000000000E+00  0.00000E+00  9.000E+00
      25     1     1     2     0     0  1.545671963E+02 -1.679364866E+02  1.187045835E+03  1.215235161E+03  1.250000000E+02  0.00000E+00  9.000E+00
      25     1     1     2     0     0 -1.744739078E+02  1.660122271E+02  8.986041064E+01  2.858340383E+02  1.250000000E+02  0.00000E+00  9.000E+00
      21     1     1     2   501   512  1.990671154E+01  1.924259448E+00  2.928875104E+02  2.935695380E+02  3.814697266E-06  0.00000E+00  9.000E+00
#rwgt            1           1   2.8920302135113537E-002           7      321411           0
</event>
<event>
      5   9999  3.19816E-02  2.20010E+01 -1.00000E+00  1.63023E-01
      21    -1     0     0   502   501  0.000000000E+00  0.000000000E+00  1.460394904E+03  1.460394904E+03  0.000000000E+00  0.00000E+00  9.000E+00
      21    -1     0     0   501   511  0.000000000E+00  0.000000000E+00 -1.581492050E+02  1.581492050E+02  0.000000000E+00  0.00000E+00  9.000E+00
      25     1     1     2     0     0 -4.221756232E+02  2.891848038E+01  8.003612974E+02  9.139320225E+02  1.250000000E+02  0.00000E+00  9.000E+00
      25     1     1     2     0     0  4.253439538E+02 -5.069010906E+01  5.130415375E+02  6.799438104E+02  1.250000000E+02  0.00000E+00  9.000E+00
      21     1     1     2   502   511 -3.168330592E+00  2.177162869E+01 -1.115713637E+01  2.466827571E+01  6.637292341E-07  0.00000E+00  9.000E+00
#rwgt            1           1   3.4539399582599925E-002           7      321583           0
</event>
<event>
      5   9999  3.19816E-02  1.71221E+02 -1.00000E+00  1.14161E-01
      21    -1     0     0   512   501  0.000000000E+00  0.000000000E+00  1.047338749E+03  1.047338749E+03  0.000000000E+00  0.00000E+00  9.000E+00
      21    -1     0     0   501   502  0.000000000E+00  0.000000000E+00 -5.032816010E+02  5.032816010E+02  0.000000000E+00  0.00000E+00  9.000E+00
      25     1     1     2     0     0 -2.319621520E+02  5.365503198E+01 -2.254791293E+01  2.698494224E+02  1.250000000E+02  0.00000E+00  9.000E+00
      25     1     1     2     0     0  3.474161325E+02 -1.800942781E+02 -2.266982815E+02  4.692004145E+02  1.250000000E+02  0.00000E+00  9.000E+00
      21     1     1     2   512   502 -1.154539805E+02  1.264392461E+02  7.933033426E+02  8.115705132E+02  0.000000000E+00  0.00000E+00  9.000E+00
#rwgt            1           1   2.8583805353704490E-002           7      321712           0
</event>
<event>
      5   9999  3.19816E-02  1.40065E+02 -1.00000E+00  1.17585E-01
      21    -1     0     0   502   511  0.000000000E+00  0.000000000E+00  4.268047634E+02  4.268047634E+02  0.000000000E+00  0.00000E+00  9.000E+00
      21    -1     0     0   501   502  0.000000000E+00  0.000000000E+00 -1.122018522E+03  1.122018522E+03  0.000000000E+00  0.00000E+00  9.000E+00
      25     1     1     2     0     0 -3.402246945E+02 -1.244704451E+02  1.199102122E+02  4.015584559E+02  1.250000000E+02  0.00000E+00  9.000E+00
      25     1     1     2     0     0  3.939998241E+02 -4.860333147E+00 -8.951210917E+02  9.859646307E+02  1.250000000E+02  0.00000E+00  9.000E+00
      21     1     1     2   501   511 -5.377512955E+01  1.293307783E+02  7.999712087E+01  1.613001988E+02  2.697398305E-06  0.00000E+00  9.000E+00
#rwgt            1           1   2.9375177715510136E-002           7      321787           0
</event>
<event>
      5   9999  3.19816E-02  2.31146E+02 -1.00000E+00  1.09407E-01
      21    -1     0     0   512   501  0.000000000E+00  0.000000000E+00  2.684801401E+03  2.684801401E+03  0.000000000E+00  0.00000E+00  9.000E+00
      21    -1     0     0   501   502  0.000000000E+00  0.000000000E+00 -8.687615777E+02  8.687615777E+02  0.000000000E+00  0.00000E+00  9.000E+00
      25     1     1     2     0     0  9.768672220E+01  1.126475528E+03 -2.627988607E+02  1.167552163E+03  1.250000000E+02  0.00000E+00  9.000E+00
      25     1     1     2     0     0  2.442495620E+01 -9.302177348E+02  1.626615618E+03  1.878138702E+03  1.250000000E+02  0.00000E+00  9.000E+00
      21     1     1     2   512   502 -1.221116784E+02 -1.962577934E+02  4.522230658E+02  5.078721145E+02  5.394796609E-06  0.00000E+00  9.000E+00
#rwgt            1           1   5.7733661558627483E-002           7      321855           0
</event>
<event>
      5   9999  3.19816E-02  2.44287E+01 -1.00000E+00  1.59507E-01
      21    -1     0     0   511   501  0.000000000E+00  0.000000000E+00  2.886918987E+03  2.886918987E+03  0.000000000E+00  0.00000E+00  9.000E+00
      21    -1     0     0   501   502  0.000000000E+00  0.000000000E+00 -1.135848094E+02  1.135848094E+02  0.000000000E+00  0.00000E+00  9.000E+00
      25     1     1     2     0     0 -1.067735703E+01 -4.192478353E+02  1.627452076E+03  1.685262001E+03  1.250000000E+02  0.00000E+00  9.000E+00
      25     1     1     2     0     0 -1.292203072E+01  4.129366231E+02  4.670088536E+02  6.359291650E+02  1.250000000E+02  0.00000E+00  9.000E+00
      21     1     1     2   511   502  2.359938775E+01  6.311212255E+00  6.788732486E+02  6.793126307E+02  1.078959322E-05  0.00000E+00  9.000E+00
#rwgt            1           1   3.1430449970065881E-002           7      321957           0
</event>
<event>
      5   9999  3.19816E-02  1.14291E+01 -1.00000E+00  1.89281E-01
      21    -1     0     0   512   501  0.000000000E+00  0.000000000E+00  1.333566806E+02  1.333566806E+02  0.000000000E+00  0.00000E+00  9.000E+00
      21    -1     0     0   501   502  0.000000000E+00  0.000000000E+00 -8.360732666E+02  8.360732666E+02  0.000000000E+00  0.00000E+00  9.000E+00
      25     1     1     2     0     0 -1.659254356E+02 -2.169482832E+02 -5.208368776E+02  6.012435952E+02  1.250000000E+02  0.00000E+00  9.000E+00
      25     1     1     2     0     0  1.769929043E+02  2.198007103E+02 -1.741638303E+02  3.543965014E+02  1.250000000E+02  0.00000E+00  9.000E+00
      21     1     1     2   512   502 -1.106746868E+01 -2.852427105E+00 -7.715878136E+00  1.378985057E+01  2.064765462E-07  0.00000E+00  9.000E+00
#rwgt            1           1   3.1796617778560812E-002           7      322098           0
</event>
<event>
      5   9999  3.19816E-02  5.57131E+01 -1.00000E+00  1.36447E-01
       2    -1     0     0   502     0  0.000000000E+00  0.000000000E+00  2.812587702E+03  2.812587702E+03  0.000000000E+00  0.00000E+00  9.000E+00
      21    -1     0     0   501   502  0.000000000E+00  0.000000000E+00 -1.536774748E+02  1.536774748E+02  0.000000000E+00  0.00000E+00  9.000E+00
      25     1     1     2     0     0  2.091847085E+02 -1.743042970E+02  4.142946073E+02  5.112780573E+02  1.250000000E+02  0.00000E+00  9.000E+00
      25     1     1     2     0     0 -1.608813056E+02  1.465422262E+02  4.536411022E+01  2.550300395E+02  1.250000000E+02  0.00000E+00  9.000E+00
       2     1     1     2   501     0 -4.830340296E+01  2.776207071E+01  2.199251510E+03  2.199957080E+03  4.315837288E-05  0.00000E+00  9.000E+00
#rwgt            1           1   2.6677324552550293E-002           7      322333           0
</event>
<event>
      5   9999  3.19816E-02  1.57386E+02 -1.00000E+00  1.15572E-01
       2    -1     0     0   502     0  0.000000000E+00  0.000000000E+00  1.508985509E+03  1.508985509E+03  0.000000000E+00  0.00000E+00  9.000E+00
      21    -1     0     0   501   502  0.000000000E+00  0.000000000E+00 -9.992738091E+02  9.992738091E+02  0.000000000E+00  0.00000E+00  9.000E+00
      25     1     1     2     0     0 -4.867153351E+02 -5.368290781E+02  1.025761495E+03  1.262097033E+03  1.250000000E+02  0.00000E+00  9.000E+00
      25     1     1     2     0     0  3.303358210E+02  5.546034849E+02 -7.287700956E+02  9.815485889E+02  1.250000000E+02  0.00000E+00  9.000E+00
       2     1     1     2   501     0  1.563795141E+02 -1.777440680E+01  2.127203010E+02  2.646136966E+02  6.031565972E-06  0.00000E+00  9.000E+00
#rwgt            2          18   8.8177371106225669E-004           7      322420           0
</event>
<event>
      5   9999  3.19816E-02  1.19015E+02 -1.00000E+00  1.20520E-01
      21    -1     0     0   502   501  0.000000000E+00  0.000000000E+00  6.508738695E+02  6.508738695E+02  0.000000000E+00  0.00000E+00  9.000E+00
       2    -1     0     0   501     0  0.000000000E+00  0.000000000E+00 -1.625607984E+03  1.625607984E+03  0.000000000E+00  0.00000E+00  9.000E+00
      25     1     1     2     0     0 -7.133039101E+01  7.102088600E+02 -6.192633928E+02  9.532034406E+02  1.250000000E+02  0.00000E+00  9.000E+00
      25     1     1     2     0     0 -2.277780817E+01 -6.373508250E+02  2.573621266E+02  6.989958275E+02  1.250000000E+02  0.00000E+00  9.000E+00
       2     1     1     2   502     0  9.410819918E+01 -7.285803495E+01 -6.128328479E+02  6.242825849E+02  7.629394531E-06  0.00000E+00  9.000E+00
#rwgt            2          13   1.2252878489910893E-003           7      322469           0
</event>
<event>
      5   9999  3.19816E-02  3.23220E+01 -1.00000E+00  1.50825E-01
      21    -1     0     0   502   501  0.000000000E+00  0.000000000E+00  4.044924705E+02  4.044924705E+02  0.000000000E+00  0.00000E+00  9.000E+00
       2    -1     0     0   501     0  0.000000000E+00  0.000000000E+00 -9.237966152E+02  9.237966152E+02  0.000000000E+00  0.00000E+00  9.000E+00
      25     1     1     2     0     0 -2.855768601E+02 -6.217842508E+01  9.557035537E+01  3.319322105E+02  1.250000000E+02  0.00000E+00  9.000E+00
      25     1     1     2     0     0  3.163292325E+02  5.222832911E+01  3.480546098E+01  3.458733899E+02  1.250000000E+02  0.00000E+00  9.000E+00
       2     1     1     2   502     0 -3.075237245E+01  9.950095970E+00 -6.496799610E+02  6.504834853E+02  7.629394531E-06  0.00000E+00  9.000E+00
#rwgt            1           1   2.7067093630160004E-002           7      322488           0
</event>
<event>
      5   9999  3.19816E-02  1.93510E+01 -1.00000E+00  1.67560E-01
      21    -1     0     0   502   501  0.000000000E+00  0.000000000E+00  2.328857393E+02  2.328857393E+02  0.000000000E+00  0.00000E+00  9.000E+00
      21    -1     0     0   511   502  0.000000000E+00  0.000000000E+00 -5.341111676E+02  5.341111676E+02  0.000000000E+00  0.00000E+00  9.000E+00
      25     1     1     2     0     0  4.863804540E+01 -8.810909999E+01  1.272993188E+01  1.609842356E+02  1.250000000E+02  0.00000E+00  9.000E+00
      25     1     1     2     0     0 -3.246234992E+01  9.873012509E+01  1.004909715E+02  1.911148270E+02  1.250000000E+02  0.00000E+00  9.000E+00
      21     1     1     2   511   501 -1.617569548E+01 -1.062102510E+01 -4.144463317E+02  4.148978442E+02  5.394796609E-06  0.00000E+00  9.000E+00
#rwgt            1           1   2.5017439375987154E-002           7      322615           0
</event>
<event>
      5   9999  3.19816E-02  1.09804E+02 -1.00000E+00  1.22028E-01
       2    -1     0     0   502     0  0.000000000E+00  0.000000000E+00  4.207317310E+03  4.207317310E+03  0.000000000E+00  0.00000E+00  9.000E+00
      21    -1     0     0   501   502  0.000000000E+00  0.000000000E+00 -8.323565759E+01  8.323565759E+01  0.000000000E+00  0.00000E+00  9.000E+00
      25     1     1     2     0     0  8.444435614E+01 -1.634598906E+02  3.824229472E+03  3.830692631E+03  1.250000000E+02  0.00000E+00  9.000E+00
      25     1     1     2     0     0  2.047225213E+01  1.310638297E+02  5.320467070E+01  1.898751631E+02  1.250000000E+02  0.00000E+00  9.000E+00
       2     1     1     2   501     0 -1.049166083E+02  3.239606086E+01  2.466475103E+02  2.699851733E+02  6.607249480E-06  0.00000E+00  9.000E+00
#rwgt            1           1   1.1634939165213465E-002           7      322788           0
</event>
<event>
      5   9999  3.19816E-02  1.61584E+02 -1.00000E+00  1.15127E-01
      21    -1     0     0   511   501  0.000000000E+00  0.000000000E+00  1.947839264E+02  1.947839264E+02  0.000000000E+00  0.00000E+00  9.000E+00
      21    -1     0     0   501   502  0.000000000E+00  0.000000000E+00 -6.374007653E+02  6.374007653E+02  0.000000000E+00  0.00000E+00  9.000E+00
      25     1     1     2     0     0  1.866976950E+02 -1.734877958E+01 -2.089169504E+02  3.072918834E+02  1.250000000E+02  0.00000E+00  9.000E+00
      25     1     1     2     0     0 -2.204663696E+02  1.753648148E+02 -1.608958065E+02  3.476646357E+02  1.250000000E+02  0.00000E+00  9.000E+00
      21     1     1     2   511   502  3.376867459E+01 -1.580160352E+02 -7.280408204E+01  1.772281725E+02  4.264961200E-06  0.00000E+00  9.000E+00
#rwgt            1           1   2.6631401978847006E-002           7      322862           0
</event>
<event>
      5   9999  3.19816E-02  7.31461E+01 -1.00000E+00  1.30261E-01
       2    -1     0     0   502     0  0.000000000E+00  0.000000000E+00  1.791801969E+03  1.791801969E+03  0.000000000E+00  0.00000E+00  9.000E+00
      21    -1     0     0   501   502  0.000000000E+00  0.000000000E+00 -3.744533080E+01  3.744533080E+01  0.000000000E+00  0.00000E+00  9.000E+00
      25     1     1     2     0     0 -7.818437462E+01 -1.612806081E+02  8.281329833E+02  8.564773605E+02  1.250000000E+02  0.00000E+00  9.000E+00
      25     1     1     2     0     0  5.100958833E+00  1.582527372E+02  4.811881982E+02  5.217633857E+02  1.250000000E+02  0.00000E+00  9.000E+00
       2     1     1     2   501     0  7.308341579E+01  3.027870903E+00  4.450354571E+02  4.510065540E+02  1.078959322E-05  0.00000E+00  9.000E+00
#rwgt            1           1   2.9143112897069414E-002           7      322990           0
</event>
<event>
      5   9999  3.19816E-02  2.48493E+02 -1.00000E+00  1.08320E-01
      21    -1     0     0   502   501  0.000000000E+00  0.000000000E+00  5.026118676E+02  5.026118676E+02  0.000000000E+00  0.00000E+00  9.000E+00
      21    -1     0     0   501   511  0.000000000E+00  0.000000000E+00 -1.500099594E+03  1.500099594E+03  0.000000000E+00  0.00000E+00  9.000E+00
      25     1     1     2     0     0  4.574762879E+02 -2.413766561E+02 -2.089873066E+01  5.325495292E+02  1.250000000E+02  0.00000E+00  9.000E+00
      25     1     1     2     0     0 -2.436236188E+02  3.679309455E+02  3.917922638E+00  4.586567327E+02  1.250000000E+02  0.00000E+00  9.000E+00
      21     1     1     2   502   511 -2.138526690E+02 -1.265542894E+02 -9.805069183E+02  1.011505200E+03  1.078959322E-05  0.00000E+00  9.000E+00
#rwgt            2          11   2.0810526301724887E-003           7      323178           0
</event>
<event>
      5   9999  3.19816E-02  3.39559E+01 -1.00000E+00  1.49395E-01
      21    -1     0     0   502   512  0.000000000E+00  0.000000000E+00  1.461225810E+03  1.461225810E+03  0.000000000E+00  0.00000E+00  9.000E+00
      21    -1     0     0   501   502  0.000000000E+00  0.000000000E+00 -5.040636107E+01  5.040636107E+01  0.000000000E+00  0.00000E+00  9.000E+00
      25     1     1     2     0     0 -7.888416552E+01 -1.965520194E+02  5.533995531E+02  6.055835807E+02  1.250000000E+02  0.00000E+00  9.000E+00
      25     1     1     2     0     0  1.004847112E+02  1.703523580E+02  5.630583579E+02  6.097350388E+02  1.250000000E+02  0.00000E+00  9.000E+00
      21     1     1     2   501   512 -2.160054572E+01  2.619966146E+01  2.943615384E+02  2.963135520E+02  3.814697266E-06  0.00000E+00  9.000E+00
#rwgt            1           1   2.3794344397558325E-002           7      323198           0
</event>
<event>
      5   9999  3.19816E-02  2.72469E+01 -1.00000E+00  1.56001E-01
      -3    -1     0     0     0   501  0.000000000E+00  0.000000000E+00  4.692940956E+02  4.692940956E+02  0.000000000E+00  0.00000E+00  9.000E+00
      21    -1     0     0   501   502  0.000000000E+00  0.000000000E+00 -4.096936150E+02  4.096936150E+02  0.000000000E+00  0.00000E+00  9.000E+00
      25     1     1     2     0     0 -3.581319404E+02 -8.524775342E+01  1.382589008E+02  4.126332389E+02  1.250000000E+02  0.00000E+00  9.000E+00
      25     1     1     2     0     0  3.837730030E+02  9.446337025E+01 -1.058873273E+02  4.278342813E+02  1.250000000E+02  0.00000E+00  9.000E+00
      -3     1     1     2     0   502 -2.564106259E+01 -9.215616830E+00  2.722890718E+01  3.852019043E+01  3.371747881E-07  0.00000E+00  9.000E+00
#rwgt            1           1   2.6596232076449077E-002           7      323335           0
</event>
<event>
      5   9999  3.19816E-02  2.66341E+01 -1.00000E+00  1.56718E-01
      21    -1     0     0   502   501  0.000000000E+00  0.000000000E+00  6.269047541E+02  6.269047541E+02  0.000000000E+00  0.00000E+00  9.000E+00
      21    -1     0     0   511   502  0.000000000E+00  0.000000000E+00 -6.566638309E+02  6.566638309E+02  0.000000000E+00  0.00000E+00  9.000E+00
      25     1     1     2     0     0 -2.262844495E+02  4.101510066E+01 -5.761283884E+02  6.327999767E+02  1.250000000E+02  0.00000E+00  9.000E+00
      25     1     1     2     0     0  2.132362170E+02 -6.423400834E+01  5.637960219E+02  6.189399376E+02  1.250000000E+02  0.00000E+00  9.000E+00
      21     1     1     2   511   501  1.304823253E+01  2.321890767E+01 -1.742671024E+01  3.182867065E+01  3.371747881E-07  0.00000E+00  9.000E+00
#rwgt            1           1   2.9470337792420351E-002           7      323462           0
</event>
<event>
      5   9999  3.19816E-02  8.71267E+01 -1.00000E+00  1.26581E-01
       1    -1     0     0   502     0  0.000000000E+00  0.000000000E+00  7.851261566E+02  7.851261566E+02  0.000000000E+00  0.00000E+00  9.000E+00
      21    -1     0     0   501   502  0.000000000E+00  0.000000000E+00 -2.115891267E+02  2.115891267E+02  0.000000000E+00  0.00000E+00  9.000E+00
      25     1     1     2     0     0 -2.712708520E+02 -2.528825291E+02  1.626955594E+02  4.238305012E+02  1.250000000E+02  0.00000E+00  9.000E+00
      25     1     1     2     0     0  2.164397275E+02  1.851728239E+02  3.029991431E+02  4.342448746E+02  1.250000000E+02  0.00000E+00  9.000E+00
       1     1     1     2   501     0  5.483112454E+01  6.770970522E+01  1.078423273E+02  1.386399076E+02  2.697398305E-06  0.00000E+00  9.000E+00
#rwgt            1           1   2.7060490069437771E-002           7      323618           0
</event>
<event>
      5   9999  3.19816E-02  1.45120E+01 -1.00000E+00  1.78748E-01
      21    -1     0     0   502   501  0.000000000E+00  0.000000000E+00  8.060621618E+02  8.060621618E+02  0.000000000E+00  0.00000E+00  9.000E+00
      21    -1     0     0   511   502  0.000000000E+00  0.000000000E+00 -1.696664466E+02  1.696664466E+02  0.000000000E+00  0.00000E+00  9.000E+00
      25     1     1     2     0     0  1.394823345E+02  2.489088137E+02  2.227784197E+02  3.829701600E+02  1.250000000E+02  0.00000E+00  9.000E+00
      25     1     1     2     0     0 -1.252947106E+02 -2.519599611E+02  4.547245476E+02  5.491648210E+02  1.250000000E+02  0.00000E+00  9.000E+00
      21     1     1     2   511   501 -1.418762390E+01  3.051147378E+00 -4.110725213E+01  4.359362740E+01  1.430511475E-06  0.00000E+00  9.000E+00
#rwgt            1           1   3.1716193994385175E-002           7      323700           0
</event>
<event>
      5   9999  3.19816E-02  3.39116E+02 -1.00000E+00  1.03891E-01
      21    -1     0     0   502   501  0.000000000E+00  0.000000000E+00  1.369194797E+02  1.369194797E+02  0.000000000E+00  0.00000E+00  9.000E+00
       2    -1     0     0   501     0  0.000000000E+00  0.000000000E+00 -1.406991604E+03  1.406991604E+03  0.000000000E+00  0.00000E+00  9.000E+00
      25     1     1     2     0     0 -1.698614438E+02  3.341067138E+01 -2.560497086E+02  3.334001145E+02  1.250000000E+02  0.00000E+00  9.000E+00
      25     1     1     2     0     0 -1.035795474E+02 -2.339847742E+02 -2.681267297E+02  3.911451653E+02  1.250000000E+02  0.00000E+00  9.000E+00
       2     1     1     2   502     0  2.734409911E+02  2.005741028E+02 -7.458956864E+02  8.193658043E+02  1.078959322E-05  0.00000E+00  9.000E+00
#rwgt            1           1   3.3476688630884308E-002           7      323915           0
</event>
<event>
      5   9999  3.19816E-02  3.35193E+02 -1.00000E+00  1.04050E-01
      21    -1     0     0   511   501  0.000000000E+00  0.000000000E+00  5.117038135E+02  5.117038135E+02  0.000000000E+00  0.00000E+00  9.000E+00
      21    -1     0     0   501   502  0.000000000E+00  0.000000000E+00 -1.135839350E+03  1.135839350E+03  0.000000000E+00  0.00000E+00  9.000E+00
      25     1     1     2     0     0  5.877254423E+02 -3.822424404E+02 -4.267316064E+02  8.302140343E+02  1.250000000E+02  0.00000E+00  9.000E+00
      25     1     1     2     0     0 -2.534505891E+02  3.574486465E+02 -1.442082641E+02  4.779411674E+02  1.250000000E+02  0.00000E+00  9.000E+00
      21     1     1     2   511   502 -3.342748532E+02  2.479379386E+01 -5.319566588E+01  3.393879617E+02  5.436780096E-06  0.00000E+00  9.000E+00
#rwgt            2          11   3.6627119928153169E-003           7      323963           0
</event>
<event>
      5   9999  3.19816E-02  8.84286E+01 -1.00000E+00  1.26279E-01
      21    -1     0     0   502   501  0.000000000E+00  0.000000000E+00  8.594369930E+02  8.594369930E+02  0.000000000E+00  0.00000E+00  9.000E+00
      21    -1     0     0   512   502  0.000000000E+00  0.000000000E+00 -1.615181005E+03  1.615181005E+03  0.000000000E+00  0.00000E+00  9.000E+00
      25     1     1     2     0     0  5.121836559E+02  6.627990090E+02 -3.544519400E+02  9.180935690E+02  1.250000000E+02  0.00000E+00  9.000E+00
      25     1     1     2     0     0 -5.853515524E+02 -6.131394158E+02  2.552406056E+02  8.940632806E+02  1.250000000E+02  0.00000E+00  9.000E+00
      21     1     1     2   512   501  7.316789643E+01 -4.965959320E+01 -6.565326776E+02  6.624611483E+02  7.629394531E-06  0.00000E+00  9.000E+00
#rwgt            1           1   3.1838290957726827E-002           7      323983           0
</event>
<event>
      5   9999  3.19816E-02  9.66480E+01 -1.00000E+00  1.24498E-01
      21    -1     0     0   502   501  0.000000000E+00  0.000000000E+00  1.577922197E+03  1.577922197E+03  0.000000000E+00  0.00000E+00  9.000E+00
       1    -1     0     0   501     0  0.000000000E+00  0.000000000E+00 -2.512813904E+03  2.512813904E+03  0.000000000E+00  0.00000E+00  9.000E+00
      25     1     1     2     0     0  9.023378830E+00 -8.188052049E+02  4.286139225E+02  9.326619321E+02  1.250000000E+02  0.00000E+00  9.000E+00
      25     1     1     2     0     0  8.698281562E+01  8.076857565E+02  7.077007733E+02  1.084614068E+03  1.250000000E+02  0.00000E+00  9.000E+00
       1     1     1     2   502     0 -9.600619445E+01  1.111944840E+01 -2.071206403E+03  2.073460102E+03  0.000000000E+00  0.00000E+00  9.000E+00
#rwgt            1           1   3.0120696858615834E-002           7      324110           0
</event>
<event>
      5   9999  3.19816E-02  5.17426E+01 -1.00000E+00  1.38232E-01
      21    -1     0     0   502   511  0.000000000E+00  0.000000000E+00  4.950039047E+02  4.950039047E+02  0.000000000E+00  0.00000E+00  9.000E+00
      21    -1     0     0   501   502  0.000000000E+00  0.000000000E+00 -8.376399253E+02  8.376399253E+02  0.000000000E+00  0.00000E+00  9.000E+00
      25     1     1     2     0     0 -3.340960712E+02  1.244032930E+02  3.380733007E+02  5.069663902E+02  1.250000000E+02  0.00000E+00  9.000E+00
      25     1     1     2     0     0  2.838261000E+02 -1.366601247E+02 -6.939343743E+02  7.722714294E+02  1.250000000E+02  0.00000E+00  9.000E+00
      21     1     1     2   501   511  5.026997121E+01  1.225683168E+01  1.322505303E+01  5.340601049E+01  1.348699152E-06  0.00000E+00  9.000E+00
#rwgt            1           1   2.8997837595741385E-002           7      324266           0
</event>
<event>
      5   9999  3.19816E-02  2.45448E+01 -1.00000E+00  1.59351E-01
      21    -1     0     0   512   501  0.000000000E+00  0.000000000E+00  1.498326477E+03  1.498326477E+03  0.000000000E+00  0.00000E+00  9.000E+00
      21    -1     0     0   501   502  0.000000000E+00  0.000000000E+00 -4.243072959E+02  4.243072959E+02  0.000000000E+00  0.00000E+00  9.000E+00
      25     1     1     2     0     0  3.127203996E+02 -4.606766584E+02  6.318497448E+02  8.513965774E+02  1.250000000E+02  0.00000E+00  9.000E+00
      25     1     1     2     0     0 -3.283440655E+02  4.417465899E+02 -6.078155031E+01  5.676876535E+02  1.250000000E+02  0.00000E+00  9.000E+00
      21     1     1     2   512   502  1.562366598E+01  1.893006850E+01  5.029509868E+02  5.035495423E+02  5.394796609E-06  0.00000E+00  9.000E+00
#rwgt            1           1   2.5576311672668446E-002           7      324396           0
</event>
<event>
      5   9999  3.19816E-02  1.22137E+02 -1.00000E+00  1.20044E-01
      21    -1     0     0   502   501  0.000000000E+00  0.000000000E+00  5.590054504E+02  5.590054504E+02  0.000000000E+00  0.00000E+00  9.000E+00
      21    -1     0     0   501   511  0.000000000E+00  0.000000000E+00 -2.216678093E+02  2.216678093E+02  0.000000000E+00  0.00000E+00  9.000E+00
      25     1     1     2     0     0  1.805909158E+02 -6.500330863E+01  4.337368604E+02  4.905009410E+02  1.250000000E+02  0.00000E+00  9.000E+00
      25     1     1     2     0     0 -7.994175002E+01 -4.187108091E+00 -7.451610387E+01  1.660899305E+02  1.250000000E+02  0.00000E+00  9.000E+00
      21     1     1     2   502   511 -1.006491658E+02  6.919041672E+01 -2.188311539E+01  1.240823883E+02  1.066240300E-06  0.00000E+00  9.000E+00
#rwgt            1           1   2.5705569996136358E-002           7      324601           0
</event>
<event>
      5   9999  3.19816E-02  1.57702E+02 -1.00000E+00  1.15538E-01
      -2    -1     0     0     0   501  0.000000000E+00  0.000000000E+00  9.358298056E+02  9.358298056E+02  0.000000000E+00  0.00000E+00  9.000E+00
      21    -1     0     0   501   502  0.000000000E+00  0.000000000E+00 -5.507234458E+02  5.507234458E+02  0.000000000E+00  0.00000E+00  9.000E+00
      25     1     1     2     0     0  2.049116982E+01  2.233072211E+01  1.455745005E+02  1.942562338E+02  1.250000000E+02  0.00000E+00  9.000E+00
      25     1     1     2     0     0 -2.539046301E+01  1.352950587E+02 -5.014003118E+02  5.347678947E+02  1.250000000E+02  0.00000E+00  9.000E+00
      -2     1     1     2     0   502  4.899293193E+00 -1.576257808E+02  7.409321711E+02  7.575291228E+02  1.078959322E-05  0.00000E+00  9.000E+00
#rwgt            1           1   2.7865510348640297E-002           7      324696           0
</event>
<event>
      5   9999  3.19816E-02  6.77580E+01 -1.00000E+00  1.31941E-01
      21    -1     0     0   502   501  0.000000000E+00  0.000000000E+00  6.163729937E+01  6.163729937E+01  0.000000000E+00  0.00000E+00  9.000E+00
       2    -1     0     0   501     0  0.000000000E+00  0.000000000E+00 -3.178465703E+03  3.178465703E+03  0.000000000E+00  0.00000E+00  9.000E+00
      25     1     1     2     0     0  1.920150341E+02  1.725685765E+02 -3.995396061E+02  4.918399981E+02  1.250000000E+02  0.00000E+00  9.000E+00
      25     1     1     2     0     0 -1.333370474E+02 -2.064513766E+02 -1.279200742E+03  1.308579565E+03  1.250000000E+02  0.00000E+00  9.000E+00
       2     1     1     2   502     0 -5.867798678E+01  3.388280005E+01 -1.438088056E+03  1.439683439E+03  2.157918644E-05  0.00000E+00  9.000E+00
#rwgt            1           1   3.3598954186422975E-002           7      324772           0
</event>
<event>
      5   9999  3.19816E-02  2.70539E+02 -1.00000E+00  1.07071E-01
      21    -1     0     0   502   501  0.000000000E+00  0.000000000E+00  4.159792466E+02  4.159792466E+02  0.000000000E+00  0.00000E+00  9.000E+00
       1    -1     0     0   501     0  0.000000000E+00  0.000000000E+00 -1.239687386E+03  1.239687386E+03  0.000000000E+00  0.00000E+00  9.000E+00
      25     1     1     2     0     0 -2.434123376E+02  2.777684109E+02 -7.266204228E+00  3.899777608E+02  1.250000000E+02  0.00000E+00  9.000E+00
      25     1     1     2     0     0  5.135252741E+02 -2.625848544E+02 -2.558472260E+02  6.432276548E+02  1.250000000E+02  0.00000E+00  9.000E+00
       1     1     1     2   502     0 -2.701129365E+02 -1.518355647E+01 -5.605947090E+02  6.224612170E+02  7.629394531E-06  0.00000E+00  9.000E+00
#rwgt            2          12   4.8743610257393535E-004           7      324908           0
</event>
<event>
      5   9999  3.19816E-02  1.84166E+02 -1.00000E+00  1.12968E-01
      21    -1     0     0   502   501  0.000000000E+00  0.000000000E+00  1.343801549E+03  1.343801549E+03  0.000000000E+00  0.00000E+00  9.000E+00
      21    -1     0     0   501   511  0.000000000E+00  0.000000000E+00 -4.120271393E+02  4.120271393E+02  0.000000000E+00  0.00000E+00  9.000E+00
      25     1     1     2     0     0  3.162432809E+01 -3.247007994E+02  9.357342315E+00  3.494900100E+02  1.250000000E+02  0.00000E+00  9.000E+00
      25     1     1     2     0     0 -1.672737455E+02  4.492652889E+02  1.064232716E+03  1.173897815E+03  1.250000000E+02  0.00000E+00  9.000E+00
      21     1     1     2   502   511  1.356494175E+02 -1.245644895E+02 -1.418156491E+02  2.324408630E+02  0.000000000E+00  0.00000E+00  9.000E+00
#rwgt            1           1   1.2509455931869418E-002           7      324927           0
</event>
<event>
      5   9999  3.19816E-02  6.43389E+01 -1.00000E+00  1.33103E-01
      21    -1     0     0   502   512  0.000000000E+00  0.000000000E+00  2.047788502E+03  2.047788502E+03  0.000000000E+00  0.00000E+00  9.000E+00
      21    -1     0     0   501   502  0.000000000E+00  0.000000000E+00 -2.962363468E+02  2.962363468E+02  0.000000000E+00  0.00000E+00  9.000E+00
      25     1     1     2     0     0  2.330931166E+01 -9.209156292E+01  1.857145952E+03  1.863770444E+03  1.250000000E+02  0.00000E+00  9.000E+00
      25     1     1     2     0     0 -4.107661919E+01  1.539286291E+02 -2.502601101E+02  3.219261316E+02  1.250000000E+02  0.00000E+00  9.000E+00
      21     1     1     2   501   512  1.776730753E+01 -6.183706617E+01  1.446663127E+02  1.583282729E+02  1.907348633E-06  0.00000E+00  9.000E+00
#rwgt            1           1   2.9653083185874403E-002           7      325008           0
</event>
<event>
      5   9999  3.19816E-02  5.99783E+01 -1.00000E+00  1.34712E-01
      21    -1     0     0   511   501  0.000000000E+00  0.000000000E+00  8.264974125E+02  8.264974125E+02  0.000000000E+00  0.00000E+00  9.000E+00
      21    -1     0     0   501   502  0.000000000E+00  0.000000000E+00 -1.562189500E+02  1.562189500E+02  0.000000000E+00  0.00000E+00  9.000E+00
      25     1     1     2     0     0 -3.680441205E+01  2.185499341E+02  3.754976864E+02  4.535880851E+02  1.250000000E+02  0.00000E+00  9.000E+00
      25     1     1     2     0     0  2.762852333E+01 -1.592776566E+02 -2.309090984E+01  2.056475074E+02  1.250000000E+02  0.00000E+00  9.000E+00
      21     1     1     2   511   502  9.175888712E+00 -5.927227747E+01  3.178716859E+02  3.234807700E+02  3.814697266E-06  0.00000E+00  9.000E+00
#rwgt            1           1   3.0482765346484725E-002           7      325150           0
</event>
<event>
      5   9999  3.19816E-02  1.12152E+02 -1.00000E+00  1.21628E-01
      21    -1     0     0   502   501  0.000000000E+00  0.000000000E+00  4.951349824E+02  4.951349824E+02  0.000000000E+00  0.00000E+00  9.000E+00
      21    -1     0     0   512   502  0.000000000E+00  0.000000000E+00 -1.421579414E+03  1.421579414E+03  0.000000000E+00  0.00000E+00  9.000E+00
      25     1     1     2     0     0 -1.244566125E+02  6.003574070E+02  1.453906247E+01  6.259032264E+02  1.250000000E+02  0.00000E+00  9.000E+00
      25     1     1     2     0     0  2.360348731E+02 -5.890277780E+02 -4.517908781E+02  7.889272350E+02  1.250000000E+02  0.00000E+00  9.000E+00
      21     1     1     2   512   501 -1.115782606E+02 -1.132962892E+01 -4.891926162E+02  5.018839352E+02  0.000000000E+00  0.00000E+00  9.000E+00
#rwgt            1           1   2.2424036606916636E-002           7      325264           0
</event>
<event>
      5   9999  3.19816E-02  1.07373E+02 -1.00000E+00  1.22454E-01
      21    -1     0     0   502   501  0.000000000E+00  0.000000000E+00  2.548494824E+03  2.548494824E+03  0.000000000E+00  0.00000E+00  9.000E+00
      21    -1     0     0   511   502  0.000000000E+00  0.000000000E+00 -7.001323767E+02  7.001323767E+02  0.000000000E+00  0.00000E+00  9.000E+00
      25     1     1     2     0     0 -1.383292740E+02  1.203424178E+03  1.346241788E+03  1.815311734E+03  1.250000000E+02  0.00000E+00  9.000E+00
      25     1     1     2     0     0  2.457020346E+02 -1.203693365E+03  4.542830704E+02  1.315767956E+03  1.250000000E+02  0.00000E+00  9.000E+00
      21     1     1     2   511   501 -1.073727607E+02  2.691869370E-01  4.783758895E+01  1.175475100E+02  2.336015456E-06  0.00000E+00  9.000E+00
#rwgt            1           1   3.7774356549244680E-002           7      325360           0
</event>
<event>
      5   9999  3.19816E-02  5.64720E+02 -1.00000E+00  9.73731E-02
      21    -1     0     0   502   501  0.000000000E+00  0.000000000E+00  5.811905364E+02  5.811905364E+02  0.000000000E+00  0.00000E+00  9.000E+00
      21    -1     0     0   501   512  0.000000000E+00  0.000000000E+00 -3.298307926E+03  3.298307926E+03  0.000000000E+00  0.00000E+00  9.000E+00
      25     1     1     2     0     0  3.757330951E+02  5.769961579E+02 -6.273923269E+02  9.398649142E+02  1.250000000E+02  0.00000E+00  9.000E+00
      25     1     1     2     0     0 -5.907963778E+02 -1.099161318E+03 -6.925244278E+02  1.432623832E+03  1.250000000E+02  0.00000E+00  9.000E+00
      21     1     1     2   502   512  2.150632827E+02  5.221651596E+02 -1.397200635E+03  1.507009716E+03  2.157918644E-05  0.00000E+00  9.000E+00
#rwgt            2          11   5.3672355211464471E-004           7      325622           0
</event>
<event>
      5   9999  3.19816E-02  7.12268E+01 -1.00000E+00  1.30840E-01
      21    -1     0     0   511   501  0.000000000E+00  0.000000000E+00  4.334032291E+02  4.334032291E+02  0.000000000E+00  0.00000E+00  9.000E+00
      21    -1     0     0   501   502  0.000000000E+00  0.000000000E+00 -4.247595514E+02  4.247595514E+02  0.000000000E+00  0.00000E+00  9.000E+00
      25     1     1     2     0     0 -8.626079957E+01  1.468018011E+02 -2.767019131E+02  3.481101020E+02  1.250000000E+02  0.00000E+00  9.000E+00
      25     1     1     2     0     0  1.759483959E+01 -1.657290211E+02 -7.704600280E+00  2.084707358E+02  1.250000000E+02  0.00000E+00  9.000E+00
      21     1     1     2   511   502  6.866595998E+01  1.892721997E+01  2.930501911E+02  3.015819428E+02  3.814697266E-06  0.00000E+00  9.000E+00
#rwgt            1           1   2.9599033008595635E-002           7      325672           0
</event>
<event>
      5   9999  3.19816E-02  2.65373E+01 -1.00000E+00  1.56834E-01
      21    -1     0     0   502   501  0.000000000E+00  0.000000000E+00  1.289185684E+01  1.289185684E+01  0.000000000E+00  0.00000E+00  9.000E+00
      21    -1     0     0   501   512  0.000000000E+00  0.000000000E+00 -3.415128843E+03  3.415128843E+03  0.000000000E+00  0.00000E+00  9.000E+00
      25     1     1     2     0     0 -1.129053286E+02 -7.270414788E+01 -1.169910970E+03  1.184208675E+03  1.250000000E+02  0.00000E+00  9.000E+00
      25     1     1     2     0     0  1.389592886E+02  6.766257999E+01 -1.876917897E+03  1.887414555E+03  1.250000000E+02  0.00000E+00  9.000E+00
      21     1     1     2   502   512 -2.605395998E+01  5.041567889E+00 -3.554081184E+02  3.563974703E+02  0.000000000E+00  0.00000E+00  9.000E+00
#rwgt            1           1   2.1908685369762530E-002           7      325736           0
</event>
<event>
      5   9999  3.19816E-02  8.28095E+00 -1.00000E+00  2.05730E-01
      21    -1     0     0   502   511  0.000000000E+00  0.000000000E+00  3.635114102E+02  3.635114102E+02  0.000000000E+00  0.00000E+00  9.000E+00
      21    -1     0     0   501   502  0.000000000E+00  0.000000000E+00 -2.697433517E+02  2.697433517E+02  0.000000000E+00  0.00000E+00  9.000E+00
      25     1     1     2     0     0 -1.063480896E+02  2.743979754E+01 -9.768431161E+01  1.929509870E+02  1.250000000E+02  0.00000E+00  9.000E+00
      25     1     1     2     0     0  1.134186586E+02 -2.312920099E+01 -6.601249032E+01  1.827057770E+02  1.250000000E+02  0.00000E+00  9.000E+00
      21     1     1     2   501   511 -7.070569029E+00 -4.310596551E+00  2.574648604E+02  2.575979979E+02  0.000000000E+00  0.00000E+00  9.000E+00
#rwgt            1           1   2.9980637793681240E-002           7      325900           0
</event>
<event>
      5   9999  3.19816E-02  4.67108E+01 -1.00000E+00  1.40783E-01
      21    -1     0     0   502   501  0.000000000E+00  0.000000000E+00  5.933722051E+02  5.933722051E+02  0.000000000E+00  0.00000E+00  9.000E+00
      21    -1     0     0   501   512  0.000000000E+00  0.000000000E+00 -8.433204093E+02  8.433204093E+02  0.000000000E+00  0.00000E+00  9.000E+00
      25     1     1     2     0     0  2.180933589E+02  6.345974852E+02 -1.095792569E+02  6.913112866E+02  1.250000000E+02  0.00000E+00  9.000E+00
      25     1     1     2     0     0 -1.743174421E+02 -6.508938430E+02 -1.306588880E+02  6.976719218E+02  1.250000000E+02  0.00000E+00  9.000E+00
      21     1     1     2   502   512 -4.377591675E+01  1.629635785E+01 -9.710059388E+00  4.770940599E+01  5.057621821E-07  0.00000E+00  9.000E+00
#rwgt            1           1   2.9255658491168596E-002           7      326063           0
</event>
<event>
      5   9999  3.19816E-02  9.64684E+01 -1.00000E+00  1.24534E-01
      21    -1     0     0   511   501  0.000000000E+00  0.000000000E+00  1.224862824E+03  1.224862824E+03  0.000000000E+00  0.00000E+00  9.000E+00
      21    -1     0     0   501   502  0.000000000E+00  0.000000000E+00 -1.309212279E+02  1.309212279E+02  0.000000000E+00  0.00000E+00  9.000E+00
      25     1     1     2     0     0  7.700352970E+01  1.002041254E+02  9.321655302E+02  9.489615304E+02  1.250000000E+02  0.00000E+00  9.000E+00
      25     1     1     2     0     0 -1.531939123E+02 -4.103339851E+01 -1.806693527E+01  2.027400521E+02  1.250000000E+02  0.00000E+00  9.000E+00
      21     1     1     2   511   502  7.619038259E+01 -5.917072693E+01  1.798430011E+02  2.040824695E+02  3.303624740E-06  0.00000E+00  9.000E+00
#rwgt            1           1   2.7653396887066990E-002           7      326187           0
</event>
<event>
      5   9999  3.19816E-02  3.06569E+02 -1.00000E+00  1.05287E-01
      21    -1     0     0   502   512  0.000000000E+00  0.000000000E+00  3.648157281E+02  3.648157281E+02  0.000000000E+00  0.00000E+00  9.000E+00
      21    -1     0     0   501   502  0.000000000E+00  0.000000000E+00 -9.418344723E+02  9.418344723E+02  0.000000000E+00  0.00000E+00  9.000E+00
      25     1     1     2     0     0 -2.246852794E+02  2.019062864E+02 -2.936007000E+02  4.394041355E+02  1.250000000E+02  0.00000E+00  9.000E+00
      25     1     1     2     0     0  4.754970146E+02 -2.561598281E+01 -2.674172516E+02  5.602593828E+02  1.250000000E+02  0.00000E+00  9.000E+00
      21     1     1     2   501   512 -2.508117352E+02 -1.762903036E+02 -1.600079262E+01  3.069866822E+02  2.949074954E-06  0.00000E+00  9.000E+00
#rwgt            1           1   3.1799231482111376E-002           7      326272           0
</event>
<event>
      5   9999  3.19816E-02  1.22646E+02 -1.00000E+00  1.19968E-01
      21    -1     0     0   502   501  0.000000000E+00  0.000000000E+00  4.770015415E+02  4.770015415E+02  0.000000000E+00  0.00000E+00  9.000E+00
      21    -1     0     0   511   502  0.000000000E+00  0.000000000E+00 -2.128042295E+02  2.128042295E+02  0.000000000E+00  0.00000E+00  9.000E+00
      25     1     1     2     0     0  1.630598796E+02 -4.926183038E+01  2.045187984E+02  2.940547418E+02  1.250000000E+02  0.00000E+00  9.000E+00
      25     1     1     2     0     0 -1.618586270E+02  1.719014632E+02  2.515732233E+01  2.683397456E+02  1.250000000E+02  0.00000E+00  9.000E+00
      21     1     1     2   511   501 -1.201252601E+00 -1.226396329E+02  3.452119124E+01  1.274112836E+02  2.567846683E-06  0.00000E+00  9.000E+00
#rwgt            2          11   3.4542037657277220E-003           7      326372           0
</event>
<event>
      5   9999  3.19816E-02  2.46398E+01 -1.00000E+00  1.59224E-01
      21    -1     0     0   502   512  0.000000000E+00  0.000000000E+00  2.222158494E+03  2.222158494E+03  0.000000000E+00  0.00000E+00  9.000E+00
      21    -1     0     0   501   502  0.000000000E+00  0.000000000E+00 -3.721533878E+02  3.721533878E+02  0.000000000E+00  0.00000E+00  9.000E+00
      25     1     1     2     0     0 -3.836865209E+02  7.338000348E+02  1.398476868E+03  1.630043063E+03  1.250000000E+02  0.00000E+00  9.000E+00
      25     1     1     2     0     0  3.907184248E+02 -7.101849614E+02  4.123251770E+02  9.179654778E+02  1.250000000E+02  0.00000E+00  9.000E+00
      21     1     1     2   501   512 -7.031903914E+00 -2.361507343E+01  3.920306163E+01  4.630334120E+01  0.000000000E+00  0.00000E+00  9.000E+00
#rwgt            1           1   2.7124467702151021E-002           7      326407           0
</event>
<event>
      5   9999  3.19816E-02  5.81477E+01 -1.00000E+00  1.35435E-01
      21    -1     0     0   502   501  0.000000000E+00  0.000000000E+00  1.990601243E+02  1.990601243E+02  0.000000000E+00  0.00000E+00  9.000E+00
      21    -1     0     0   501   511  0.000000000E+00  0.000000000E+00 -3.200727398E+02  3.200727398E+02  0.000000000E+00  0.00000E+00  9.000E+00
      25     1     1     2     0     0 -1.550345313E+02 -1.134781919E+02 -1.456943592E+01  2.296742789E+02  1.250000000E+02  0.00000E+00  9.000E+00
      25     1     1     2     0     0  1.006065321E+02  1.339414775E+02 -6.819015693E+01  2.198565241E+02  1.250000000E+02  0.00000E+00  9.000E+00
      21     1     1     2   502   511  5.442799920E+01 -2.046328568E+01 -3.825302262E+01  6.960206101E+01  6.743495762E-07  0.00000E+00  9.000E+00
#rwgt            1           1   2.5329303756068514E-002           7      326659           0
</event>
<event>
      5   9999  3.19816E-02  3.30346E+01 -1.00000E+00  1.50189E-01
      21    -1     0     0   502   501  0.000000000E+00  0.000000000E+00  2.566861085E+02  2.566861085E+02  0.000000000E+00  0.00000E+00  9.000E+00
      21    -1     0     0   501   512  0.000000000E+00  0.000000000E+00 -9.820393724E+02  9.820393724E+02  0.000000000E+00  0.00000E+00  9.000E+00
      25     1     1     2     0     0  5.147188772E+00  1.482322687E+02 -6.703948124E+02  6.978921862E+02  1.250000000E+02  0.00000E+00  9.000E+00
      25     1     1     2     0     0 -2.062434944E+01 -1.774168635E+02  1.927101343E+02  2.909713098E+02  1.250000000E+02  0.00000E+00  9.000E+00
      21     1     1     2   502   512  1.547716067E+01  2.918459480E+01 -2.476685858E+02  2.498619848E+02  0.000000000E+00  0.00000E+00  9.000E+00
#rwgt            1           1   2.5310678642124551E-002           7      326754           0
</event>
<event>
      5   9999  3.19816E-02  1.23752E+02 -1.00000E+00  1.19803E-01
      21    -1     0     0   502   501  0.000000000E+00  0.000000000E+00  2.332156627E+03  2.332156627E+03  0.000000000E+00  0.00000E+00  9.000E+00
      21    -1     0     0   501   511  0.000000000E+00  0.000000000E+00 -2.899869509E+03  2.899869509E+03  0.000000000E+00  0.00000E+00  9.000E+00
      25     1     1     2     0     0  1.479485017E+02 -7.744235234E+02 -9.149420441E+02  1.214234119E+03  1.250000000E+02  0.00000E+00  9.000E+00
      25     1     1     2     0     0 -2.097248458E+02  8.816532606E+02  2.084345688E+03  2.276273035E+03  1.250000000E+02  0.00000E+00  9.000E+00
      21     1     1     2   502   511  6.177634411E+01 -1.072297371E+02 -1.737116527E+03  1.741518981E+03  0.000000000E+00  0.00000E+00  9.000E+00
#rwgt            1           1   1.9029808359755346E-002           7      326854           0
</event>
<event>
      5   9999  3.19816E-02  4.55664E+01 -1.00000E+00  1.41416E-01
      21    -1     0     0   502   501  0.000000000E+00  0.000000000E+00  3.844126063E+02  3.844126063E+02  0.000000000E+00  0.00000E+00  9.000E+00
      21    -1     0     0   501   512  0.000000000E+00  0.000000000E+00 -1.566247605E+03  1.566247605E+03  0.000000000E+00  0.00000E+00  9.000E+00
      25     1     1     2     0     0 -3.004260856E+02 -6.142275592E+02 -2.000167064E+02  7.233000831E+02  1.250000000E+02  0.00000E+00  9.000E+00
      25     1     1     2     0     0  3.373708823E+02  5.875559506E+02 -8.966987923E+02  1.130811581E+03  1.250000000E+02  0.00000E+00  9.000E+00
      21     1     1     2   502   512 -3.694479669E+01  2.667160862E+01 -8.511949969E+01  9.654854705E+01  0.000000000E+00  0.00000E+00  9.000E+00
#rwgt            1           1   3.3907287800959175E-002           7      326940           0
</event>
<event>
      5   9999  3.19816E-02  1.43752E+02 -1.00000E+00  1.17131E-01
      21    -1     0     0   511   501  0.000000000E+00  0.000000000E+00  1.990753063E+02  1.990753063E+02  0.000000000E+00  0.00000E+00  9.000E+00
      21    -1     0     0   501   502  0.000000000E+00  0.000000000E+00 -1.959269384E+03  1.959269384E+03  0.000000000E+00  0.00000E+00  9.000E+00
      25     1     1     2     0     0  3.108684770E+02  1.517421213E+02 -4.301238354E+02  5.659473431E+02  1.250000000E+02  0.00000E+00  9.000E+00
      25     1     1     2     0     0 -3.408315509E+02 -1.114707222E+01 -1.389988723E+03  1.436657250E+03  1.250000000E+02  0.00000E+00  9.000E+00
      21     1     1     2   511   502  2.996307388E+01 -1.405950491E+02  5.991848061E+01  1.557400974E+02  2.132480600E-06  0.00000E+00  9.000E+00
#rwgt            2          11   4.8061987965936342E-003           7      327121           0
</event>
<event>
      5   9999  3.19816E-02  1.53106E+02 -1.00000E+00  1.16042E-01
       1    -1     0     0   502     0  0.000000000E+00  0.000000000E+00  4.725748414E+03  4.725748414E+03  0.000000000E+00  0.00000E+00  9.000E+00
      21    -1     0     0   501   502  0.000000000E+00  0.000000000E+00 -3.920361904E+01  3.920361904E+01  0.000000000E+00  0.00000E+00  9.000E+00
      25     1     1     2     0     0  2.312645519E+02  1.568248022E+02  1.922072018E+03  1.946294725E+03  1.250000000E+02  0.00000E+00  9.000E+00
      25     1     1     2     0     0 -1.086934125E+02 -2.485738889E+02  9.078017854E+02  9.556842145E+02  1.250000000E+02  0.00000E+00  9.000E+00
       1     1     1     2   501     0 -1.225711394E+02  9.174908664E+01  1.856670991E+03  1.862973094E+03  2.157918644E-05  0.00000E+00  9.000E+00
#rwgt            2          17   1.1743917676071255E-004           7      327156           0
</event>
<event>
      5   9999  3.19816E-02  8.90234E+01 -1.00000E+00  1.26142E-01
      21    -1     0     0   511   501  0.000000000E+00  0.000000000E+00  2.149059243E+03  2.149059243E+03  0.000000000E+00  0.00000E+00  9.000E+00
      21    -1     0     0   501   502  0.000000000E+00  0.000000000E+00 -2.901834760E+02  2.901834760E+02  0.000000000E+00  0.00000E+00  9.000E+00
      25     1     1     2     0     0  1.634965898E+02  6.147635612E+02  3.909156472E+02  7.570372608E+02  1.250000000E+02  0.00000E+00  9.000E+00
      25     1     1     2     0     0 -2.125510032E+02 -6.890524471E+02  1.328828647E+03  1.517030579E+03  1.250000000E+02  0.00000E+00  9.000E+00
      21     1     1     2   511   502  4.905441342E+01  7.428888590E+01  1.391314728E+02  1.651748794E+02  1.907348633E-06  0.00000E+00  9.000E+00
#rwgt            1           1   3.0013982404081416E-002           7      327220           0
</event>
<event>
      5   9999  3.19816E-02  3.19713E+01 -1.00000E+00  1.51145E-01
      21    -1     0     0   502   501  0.000000000E+00  0.000000000E+00  7.626111071E+01  7.626111071E+01  0.000000000E+00  0.00000E+00  9.000E+00
      21    -1     0     0   501   512  0.000000000E+00  0.000000000E+00 -2.723467415E+03  2.723467415E+03  0.000000000E+00  0.00000E+00  9.000E+00
      25     1     1     2     0     0 -2.031060121E+01 -9.157578409E+01 -6.600797859E+02  6.783280685E+02  1.250000000E+02  0.00000E+00  9.000E+00
      25     1     1     2     0     0  5.202128345E+01  9.565003876E+01 -3.552257019E+01  1.695346479E+02  1.250000000E+02  0.00000E+00  9.000E+00
      21     1     1     2   502   512 -3.171068225E+01 -4.074254671E+00 -1.951603948E+03  1.951865809E+03  0.000000000E+00  0.00000E+00  9.000E+00
#rwgt            2          11   4.5453101889563369E-004           7      327377           0
</event>
<event>
      5   9999  3.19816E-02  1.10037E+02 -1.00000E+00  1.21988E-01
      21    -1     0     0   502   501  0.000000000E+00  0.000000000E+00  2.524439607E+02  2.524439607E+02  0.000000000E+00  0.00000E+00  9.000E+00
      21    -1     0     0   511   502  0.000000000E+00  0.000000000E+00 -7.394094480E+02  7.394094480E+02  0.000000000E+00  0.00000E+00  9.000E+00
      25     1     1     2     0     0  6.757978356E+01 -1.644864647E+02  7.635003001E+01  2.303847897E+02  1.250000000E+02  0.00000E+00  9.000E+00
      25     1     1     2     0     0 -1.744567506E+02  1.906680850E+02 -1.313375300E+02  3.156960931E+02  1.250000000E+02  0.00000E+00  9.000E+00
      21     1     1     2   511   501  1.068769670E+02 -2.618162023E+01 -4.319779873E+02  4.457725258E+02  7.629394531E-06  0.00000E+00  9.000E+00
#rwgt            1           1   2.6285007898788779E-002           7      327412           0
</event>
<event>
      5   9999  3.19816E-02  2.54450E+02 -1.00000E+00  1.07969E-01
       1    -1     0     0   502     0  0.000000000E+00  0.000000000E+00  1.947225240E+03  1.947225240E+03  0.000000000E+00  0.00000E+00  9.000E+00
      21    -1     0     0   501   502  0.000000000E+00  0.000000000E+00 -5.349778063E+02  5.349778063E+02  0.000000000E+00  0.00000E+00  9.000E+00
      25     1     1     2     0     0 -2.661428146E+02  1.702981822E+02 -2.921891190E+02  4.481438941E+02  1.250000000E+02  0.00000E+00  9.000E+00
      25     1     1     2     0     0  6.015534005E+01 -3.196760696E+02  4.054938848E+01  3.508286011E+02  1.250000000E+02  0.00000E+00  9.000E+00
       1     1     1     2   501     0  2.059874745E+02  1.493778874E+02  1.663887164E+03  1.683230551E+03  3.737624730E-05  0.00000E+00  9.000E+00
#rwgt            1           1   2.9811422849452127E-002           7      327460           0
</event>
<event>
      5   9999  3.19816E-02  1.18422E+03 -1.00000E+00  8.92625E-02
      21    -1     0     0   502   511  0.000000000E+00  0.000000000E+00  2.804603861E+03  2.804603861E+03  0.000000000E+00  0.00000E+00  9.000E+00
      21    -1     0     0   501   502  0.000000000E+00  0.000000000E+00 -7.551124283E+02  7.551124283E+02  0.000000000E+00  0.00000E+00  9.000E+00
      25     1     1     2     0     0 -1.187205850E+02  2.290861375E+02  3.853442187E+02  4.803021992E+02  1.250000000E+02  0.00000E+00  9.000E+00
      25     1     1     2     0     0 -1.061478254E+03 -3.266220852E+02  1.064254525E+02  1.122661769E+03  1.250000000E+02  0.00000E+00  9.000E+00
      21     1     1     2   501   511  1.180198839E+03  9.753594767E+01  1.557721762E+03  1.956752321E+03  2.157918644E-05  0.00000E+00  9.000E+00
#rwgt            2          11   3.0778865206907530E-004           7      327522           0
</event>
<event>
      5   9999  3.19816E-02  6.10008E+01 -1.00000E+00  1.34321E-01
      21    -1     0     0   502   501  0.000000000E+00  0.000000000E+00  3.902724620E+02  3.902724620E+02  0.000000000E+00  0.00000E+00  9.000E+00
      21    -1     0     0   501   512  0.000000000E+00  0.000000000E+00 -2.179682524E+02  2.179682524E+02  0.000000000E+00  0.00000E+00  9.000E+00
      25     1     1     2     0     0  8.139490098E+01 -1.242864627E+02 -7.318966935E+01  2.074945359E+02  1.250000000E+02  0.00000E+00  9.000E+00
      25     1     1     2     0     0 -5.133723429E+01  7.120508101E+01  2.882736644E+02  3.262397596E+02  1.250000000E+02  0.00000E+00  9.000E+00
      21     1     1     2   502   512 -3.005766670E+01  5.308138173E+01 -4.277978548E+01  7.450641891E+01  1.261592536E-06  0.00000E+00  9.000E+00
#rwgt            1           1   2.7436287398435448E-002           7      327542           0
</event>
<event>
      5   9999  3.79408E-02  1.90712E+01 -1.00000E+00  1.68091E-01
      21    -1     0     0   502   511  0.000000000E+00  0.000000000E+00  1.661628877E+02  1.661628877E+02  0.000000000E+00  0.00000E+00  9.000E+00
      21    -1     0     0   501   502  0.000000000E+00  0.000000000E+00 -3.669598928E+02  3.669598928E+02  0.000000000E+00  0.00000E+00  9.000E+00
      25     1     1     2     0     0  8.698372205E+01  4.528129001E+01 -1.597153157E+02  2.252788166E+02  1.250000000E+02  0.00000E+00  9.000E+00
      25     1     1     2     0     0 -7.636896955E+01 -6.112541670E+01 -1.372298155E+02  2.098226831E+02  1.250000000E+02  0.00000E+00  9.000E+00
      21     1     1     2   501   511 -1.061475250E+01  1.584412669E+01  9.614812612E+01  9.802128074E+01  0.000000000E+00  0.00000E+00  9.000E+00
#rwgt            1           1   9.9386451905617262E-002           7      327674           0
</event>
<event>
      5   9999  3.19816E-02  3.06504E+01 -1.00000E+00  1.52396E-01
      21    -1     0     0   502   501  0.000000000E+00  0.000000000E+00  9.691722104E+01  9.691722104E+01  0.000000000E+00  0.00000E+00  9.000E+00
      21    -1     0     0   501   512  0.000000000E+00  0.000000000E+00 -8.264870095E+02  8.264870095E+02  0.000000000E+00  0.00000E+00  9.000E+00
      25     1     1     2     0     0 -1.867699670E+02  9.259694096E+01 -2.886886196E+02  3.773901604E+02  1.250000000E+02  0.00000E+00  9.000E+00
      25     1     1     2     0     0  2.099132320E+02 -7.250129470E+01 -2.656538418E+02  3.681262913E+02  1.250000000E+02  0.00000E+00  9.000E+00
      21     1     1     2   502   512 -2.314326507E+01 -2.009564626E+01 -1.752273270E+02  1.778877788E+02  3.303624740E-06  0.00000E+00  9.000E+00
#rwgt            1           1   3.0616030837998617E-002           7      327836           0
</event>
<event>
      5   9999  3.19816E-02  2.17836E+02 -1.00000E+00  1.10314E-01
      21    -1     0     0   502   501  0.000000000E+00  0.000000000E+00  1.708974050E+03  1.708974050E+03  0.000000000E+00  0.00000E+00  9.000E+00
       2    -1     0     0   501     0  0.000000000E+00  0.000000000E+00 -4.944279810E+02  4.944279810E+02  0.000000000E+00  0.00000E+00  9.000E+00
      25     1     1     2     0     0  5.280326141E+01 -4.253476991E+02  5.136541715E+02  6.805692158E+02  1.250000000E+02  0.00000E+00  9.000E+00
      25     1     1     2     0     0 -2.705478259E+02  4.316603077E+02  1.013859419E+03  1.141517704E+03  1.250000000E+02  0.00000E+00  9.000E+00
       2     1     1     2   502     0  2.177445645E+02 -6.312608558E+00 -3.129675215E+02  3.813151111E+02  9.344061824E-06  0.00000E+00  9.000E+00
#rwgt            2          13   1.1058474148789121E-003           7      327928           0
</event>
<event>
      5   9999  3.19816E-02  3.61284E+01 -1.00000E+00  1.47636E-01
      21    -1     0     0   511   501  0.000000000E+00  0.000000000E+00  1.516922957E+02  1.516922957E+02  0.000000000E+00  0.00000E+00  9.000E+00
      21    -1     0     0   501   502  0.000000000E+00  0.000000000E+00 -1.102768298E+03  1.102768298E+03  0.000000000E+00  0.00000E+00  9.000E+00
      25     1     1     2     0     0  1.416926572E+02  1.462001201E+02 -2.552854819E+01  2.402665000E+02  1.250000000E+02  0.00000E+00  9.000E+00
      25     1     1     2     0     0 -1.571711485E+02 -1.135554422E+02 -9.452824657E+02  9.730270029E+02  1.250000000E+02  0.00000E+00  9.000E+00
      21     1     1     2   511   502  1.547849123E+01 -3.264467795E+01  1.973501151E+01  4.116709085E+01  8.920806376E-07  0.00000E+00  9.000E+00
#rwgt            1           1   2.7877411822380314E-002           7      328022           0
</event>
<event>
      5   9999  3.19816E-02  1.44015E+01 -1.00000E+00  1.79066E-01
      21    -1     0     0   512   501  0.000000000E+00  0.000000000E+00  8.872330009E+01  8.872330009E+01  0.000000000E+00  0.00000E+00  9.000E+00
      21    -1     0     0   501   502  0.000000000E+00  0.000000000E+00 -8.780733524E+02  8.780733524E+02  0.000000000E+00  0.00000E+00  9.000E+00
      25     1     1     2     0     0 -1.756467229E+02  9.777284178E+01 -5.271099880E+02  5.778245748E+02  1.250000000E+02  0.00000E+00  9.000E+00
      25     1     1     2     0     0  1.762372957E+02 -8.338340617E+01 -2.817517903E+02  3.647210553E+02  1.250000000E+02  0.00000E+00  9.000E+00
      21     1     1     2   512   502 -5.905727606E-01 -1.438943561E+01  1.951172600E+01  2.425102235E+01  5.331201500E-07  0.00000E+00  9.000E+00
#rwgt            1           1   8.9842135592609739E-003           7      328164           0
</event>
<event>
      5   9999  3.19816E-02  2.54503E+01 -1.00000E+00  1.58172E-01
       3    -1     0     0   502     0  0.000000000E+00  0.000000000E+00  1.575156460E+01  1.575156460E+01  0.000000000E+00  0.00000E+00  9.000E+00
      21    -1     0     0   501   502  0.000000000E+00  0.000000000E+00 -2.210561826E+03  2.210561826E+03  0.000000000E+00  0.00000E+00  9.000E+00
      25     1     1     2     0     0  2.324125467E+01 -3.454658040E+01 -1.581994589E+03  1.587471417E+03  1.250000000E+02  0.00000E+00  9.000E+00
      25     1     1     2     0     0 -4.858763463E+01  3.684409420E+01 -3.802297313E+02  4.048677489E+02  1.250000000E+02  0.00000E+00  9.000E+00
       3     1     1     2   501     0  2.534637996E+01 -2.297513800E+00 -2.325859418E+02  2.339742248E+02  2.697398305E-06  0.00000E+00  9.000E+00
#rwgt            1           1   7.4250806534567101E-002           7      328361           0
</event>
<event>
      5   9999  3.19816E-02  2.36605E+01 -1.00000E+00  1.60563E-01
      21    -1     0     0   511   501  0.000000000E+00  0.000000000E+00  1.404311877E+03  1.404311877E+03  0.000000000E+00  0.00000E+00  9.000E+00
      21    -1     0     0   501   502  0.000000000E+00  0.000000000E+00 -1.651904454E+02  1.651904454E+02  0.000000000E+00  0.00000E+00  9.000E+00
      25     1     1     2     0     0  2.509571394E+01  2.632422536E+02  1.410266272E+02  3.247149343E+02  1.250000000E+02  0.00000E+00  9.000E+00
      25     1     1     2     0     0 -2.962232737E+01 -2.864657127E+02  2.635491040E+02  4.099063516E+02  1.250000000E+02  0.00000E+00  9.000E+00
      21     1     1     2   511   502  4.526613439E+00  2.322345905E+01  8.345457004E+02  8.348810366E+02  1.078959322E-05  0.00000E+00  9.000E+00
#rwgt            1           1   2.8704855419335477E-002           7      328455           0
</event>
<event>
      5   9999  3.19816E-02  3.03568E+01 -1.00000E+00  1.52684E-01
      21    -1     0     0   512   501  0.000000000E+00  0.000000000E+00  5.807068846E+02  5.807068846E+02  0.000000000E+00  0.00000E+00  9.000E+00
      21    -1     0     0   501   502  0.000000000E+00  0.000000000E+00 -3.236567526E+02  3.236567526E+02  0.000000000E+00  0.00000E+00  9.000E+00
      25     1     1     2     0     0  9.853241894E+01 -7.569198646E+01 -2.788127287E+02  3.298476195E+02  1.250000000E+02  0.00000E+00  9.000E+00
      25     1     1     2     0     0 -1.120493197E+02  4.851061827E+01  4.236966066E+02  4.583144604E+02  1.250000000E+02  0.00000E+00  9.000E+00
      21     1     1     2   512   502  1.351690075E+01  2.718136819E+01  1.121662540E+02  1.162015573E+02  1.907348633E-06  0.00000E+00  9.000E+00
#rwgt            1           1   3.1589906451591085E-002           7      328577           0
</event>
<event>
      5   9999  3.19816E-02  1.10439E+02 -1.00000E+00  1.21919E-01
      21    -1     0     0   511   501  0.000000000E+00  0.000000000E+00  2.411946815E+03  2.411946815E+03  0.000000000E+00  0.00000E+00  9.000E+00
      21    -1     0     0   501   502  0.000000000E+00  0.000000000E+00 -2.275981870E+02  2.275981870E+02  0.000000000E+00  0.00000E+00  9.000E+00
      25     1     1     2     0     0  5.491301976E+01  4.989851724E+02  1.462378190E+03  1.551185550E+03  1.250000000E+02  0.00000E+00  9.000E+00
      25     1     1     2     0     0 -1.617870068E+02 -4.711521640E+02  1.940888598E+02  5.490490713E+02  1.250000000E+02  0.00000E+00  9.000E+00
      21     1     1     2   511   502  1.068739870E+02 -2.783300849E+01  5.278815788E+02  5.393103807E+02  7.629394531E-06  0.00000E+00  9.000E+00
#rwgt            1           1   3.3587237236380074E-002           7      328693           0
</event>
<event>
      5   9999  3.19816E-02  1.37565E+02 -1.00000E+00  1.17903E-01
      21    -1     0     0   512   501  0.000000000E+00  0.000000000E+00  4.360196670E+02  4.360196670E+02  0.000000000E+00  0.00000E+00  9.000E+00
      21    -1     0     0   501   502  0.000000000E+00  0.000000000E+00 -8.383057192E+02  8.383057192E+02  0.000000000E+00  0.00000E+00  9.000E+00
      25     1     1     2     0     0  4.483485873E+02  7.119545068E+01  9.350315168E+01  4.800552961E+02  1.250000000E+02  0.00000E+00  9.000E+00
      25     1     1     2     0     0 -3.649134621E+02 -1.805702305E+02 -4.997919857E+02  6.566463827E+02  1.250000000E+02  0.00000E+00  9.000E+00
      21     1     1     2   512   502 -8.343512524E+01  1.093747798E+02  4.002781812E+00  1.376237074E+02  2.310785291E-06  0.00000E+00  9.000E+00
#rwgt            1           1   3.1731958457877817E-002           7      328793           0
</event>
<event>
      5   9999  3.19816E-02  2.21519E+01 -1.00000E+00  1.62789E-01
      21    -1     0     0   502   511  0.000000000E+00  0.000000000E+00  1.538663404E+03  1.538663404E+03  0.000000000E+00  0.00000E+00  9.000E+00
      21    -1     0     0   501   502  0.000000000E+00  0.000000000E+00 -1.989743897E+01  1.989743897E+01  0.000000000E+00  0.00000E+00  9.000E+00
      25     1     1     2     0     0 -4.274432468E+01  5.497949807E+01  3.761244556E+02  4.024231959E+02  1.250000000E+02  0.00000E+00  9.000E+00
      25     1     1     2     0     0  6.283877712E+01 -6.430249652E+01  1.003071746E+03  1.014820896E+03  1.250000000E+02  0.00000E+00  9.000E+00
      21     1     1     2   501   511 -2.009445244E+01  9.322998452E+00  1.395697634E+02  1.413167513E+02  1.907348633E-06  0.00000E+00  9.000E+00
#rwgt            1           1   3.2978738292595539E-002           7      328913           0
</event>
<event>
      5   9999  3.19816E-02  1.16234E+02 -1.00000E+00  1.20959E-01
      21    -1     0     0   502   501  0.000000000E+00  0.000000000E+00  1.455815774E+03  1.455815774E+03  0.000000000E+00  0.00000E+00  9.000E+00
      21    -1     0     0   512   502  0.000000000E+00  0.000000000E+00 -3.292136763E+02  3.292136763E+02  0.000000000E+00  0.00000E+00  9.000E+00
      25     1     1     2     0     0 -5.755364938E+01 -7.462151612E+01  1.287020541E+03  1.296505945E+03  1.250000000E+02  0.00000E+00  9.000E+00
      25     1     1     2     0     0  7.726257564E+01  1.891718863E+02 -2.466265395E+02  3.438097703E+02  1.250000000E+02  0.00000E+00  9.000E+00
      21     1     1     2   512   501 -1.970892626E+01 -1.145503702E+02  8.620809581E+01  1.447137342E+02  9.536743164E-07  0.00000E+00  9.000E+00
#rwgt            1           1   3.0677726395316612E-002           7      329073           0
</event>
<event>
      5   9999  3.19816E-02  4.14855E+01 -1.00000E+00  1.43865E-01
      21    -1     0     0   502   501  0.000000000E+00  0.000000000E+00  9.275222881E+02  9.275222881E+02  0.000000000E+00  0.00000E+00  9.000E+00
      21    -1     0     0   511   502  0.000000000E+00  0.000000000E+00 -2.021712709E+02  2.021712709E+02  0.000000000E+00  0.00000E+00  9.000E+00
      25     1     1     2     0     0  1.944786644E+02  2.133445524E+01  7.838641721E+02  8.175237918E+02  1.250000000E+02  0.00000E+00  9.000E+00
      25     1     1     2     0     0 -2.291589160E+02 -4.410118487E+01 -4.494214470E+01  2.685209855E+02  1.250000000E+02  0.00000E+00  9.000E+00
      21     1     1     2   511   501  3.468025155E+01  2.276672963E+01 -1.357101017E+01  4.364878169E+01  9.536743164E-07  0.00000E+00  9.000E+00
#rwgt            1           1   3.2220148035794573E-002           7      329121           0
</event>
<event>
      5   9999  3.19816E-02  2.88943E+01 -1.00000E+00  1.54181E-01
      21    -1     0     0   502   501  0.000000000E+00  0.000000000E+00  4.079079280E+02  4.079079280E+02  0.000000000E+00  0.00000E+00  9.000E+00
      21    -1     0     0   512   502  0.000000000E+00  0.000000000E+00 -6.983649844E+02  6.983649844E+02  0.000000000E+00  0.00000E+00  9.000E+00
      25     1     1     2     0     0 -1.428509090E+01  3.005104729E+02 -4.025782711E+02  5.178849993E+02  1.250000000E+02  0.00000E+00  9.000E+00
      25     1     1     2     0     0  4.006925885E+01 -2.874698495E+02  2.774623156E+02  4.205410758E+02  1.250000000E+02  0.00000E+00  9.000E+00
      21     1     1     2   512   501 -2.578416795E+01 -1.304062342E+01 -1.653411009E+02  1.678468373E+02  2.697398305E-06  0.00000E+00  9.000E+00
#rwgt            1           1   3.1759851860324761E-002           7      329290           0
</event>
<event>
      5   9999  3.19816E-02  1.34652E+02 -1.00000E+00  1.18282E-01
      21    -1     0     0   502   501  0.000000000E+00  0.000000000E+00  1.827381169E+02  1.827381169E+02  0.000000000E+00  0.00000E+00  9.000E+00
       2    -1     0     0   501     0  0.000000000E+00  0.000000000E+00 -2.424531983E+03  2.424531983E+03  0.000000000E+00  0.00000E+00  9.000E+00
      25     1     1     2     0     0 -2.350624634E+02  8.637534445E+01 -6.028786857E+02  6.646824591E+02  1.250000000E+02  0.00000E+00  9.000E+00
      25     1     1     2     0     0  2.429937853E+02 -2.207932550E+02 -5.814382381E+01  3.560917655E+02  1.250000000E+02  0.00000E+00  9.000E+00
       2     1     1     2   502     0 -7.931321940E+00  1.344179106E+02 -1.580771356E+03  1.586495875E+03  2.157918644E-05  0.00000E+00  9.000E+00
#rwgt            1           1   2.7464229492582690E-002           7      329485           0
</event>
<event>
      5   9999  3.19816E-02  4.57727E+02 -1.00000E+00  9.99542E-02
       2    -1     0     0   502     0  0.000000000E+00  0.000000000E+00  1.928393780E+03  1.928393780E+03  0.000000000E+00  0.00000E+00  9.000E+00
      21    -1     0     0   501   502  0.000000000E+00  0.000000000E+00 -7.970090052E+02  7.970090052E+02  0.000000000E+00  0.00000E+00  9.000E+00
      25     1     1     2     0     0  4.016505234E+02 -7.464026833E+02  2.256847327E+02  8.860015278E+02  1.250000000E+02  0.00000E+00  9.000E+00
      25     1     1     2     0     0 -1.179229947E+02  1.105586117E+03  4.913855647E+02  1.222011157E+03  1.250000000E+02  0.00000E+00  9.000E+00
       2     1     1     2   501     0 -2.837275287E+02 -3.591834339E+02  4.143144777E+02  6.173901004E+02  9.344061824E-06  0.00000E+00  9.000E+00
#rwgt            2          18   1.2192315348769395E-003           7      329744           0
</event>
<event>
      5   9999  3.19816E-02  5.58273E+01 -1.00000E+00  1.36398E-01
      21    -1     0     0   502   511  0.000000000E+00  0.000000000E+00  3.749355436E+02  3.749355436E+02  0.000000000E+00  0.00000E+00  9.000E+00
      21    -1     0     0   501   502  0.000000000E+00  0.000000000E+00 -5.937397745E+02  5.937397745E+02  0.000000000E+00  0.00000E+00  9.000E+00
      25     1     1     2     0     0  2.873896391E+02  2.653577170E+02  6.344726640E+01  4.155214534E+02  1.250000000E+02  0.00000E+00  9.000E+00
      25     1     1     2     0     0 -2.321641659E+02 -2.735328641E+02 -3.104243270E+02  4.906207195E+02  1.250000000E+02  0.00000E+00  9.000E+00
      21     1     1     2   501   511 -5.522547321E+01  8.175147092E+00  2.817282965E+01  6.253314522E+01  3.371747881E-07  0.00000E+00  9.000E+00
#rwgt            1           1   2.8403773609540349E-002           7      329808           0
</event>
<event>
      5   9999  3.19816E-02  1.27914E+02 -1.00000E+00  1.19203E-01
      21    -1     0     0   512   501  0.000000000E+00  0.000000000E+00  1.563013267E+02  1.563013267E+02  0.000000000E+00  0.00000E+00  9.000E+00
      21    -1     0     0   501   502  0.000000000E+00  0.000000000E+00 -1.568105283E+03  1.568105283E+03  0.000000000E+00  0.00000E+00  9.000E+00
      25     1     1     2     0     0  1.010630710E+02 -1.447965746E+02 -1.236494071E+03  1.255277810E+03  1.250000000E+02  0.00000E+00  9.000E+00
      25     1     1     2     0     0 -2.267034128E+02  1.207885191E+02 -4.991041854E+01  2.900006096E+02  1.250000000E+02  0.00000E+00  9.000E+00
      21     1     1     2   512   502  1.256403418E+02  2.400805548E+01 -1.253994665E+02  1.791281899E+02  2.336015456E-06  0.00000E+00  9.000E+00
#rwgt            1           1   2.8242128188444817E-002           7      329933           0
</event>
<event>
      5   9999  3.19816E-02  9.13271E+01 -1.00000E+00  1.25626E-01
      21    -1     0     0   511   501  0.000000000E+00  0.000000000E+00  4.404449386E+02  4.404449386E+02  0.000000000E+00  0.00000E+00  9.000E+00
      21    -1     0     0   501   502  0.000000000E+00  0.000000000E+00 -8.275874287E+02  8.275874287E+02  0.000000000E+00  0.00000E+00  9.000E+00
      25     1     1     2     0     0 -4.077078735E+02  1.612466800E+02 -4.917755743E+02  6.705925867E+02  1.250000000E+02  0.00000E+00  9.000E+00
      25     1     1     2     0     0  3.935904337E+02 -2.514760636E+02  3.920308199E+01  4.850933123E+02  1.250000000E+02  0.00000E+00  9.000E+00
      21     1     1     2   511   502  1.411743979E+01  9.022938358E+01  6.543000218E+01  1.123464684E+02  1.348699152E-06  0.00000E+00  9.000E+00
#rwgt            1           1   2.9254510336616944E-002           7      329994           0
</event>
<event>
      5   9999  3.19816E-02  7.03814E+01 -1.00000E+00  1.31101E-01
      21    -1     0     0   512   501  0.000000000E+00  0.000000000E+00  9.235830989E+02  9.235830989E+02  0.000000000E+00  0.00000E+00  9.000E+00
      21    -1     0     0   501   502  0.000000000E+00  0.000000000E+00 -2.177637265E+02  2.177637265E+02  0.000000000E+00  0.00000E+00  9.000E+00
      25     1     1     2     0     0 -3.617082155E+02  9.128586234E+01  3.276973446E+02  5.120317290E+02  1.250000000E+02  0.00000E+00  9.000E+00
      25     1     1     2     0     0  4.117724294E+02 -4.181754889E+01  3.172685442E+02  5.362737829E+02  1.250000000E+02  0.00000E+00  9.000E+00
      21     1     1     2   512   502 -5.006421396E+01 -4.946831345E+01  6.085348356E+01  9.304131350E+01  1.907348633E-06  0.00000E+00  9.000E+00
#rwgt            1           1   2.9922531147330348E-002           7      330106           0
</event>
<event>
      5   9999  3.19816E-02  1.11374E+02 -1.00000E+00  1.21760E-01
      21    -1     0     0   511   501  0.000000000E+00  0.000000000E+00  2.143072755E+03  2.143072755E+03  0.000000000E+00  0.00000E+00  9.000E+00
      21    -1     0     0   501   502  0.000000000E+00  0.000000000E+00 -6.803244454E+02  6.803244454E+02  0.000000000E+00  0.00000E+00  9.000E+00
      25     1     1     2     0     0 -3.566706354E+02  9.777884380E+02  3.898057962E+02  1.118417512E+03  1.250000000E+02  0.00000E+00  9.000E+00
      25     1     1     2     0     0  3.180787859E+02 -1.082262760E+03  7.424281831E+02  1.356204779E+03  1.250000000E+02  0.00000E+00  9.000E+00
      21     1     1     2   511   502  3.859184943E+01  1.044743225E+02  3.305143300E+02  3.487749091E+02  5.394796609E-06  0.00000E+00  9.000E+00
#rwgt            2          11   4.2996768956309345E-003           7      330205           0
</event>
<event>
      5   9999  3.19816E-02  7.45226E+01 -1.00000E+00  1.29858E-01
      21    -1     0     0   512   501  0.000000000E+00  0.000000000E+00  7.592360092E+01  7.592360092E+01  0.000000000E+00  0.00000E+00  9.000E+00
      21    -1     0     0   501   502  0.000000000E+00  0.000000000E+00 -8.458608508E+02  8.458608508E+02  0.000000000E+00  0.00000E+00  9.000E+00
      25     1     1     2     0     0  6.163063215E+01  1.243978325E+02 -1.447018376E+02  2.362980688E+02  1.250000000E+02  0.00000E+00  9.000E+00
      25     1     1     2     0     0 -1.256550938E+02 -8.626017141E+01 -5.234638481E+02  5.593473161E+02  1.250000000E+02  0.00000E+00  9.000E+00
      21     1     1     2   512   502  6.402446167E+01 -3.813766106E+01 -1.017715642E+02  1.261390668E+02  0.000000000E+00  0.00000E+00  9.000E+00
#rwgt            1           1   3.4607459852482265E-002           7      330240           0
</event>
<event>
      5   9999  3.19816E-02  5.07435E+00 -1.00000E+00  2.37402E-01
      21    -1     0     0   502   501  0.000000000E+00  0.000000000E+00  9.590554308E+01  9.590554308E+01  0.000000000E+00  0.00000E+00  9.000E+00
      21    -1     0     0   501   511  0.000000000E+00  0.000000000E+00 -8.968911385E+02  8.968911385E+02  0.000000000E+00  0.00000E+00  9.000E+00
      25     1     1     2     0     0 -1.161275031E+02  5.789108173E+00 -9.222948199E-01  1.707189544E+02  1.250000000E+02  0.00000E+00  9.000E+00
      25     1     1     2     0     0  1.136733385E+02 -1.347695732E+00 -6.398103629E+02  6.617444708E+02  1.250000000E+02  0.00000E+00  9.000E+00
      21     1     1     2   502   511  2.454164642E+00 -4.441412441E+00 -1.602529377E+02  1.603332564E+02  1.907348633E-06  0.00000E+00  9.000E+00
#rwgt            1           1   2.7183635291374932E-002           7      330308           0
</event>
<event>
      5   9999  3.19816E-02  7.29586E+01 -1.00000E+00  1.30317E-01
      21    -1     0     0   502   512  0.000000000E+00  0.000000000E+00  2.371838083E+02  2.371838083E+02  0.000000000E+00  0.00000E+00  9.000E+00
      21    -1     0     0   501   502  0.000000000E+00  0.000000000E+00 -3.498424337E+02  3.498424337E+02  0.000000000E+00  0.00000E+00  9.000E+00
      25     1     1     2     0     0  5.700579337E+01  9.198161731E+01 -2.360663131E+02  2.882057990E+02  1.250000000E+02  0.00000E+00  9.000E+00
      25     1     1     2     0     0 -8.468754262E+01 -2.447839806E+01 -2.865967598E+00  1.529849196E+02  1.250000000E+02  0.00000E+00  9.000E+00
      21     1     1     2   501   512  2.768174925E+01 -6.750321924E+01  1.262736553E+02  1.458355234E+02  2.336015456E-06  0.00000E+00  9.000E+00
#rwgt            1           1   2.4716206976258967E-002           7      330573           0
</event>
<event>
      5   9999  3.19816E-02  1.01908E+02 -1.00000E+00  1.23460E-01
      21    -1     0     0   502   501  0.000000000E+00  0.000000000E+00  2.981600573E+02  2.981600573E+02  0.000000000E+00  0.00000E+00  9.000E+00
      21    -1     0     0   511   502  0.000000000E+00  0.000000000E+00 -2.343715694E+03  2.343715694E+03  0.000000000E+00  0.00000E+00  9.000E+00
      25     1     1     2     0     0 -2.817739730E+02  2.571422635E+01 -6.965931385E+02  7.621842257E+02  1.250000000E+02  0.00000E+00  9.000E+00
      25     1     1     2     0     0  3.825536314E+02 -1.059055186E+01  1.098573613E+02  4.173165232E+02  1.250000000E+02  0.00000E+00  9.000E+00
      21     1     1     2   511   501 -1.007796583E+02 -1.512367449E+01 -1.458819860E+03  1.462375003E+03  0.000000000E+00  0.00000E+00  9.000E+00
#rwgt            1           1   2.5366531977493705E-002           7      330636           0
</event>
<event>
      5   9999  3.19816E-02  3.83537E+01 -1.00000E+00  1.45981E-01
      21    -1     0     0   502   501  0.000000000E+00  0.000000000E+00  1.094450833E+02  1.094450833E+02  0.000000000E+00  0.00000E+00  9.000E+00
      21    -1     0     0   501   512  0.000000000E+00  0.000000000E+00 -7.685147906E+02  7.685147906E+02  0.000000000E+00  0.00000E+00  9.000E+00
      25     1     1     2     0     0 -2.385608818E+02 -4.093675239E+01 -2.771624389E+02  3.886272373E+02  1.250000000E+02  0.00000E+00  9.000E+00
      25     1     1     2     0     0  2.128959256E+02  1.243553469E+01 -2.484501469E+02  3.504736697E+02  1.250000000E+02  0.00000E+00  9.000E+00
      21     1     1     2   502   512  2.566495617E+01  2.850121770E+01 -1.334571216E+02  1.388589669E+02  3.303624740E-06  0.00000E+00  9.000E+00
#rwgt            1           1   2.6235347351387731E-002           7      330730           0
</event>
<event>
      5   9999  3.19816E-02  1.28824E+01 -1.00000E+00  1.83845E-01
      21    -1     0     0   502   501  0.000000000E+00  0.000000000E+00  1.913843290E+03  1.913843290E+03  0.000000000E+00  0.00000E+00  9.000E+00
      21    -1     0     0   511   502  0.000000000E+00  0.000000000E+00 -2.009441957E+02  2.009441957E+02  0.000000000E+00  0.00000E+00  9.000E+00
      25     1     1     2     0     0 -4.187961427E+02  3.846012958E+01  1.226711867E+02  4.555684479E+02  1.250000000E+02  0.00000E+00  9.000E+00
      25     1     1     2     0     0  4.316765143E+02 -3.868991996E+01  1.578883890E+03  1.642053855E+03  1.250000000E+02  0.00000E+00  9.000E+00
      21     1     1     2   511   501 -1.288037159E+01  2.297903797E-01  1.134401704E+01  1.716518274E+01  1.685873940E-07  0.00000E+00  9.000E+00
#rwgt            1           1   2.9166457559765980E-002           7      330846           0
</event>
<event>
      5   9999  3.19816E-02  9.19030E+00 -1.00000E+00  2.00094E-01
      21    -1     0     0   502   501  0.000000000E+00  0.000000000E+00  6.938478528E+02  6.938478528E+02  0.000000000E+00  0.00000E+00  9.000E+00
      21    -1     0     0   512   502  0.000000000E+00  0.000000000E+00 -2.374004446E+02  2.374004446E+02  0.000000000E+00  0.00000E+00  9.000E+00
      25     1     1     2     0     0  2.992095417E+02 -2.044628246E+02  1.727798452E+02  4.204869456E+02  1.250000000E+02  0.00000E+00  9.000E+00
      25     1     1     2     0     0 -2.953888679E+02  2.128213002E+02  3.026556301E+02  4.896661307E+02  1.250000000E+02  0.00000E+00  9.000E+00
      21     1     1     2   512   501 -3.820673823E+00 -8.358475650E+00 -1.898806701E+01  2.109522108E+01  2.384185791E-07  0.00000E+00  9.000E+00
#rwgt            1           1   2.9342427803034418E-002           7      331081           0
</event>
<event>
      5   9999  3.19816E-02  5.04540E+01 -1.00000E+00  1.38852E-01
      21    -1     0     0   511   501  0.000000000E+00  0.000000000E+00  6.892682037E+02  6.892682037E+02  0.000000000E+00  0.00000E+00  9.000E+00
      21    -1     0     0   501   502  0.000000000E+00  0.000000000E+00 -1.273031631E+02  1.273031631E+02  0.000000000E+00  0.00000E+00  9.000E+00
      25     1     1     2     0     0  7.964723024E+01 -3.329666400E+01  1.235093233E+02  1.957853469E+02  1.250000000E+02  0.00000E+00  9.000E+00
      25     1     1     2     0     0 -3.673932855E+01  5.983947800E+01 -3.260357603E+01  1.470324269E+02  1.250000000E+02  0.00000E+00  9.000E+00
      21     1     1     2   511   502 -4.290790169E+01 -2.654281400E+01  4.710592934E+02  4.737535930E+02  7.629394531E-06  0.00000E+00  9.000E+00
#rwgt            1           1   2.6653246111570699E-002           7      331371           0
</event>
<event>
      5   9999  3.19816E-02  7.53496E+01 -1.00000E+00  1.29621E-01
      21    -1     0     0   512   501  0.000000000E+00  0.000000000E+00  1.221885446E+03  1.221885446E+03  0.000000000E+00  0.00000E+00  9.000E+00
      21    -1     0     0   501   502  0.000000000E+00  0.000000000E+00 -4.310140023E+01  4.310140023E+01  0.000000000E+00  0.00000E+00  9.000E+00
      25     1     1     2     0     0  5.372174993E+01 -5.439107928E+01  1.785908811E+02  2.310067504E+02  1.250000000E+02  0.00000E+00  9.000E+00
      25     1     1     2     0     0 -4.672410286E+01  1.294150139E+02  7.494290177E+02  7.721400392E+02  1.250000000E+02  0.00000E+00  9.000E+00
      21     1     1     2   512   502 -6.997647078E+00 -7.502393459E+01  2.507641467E+02  2.618400563E+02  2.697398305E-06  0.00000E+00  9.000E+00
#rwgt            1           1   3.7660638431802285E-002           7      331453           0
</event>
<event>
      5   9999  3.19816E-02  2.15448E+02 -1.00000E+00  1.10484E-01
      21    -1     0     0   511   501  0.000000000E+00  0.000000000E+00  2.774274170E+02  2.774274170E+02  0.000000000E+00  0.00000E+00  9.000E+00
      21    -1     0     0   501   502  0.000000000E+00  0.000000000E+00 -1.258375153E+03  1.258375153E+03  0.000000000E+00  0.00000E+00  9.000E+00
      25     1     1     2     0     0 -2.221086275E+02 -5.783934015E+01  1.050094848E+02  2.816551501E+02  1.250000000E+02  0.00000E+00  9.000E+00
      25     1     1     2     0     0  4.861828229E+01 -6.990669553E+01 -1.016630857E+03  1.027820015E+03  1.250000000E+02  0.00000E+00  9.000E+00
      21     1     1     2   511   502  1.734903452E+02  1.277460357E+02 -6.932636350E+01  2.263274048E+02  9.536743164E-07  0.00000E+00  9.000E+00
#rwgt            2          11   4.3857758210999803E-003           7      331513           0
</event>
<event>
      5   9999  3.19816E-02  9.57918E+01 -1.00000E+00  1.24674E-01
      21    -1     0     0   502   512  0.000000000E+00  0.000000000E+00  1.345267841E+03  1.345267841E+03  0.000000000E+00  0.00000E+00  9.000E+00
      21    -1     0     0   501   502  0.000000000E+00  0.000000000E+00 -1.259004623E+02  1.259004623E+02  0.000000000E+00  0.00000E+00  9.000E+00
      25     1     1     2     0     0  1.721260402E+02 -6.868877316E+01  7.517977186E+02  7.843279487E+02  1.250000000E+02  0.00000E+00  9.000E+00
      25     1     1     2     0     0 -2.430087517E+02  1.331225890E+02  1.208235354E+02  3.271057991E+02  1.250000000E+02  0.00000E+00  9.000E+00
      21     1     1     2   501   512  7.088271143E+01 -6.443381584E+01  3.467461249E+02  3.597345556E+02  0.000000000E+00  0.00000E+00  9.000E+00
#rwgt            1           1   2.7471544109759684E-002           7      331548           0
</event>
<event>
      5   9999  3.19816E-02  1.51175E+02 -1.00000E+00  1.16259E-01
      21    -1     0     0   511   501  0.000000000E+00  0.000000000E+00  7.604580271E+02  7.604580271E+02  0.000000000E+00  0.00000E+00  9.000E+00
      21    -1     0     0   501   502  0.000000000E+00  0.000000000E+00 -2.656944138E+02  2.656944138E+02  0.000000000E+00  0.00000E+00  9.000E+00
      25     1     1     2     0     0 -2.016764367E+02 -6.379998019E+01 -1.209049258E+02  2.738372211E+02  1.250000000E+02  0.00000E+00  9.000E+00
      25     1     1     2     0     0  2.214622298E+02 -8.607479320E+01  4.760159372E+02  5.465076044E+02  1.250000000E+02  0.00000E+00  9.000E+00
      21     1     1     2   511   502 -1.978579315E+01  1.498747734E+02  1.396526019E+02  2.058076153E+02  3.303624740E-06  0.00000E+00  9.000E+00
#rwgt            1           1   3.0959551621798913E-002           7      331616           0
</event>
<event>
      5   9999  3.19816E-02  1.07158E+02 -1.00000E+00  1.22492E-01
      21    -1     0     0   512   501  0.000000000E+00  0.000000000E+00  9.254810248E+02  9.254810248E+02  0.000000000E+00  0.00000E+00  9.000E+00
      21    -1     0     0   501   502  0.000000000E+00  0.000000000E+00 -1.167461870E+03  1.167461870E+03  0.000000000E+00  0.00000E+00  9.000E+00
      25     1     1     2     0     0  3.104689896E+01  5.901653919E+02  1.291684802E+02  6.177123894E+02  1.250000000E+02  0.00000E+00  9.000E+00
      25     1     1     2     0     0 -1.129165666E+02 -5.210264551E+02 -8.353477797E+02  9.988241241E+02  1.250000000E+02  0.00000E+00  9.000E+00
      21     1     1     2   512   502  8.186966761E+01 -6.913893682E+01  4.641984543E+02  4.764063812E+02  5.394796609E-06  0.00000E+00  9.000E+00
#rwgt            1           1   2.8704846220683897E-002           7      331655           0
</event>
<event>
      5   9999  3.19816E-02  4.76443E+01 -1.00000E+00  1.40282E-01
      21    -1     0     0   502   501  0.000000000E+00  0.000000000E+00  1.441243349E+03  1.441243349E+03  0.000000000E+00  0.00000E+00  9.000E+00
      21    -1     0     0   511   502  0.000000000E+00  0.000000000E+00 -2.921012364E+02  2.921012364E+02  0.000000000E+00  0.00000E+00  9.000E+00
      25     1     1     2     0     0  5.032039741E+01 -4.366564321E+01  1.384013367E+03  1.391242908E+03  1.250000000E+02  0.00000E+00  9.000E+00
      25     1     1     2     0     0 -9.079157987E+01  6.880646074E+01 -2.406224371E+02  2.941115388E+02  1.250000000E+02  0.00000E+00  9.000E+00
      21     1     1     2   511   501  4.047118246E+01 -2.514081753E+01  5.751183424E+00  4.799013885E+01  1.192092896E-07  0.00000E+00  9.000E+00
#rwgt            2          11   2.2590935201560393E-002           7      331833           0
</event>
<event>
      5   9999  3.19816E-02  4.49804E+01 -1.00000E+00  1.41749E-01
      21    -1     0     0   512   501  0.000000000E+00  0.000000000E+00  2.196128498E+02  2.196128498E+02  0.000000000E+00  0.00000E+00  9.000E+00
      21    -1     0     0   501   502  0.000000000E+00  0.000000000E+00 -5.808080353E+02  5.808080353E+02  0.000000000E+00  0.00000E+00  9.000E+00
      25     1     1     2     0     0 -9.167572985E+01  1.937510474E+02  4.863057084E+01  2.528514193E+02  1.250000000E+02  0.00000E+00  9.000E+00
      25     1     1     2     0     0  6.884055321E+01 -1.549980881E+02 -4.437532483E+02  4.912284341E+02  1.250000000E+02  0.00000E+00  9.000E+00
      21     1     1     2   512   502  2.283517664E+01 -3.875295929E+01  3.392749191E+01  5.634103170E+01  9.536743164E-07  0.00000E+00  9.000E+00
#rwgt            1           1   2.6250477581853431E-002           7      331853           0
</event>
<event>
      5   9999  3.19816E-02  3.49796E+02 -1.00000E+00  1.03469E-01
      21    -1     0     0   502   501  0.000000000E+00  0.000000000E+00  6.236121570E+02  6.236121570E+02  0.000000000E+00  0.00000E+00  9.000E+00
      21    -1     0     0   501   511  0.000000000E+00  0.000000000E+00 -7.065925339E+02  7.065925339E+02  0.000000000E+00  0.00000E+00  9.000E+00
      25     1     1     2     0     0 -1.730300742E+01 -1.026854993E+02  3.726444802E+02  4.066111342E+02  1.250000000E+02  0.00000E+00  9.000E+00
      25     1     1     2     0     0  2.966127370E+02  3.132643636E+02 -2.077318790E+02  4.948648409E+02  1.250000000E+02  0.00000E+00  9.000E+00
      21     1     1     2   502   511 -2.793097296E+02 -2.105788643E+02 -2.478929781E+02  4.287287158E+02  2.697398305E-06  0.00000E+00  9.000E+00
#rwgt            2          11   2.8088294280153221E-003           7      331923           0
</event>
<event>
      5   9999  3.19816E-02  1.94378E+02 -1.00000E+00  1.12101E-01
       2    -1     0     0   502     0  0.000000000E+00  0.000000000E+00  1.041176827E+03  1.041176827E+03  0.000000000E+00  0.00000E+00  9.000E+00
      21    -1     0     0   501   502  0.000000000E+00  0.000000000E+00 -1.303179711E+03  1.303179711E+03  0.000000000E+00  0.00000E+00  9.000E+00
      25     1     1     2     0     0  3.508464600E+02  1.008794301E+02  2.657871560E+02  4.685485143E+02  1.250000000E+02  0.00000E+00  9.000E+00
      25     1     1     2     0     0 -4.296557380E+02 -2.785638671E+02 -1.127910352E+03  1.244993431E+03  1.250000000E+02  0.00000E+00  9.000E+00
       2     1     1     2   501     0  7.880927795E+01  1.776844369E+02  6.001203120E+02  6.308145927E+02  7.629394531E-06  0.00000E+00  9.000E+00
#rwgt            1           1   3.3358899721589209E-002           7      331973           0
</event>
<event>
      5   9999  3.19816E-02  2.22288E+01 -1.00000E+00  1.62670E-01
      21    -1     0     0   511   501  0.000000000E+00  0.000000000E+00  1.520086104E+03  1.520086104E+03  0.000000000E+00  0.00000E+00  9.000E+00
      21    -1     0     0   501   502  0.000000000E+00  0.000000000E+00 -6.795148273E+02  6.795148273E+02  0.000000000E+00  0.00000E+00  9.000E+00
      25     1     1     2     0     0  8.646682951E+02  3.503384251E+02  5.951547768E+01  9.431624276E+02  1.250000000E+02  0.00000E+00  9.000E+00
      25     1     1     2     0     0 -8.868821281E+02 -3.495228318E+02  7.690558915E+02  1.231177519E+03  1.250000000E+02  0.00000E+00  9.000E+00
      21     1     1     2   511   502  2.221383293E+01 -8.155933320E-01  1.199990758E+01  2.526098470E+01  6.743495762E-07  0.00000E+00  9.000E+00
#rwgt            1           1   4.4188601319267697E-002           7      332071           0
</event>
<event>
      5   9999  3.19816E-02  8.32870E+02 -1.00000E+00  9.29392E-02
       2    -1     0     0   502     0  0.000000000E+00  0.000000000E+00  2.654052576E+03  2.654052576E+03  0.000000000E+00  0.00000E+00  9.000E+00
      21    -1     0     0   501   502  0.000000000E+00  0.000000000E+00 -1.361384446E+03  1.361384446E+03  0.000000000E+00  0.00000E+00  9.000E+00
      25     1     1     2     0     0  3.496264576E+02  2.354957833E+01  4.506667659E+02  5.843960783E+02  1.250000000E+02  0.00000E+00  9.000E+00
      25     1     1     2     0     0  1.548080406E+02  6.391860580E+02 -1.117055373E+03  1.302291078E+03  1.250000000E+02  0.00000E+00  9.000E+00
       2     1     1     2   501     0 -5.044344982E+02 -6.627356364E+02  1.959056737E+03  2.128749865E+03  2.157918644E-05  0.00000E+00  9.000E+00
#rwgt            2          18   1.5638772340695220E-003           7      332540           0
</event>
<event>
      5   9999  3.19816E-02  4.79995E+01 -1.00000E+00  1.40095E-01
      21    -1     0     0   502   501  0.000000000E+00  0.000000000E+00  8.391074866E+02  8.391074866E+02  0.000000000E+00  0.00000E+00  9.000E+00
      21    -1     0     0   511   502  0.000000000E+00  0.000000000E+00 -3.531504220E+02  3.531504220E+02  0.000000000E+00  0.00000E+00  9.000E+00
      25     1     1     2     0     0 -8.179764027E+01 -1.229967956E+02  7.644134370E+01  2.080561095E+02  1.250000000E+02  0.00000E+00  9.000E+00
      25     1     1     2     0     0  8.522039395E+01  7.511945062E+01  6.845139548E+02  7.050459572E+02  1.250000000E+02  0.00000E+00  9.000E+00
      21     1     1     2   511   501 -3.422753690E+00  4.787734501E+01 -2.749982339E+02  2.791558419E+02  0.000000000E+00  0.00000E+00  9.000E+00
#rwgt            1           1   3.3214730270550052E-002           7      332559           0
</event>
<event>
      5   9999  3.19816E-02  2.70625E+01 -1.00000E+00  1.56215E-01
      21    -1     0     0   502   501  0.000000000E+00  0.000000000E+00  3.380069164E+02  3.380069164E+02  0.000000000E+00  0.00000E+00  9.000E+00
      21    -1     0     0   512   502  0.000000000E+00  0.000000000E+00 -4.210122694E+02  4.210122694E+02  0.000000000E+00  0.00000E+00  9.000E+00
      25     1     1     2     0     0 -2.575704483E+02 -1.902017415E+02  3.285767441E+01  3.452880900E+02  1.250000000E+02  0.00000E+00  9.000E+00
      25     1     1     2     0     0  2.665150898E+02  2.157432754E+02 -8.913202962E+01  3.756926572E+02  1.250000000E+02  0.00000E+00  9.000E+00
      21     1     1     2   512   501 -8.944641456E+00 -2.554153390E+01 -2.673099783E+01  3.803843858E+01  5.840038640E-07  0.00000E+00  9.000E+00
#rwgt            1           1   2.7442765012042517E-002           7      332693           0
</event>
<event>
      5   9999  3.19816E-02  7.85462E+01 -1.00000E+00  1.28736E-01
      21    -1     0     0   502   501  0.000000000E+00  0.000000000E+00  1.804432336E+02  1.804432336E+02  0.000000000E+00  0.00000E+00  9.000E+00
       2    -1     0     0   501     0  0.000000000E+00  0.000000000E+00 -2.160610101E+03  2.160610101E+03  0.000000000E+00  0.00000E+00  9.000E+00
      25     1     1     2     0     0 -3.240322102E+01 -4.488540795E+02 -3.132491000E+02  5.623788332E+02  1.250000000E+02  0.00000E+00  9.000E+00
      25     1     1     2     0     0  9.964831756E+01  4.894447937E+02 -1.209083733E+03  1.314151615E+03  1.250000000E+02  0.00000E+00  9.000E+00
       2     1     1     2   502     0 -6.724509655E+01 -4.059071423E+01 -4.578340344E+02  4.645228866E+02  5.394796609E-06  0.00000E+00  9.000E+00
#rwgt            1           1   3.0875070580879474E-002           7      332795           0
</event>
<event>
      5   9999  3.19816E-02  1.02600E+02 -1.00000E+00  1.23329E-01
      21    -1     0     0   502   511  0.000000000E+00  0.000000000E+00  8.702076878E+01  8.702076878E+01  0.000000000E+00  0.00000E+00  9.000E+00
      21    -1     0     0   501   502  0.000000000E+00  0.000000000E+00 -2.291179152E+03  2.291179152E+03  0.000000000E+00  0.00000E+00  9.000E+00
      25     1     1     2     0     0 -2.122432588E+02  8.861266758E+01 -1.030882273E+03  1.063598922E+03  1.250000000E+02  0.00000E+00  9.000E+00
      25     1     1     2     0     0  1.926394505E+02 -1.893226107E+02 -1.174877704E+03  1.211988295E+03  1.250000000E+02  0.00000E+00  9.000E+00
      21     1     1     2   501   511  1.960380824E+01  1.007099431E+02  1.601593217E+00  1.026127041E+02  3.695187537E-06  0.00000E+00  9.000E+00
#rwgt            1           1   8.4157408107281367E-002           7      332888           0
</event>
<event>
      5   9999  3.19816E-02  5.17640E+02 -1.00000E+00  9.84261E-02
      21    -1     0     0   502   501  0.000000000E+00  0.000000000E+00  1.658214907E+03  1.658214907E+03  0.000000000E+00  0.00000E+00  9.000E+00
       2    -1     0     0   501     0  0.000000000E+00  0.000000000E+00 -7.200326512E+02  7.200326512E+02  0.000000000E+00  0.00000E+00  9.000E+00
      25     1     1     2     0     0  3.235155377E+02  3.303742634E+02 -4.643960834E+02  6.671567877E+02  1.250000000E+02  0.00000E+00  9.000E+00
      25     1     1     2     0     0 -4.066667945E+02  1.805437868E+02  6.405810262E+02  7.899006215E+02  1.250000000E+02  0.00000E+00  9.000E+00
       2     1     1     2   502     0  8.315125680E+01 -5.109180502E+02  7.619973133E+02  9.211901492E+02  0.000000000E+00  0.00000E+00  9.000E+00
#rwgt            2          13   5.5205535778923368E-005           7      333110           0
</event>
<event>
      5   9999  3.19816E-02  1.85790E+02 -1.00000E+00  1.12826E-01
       1    -1     0     0   502     0  0.000000000E+00  0.000000000E+00  1.341487656E+03  1.341487656E+03  0.000000000E+00  0.00000E+00  9.000E+00
      21    -1     0     0   501   502  0.000000000E+00  0.000000000E+00 -4.007374887E+02  4.007374887E+02  0.000000000E+00  0.00000E+00  9.000E+00
      25     1     1     2     0     0  1.019135558E+01  2.391223209E+02  3.381421181E+02  4.327221281E+02  1.250000000E+02  0.00000E+00  9.000E+00
      25     1     1     2     0     0 -1.507783497E+02 -1.176590961E+02 -3.061156853E+02  3.819811335E+02  1.250000000E+02  0.00000E+00  9.000E+00
       1     1     1     2   501     0  1.405869941E+02 -1.214632249E+02  9.087237344E+02  9.275218830E+02  1.078959322E-05  0.00000E+00  9.000E+00
#rwgt            1           1   2.7230913025890893E-002           7      333129           0
</event>
<event>
      5   9999  3.19816E-02  1.51246E+02 -1.00000E+00  1.16251E-01
      21    -1     0     0   511   501  0.000000000E+00  0.000000000E+00  1.167589947E+03  1.167589947E+03  0.000000000E+00  0.00000E+00  9.000E+00
      21    -1     0     0   501   502  0.000000000E+00  0.000000000E+00 -5.848932361E+02  5.848932361E+02  0.000000000E+00  0.00000E+00  9.000E+00
      25     1     1     2     0     0  1.575517928E+02 -4.196278179E+02  8.666508237E+02  9.836761272E+02  1.250000000E+02  0.00000E+00  9.000E+00
      25     1     1     2     0     0 -8.922241759E+00  3.916176018E+02 -4.034466072E+02  5.760539187E+02  1.250000000E+02  0.00000E+00  9.000E+00
      21     1     1     2   511   502 -1.486295510E+02  2.801021613E+01  1.194924941E+02  1.927531369E+02  1.907348633E-06  0.00000E+00  9.000E+00
#rwgt            1           1   3.5697140285534376E-002           7      333190           0
</event>
<event>
      5   9999  3.19816E-02  1.86793E+02 -1.00000E+00  1.12739E-01
      21    -1     0     0   512   501  0.000000000E+00  0.000000000E+00  1.038987582E+03  1.038987582E+03  0.000000000E+00  0.00000E+00  9.000E+00
      21    -1     0     0   501   502  0.000000000E+00  0.000000000E+00 -2.004564673E+02  2.004564673E+02  0.000000000E+00  0.00000E+00  9.000E+00
      25     1     1     2     0     0 -2.658533449E+01  3.803955916E+02  2.840690764E+02  4.916582413E+02  1.250000000E+02  0.00000E+00  9.000E+00
      25     1     1     2     0     0  1.485158825E+02 -2.388873145E+02  2.821246743E+02  4.175445464E+02  1.250000000E+02  0.00000E+00  9.000E+00
      21     1     1     2   512   502 -1.219305480E+02 -1.415082770E+02  2.723373638E+02  3.302412614E+02  5.394796609E-06  0.00000E+00  9.000E+00
#rwgt            2          11   3.2181936585765156E-003           7      333287           0
</event>
<event>
      5   9999  3.19816E-02  2.16902E+02 -1.00000E+00  1.10380E-01
       2    -1     0     0   502     0  0.000000000E+00  0.000000000E+00  3.821453632E+02  3.821453632E+02  0.000000000E+00  0.00000E+00  9.000E+00
      21    -1     0     0   501   502  0.000000000E+00  0.000000000E+00 -5.911487690E+02  5.911487690E+02  0.000000000E+00  0.00000E+00  9.000E+00
      25     1     1     2     0     0 -3.971386051E+01 -8.323357830E+01 -2.797656186E+01  1.578375978E+02  1.250000000E+02  0.00000E+00  9.000E+00
      25     1     1     2     0     0  2.419340205E+02  4.790366089E+00 -4.150123906E+02  4.964023592E+02  1.250000000E+02  0.00000E+00  9.000E+00
       2     1     1     2   501     0 -2.022201600E+02  7.844321221E+01  2.339855467E+02  3.190541752E+02  3.814697266E-06  0.00000E+00  9.000E+00
#rwgt            1           1   2.6023269510420048E-002           7      333352           0
</event>
<event>
      5   9999  3.19816E-02  9.93955E+01 -1.00000E+00  1.23946E-01
      21    -1     0     0   502   501  0.000000000E+00  0.000000000E+00  1.307386457E+03  1.307386457E+03  0.000000000E+00  0.00000E+00  9.000E+00
      21    -1     0     0   511   502  0.000000000E+00  0.000000000E+00 -7.150088937E+02  7.150088937E+02  0.000000000E+00  0.00000E+00  9.000E+00
      25     1     1     2     0     0 -4.230283134E+02 -6.428426004E+02  7.050585228E+02  1.051157497E+03  1.250000000E+02  0.00000E+00  9.000E+00
      25     1     1     2     0     0  5.133530343E+02  6.843264399E+02 -1.124708866E+02  8.718421385E+02  1.250000000E+02  0.00000E+00  9.000E+00
      21     1     1     2   511   501 -9.032472091E+01 -4.148383940E+01 -2.100724250E-01  9.939571555E+01  2.979766541E-07  0.00000E+00  9.000E+00
#rwgt            2          11   1.1765999343091759E-002           7      333392           0
</event>
<event>
      5   9999  3.19816E-02  5.68571E+01 -1.00000E+00  1.35964E-01
      21    -1     0     0   502   501  0.000000000E+00  0.000000000E+00  5.587223458E+02  5.587223458E+02  0.000000000E+00  0.00000E+00  9.000E+00
      21    -1     0     0   501   512  0.000000000E+00  0.000000000E+00 -2.413876383E+02  2.413876383E+02  0.000000000E+00  0.00000E+00  9.000E+00
      25     1     1     2     0     0  1.241396778E+02 -2.739737794E+01 -1.622370858E+02  2.410542427E+02  1.250000000E+02  0.00000E+00  9.000E+00
      25     1     1     2     0     0 -9.039288051E+01  7.315629590E+01  4.717130135E+02  5.016581341E+02  1.250000000E+02  0.00000E+00  9.000E+00
      21     1     1     2   502   512 -3.374679731E+01 -4.575891796E+01  7.858779807E+00  5.739760728E+01  6.078504936E-07  0.00000E+00  9.000E+00
#rwgt            1           1   2.1638760254236489E-002           7      333412           0
</event>
<event>
      5   9999  3.19816E-02  2.92793E+02 -1.00000E+00  1.05936E-01
      21    -1     0     0   502   501  0.000000000E+00  0.000000000E+00  2.457287175E+02  2.457287175E+02  0.000000000E+00  0.00000E+00  9.000E+00
      21    -1     0     0   511   502  0.000000000E+00  0.000000000E+00 -1.769378623E+03  1.769378623E+03  0.000000000E+00  0.00000E+00  9.000E+00
      25     1     1     2     0     0 -1.857567454E+02 -1.682568573E+02 -1.845339363E+02  3.354008231E+02  1.250000000E+02  0.00000E+00  9.000E+00
      25     1     1     2     0     0 -6.709493227E+01  2.063070002E+01  1.227961114E+02  1.887623921E+02  1.250000000E+02  0.00000E+00  9.000E+00
      21     1     1     2   511   501  2.528516777E+02  1.476261573E+02 -1.461912080E+03  1.490944125E+03  3.051757812E-05  0.00000E+00  9.000E+00
#rwgt            2          11   2.9713017397562376E-003           7      333537           0
</event>
<event>
      5   9999  3.19816E-02  7.83429E+01 -1.00000E+00  1.28791E-01
      21    -1     0     0   502   501  0.000000000E+00  0.000000000E+00  7.176407855E+02  7.176407855E+02  0.000000000E+00  0.00000E+00  9.000E+00
      21    -1     0     0   512   502  0.000000000E+00  0.000000000E+00 -3.108185863E+02  3.108185863E+02  0.000000000E+00  0.00000E+00  9.000E+00
      25     1     1     2     0     0 -1.631528755E+02  2.044757666E+02 -1.313374863E+02  3.182824771E+02  1.250000000E+02  0.00000E+00  9.000E+00
      25     1     1     2     0     0  8.742501178E+01 -1.844032613E+02  5.755844282E+02  6.233539359E+02  1.250000000E+02  0.00000E+00  9.000E+00
      21     1     1     2   512   501  7.572786368E+01 -2.007250533E+01 -3.742474270E+01  8.682295880E+01  1.784161275E-06  0.00000E+00  9.000E+00
#rwgt            1           1   3.0648071198762238E-002           7      333557           0
</event>
<event>
      5   9999  3.19816E-02  1.97857E+02 -1.00000E+00  1.11819E-01
      21    -1     0     0   502   501  0.000000000E+00  0.000000000E+00  1.385897303E+03  1.385897303E+03  0.000000000E+00  0.00000E+00  9.000E+00
      21    -1     0     0   501   511  0.000000000E+00  0.000000000E+00 -5.971094851E+02  5.971094851E+02  0.000000000E+00  0.00000E+00  9.000E+00
      25     1     1     2     0     0  3.659256546E+02 -5.497330467E+02  2.708233222E+02  7.246228530E+02  1.250000000E+02  0.00000E+00  9.000E+00
      25     1     1     2     0     0 -4.644599818E+02  7.213097130E+02  5.890450921E+02  1.048145933E+03  1.250000000E+02  0.00000E+00  9.000E+00
      21     1     1     2   502   511  9.853432720E+01 -1.715766664E+02 -7.108059665E+01  2.102380016E+02  2.697398305E-06  0.00000E+00  9.000E+00
#rwgt            1           1   2.6938315205761384E-002           7      333657           0
</event>
<event>
      5   9999  3.19816E-02  2.07189E+02 -1.00000E+00  1.11093E-01
      21    -1     0     0   502   501  0.000000000E+00  0.000000000E+00  7.114353812E+01  7.114353812E+01  0.000000000E+00  0.00000E+00  9.000E+00
       2    -1     0     0   501     0  0.000000000E+00  0.000000000E+00 -2.753704796E+03  2.753704796E+03  0.000000000E+00  0.00000E+00  9.000E+00
      25     1     1     2     0     0  1.364274736E+01  3.419561804E+02 -1.238333030E+03  1.290819061E+03  1.250000000E+02  0.00000E+00  9.000E+00
      25     1     1     2     0     0 -4.692103591E+01 -1.374573949E+02 -1.193438961E+03  1.208725640E+03  1.250000000E+02  0.00000E+00  9.000E+00
       2     1     1     2   502     0  3.327828855E+01 -2.044987855E+02 -2.507892676E+02  3.253036343E+02  6.031565972E-06  0.00000E+00  9.000E+00
#rwgt            1           1   6.3423591811193322E-002           7      333723           0
</event>
<event>
      5   9999  3.19816E-02  1.91411E+02 -1.00000E+00  1.12346E-01
      21    -1     0     0   502   501  0.000000000E+00  0.000000000E+00  1.190797958E+03  1.190797958E+03  0.000000000E+00  0.00000E+00  9.000E+00
      21    -1     0     0   511   502  0.000000000E+00  0.000000000E+00 -1.937624087E+03  1.937624087E+03  0.000000000E+00  0.00000E+00  9.000E+00
      25     1     1     2     0     0  2.542105573E+02  9.938592504E+01  8.964880442E+02  9.454186284E+02  1.250000000E+02  0.00000E+00  9.000E+00
      25     1     1     2     0     0 -4.423620581E+02 -6.420985308E+01  6.085436205E+01  4.681189475E+02  1.250000000E+02  0.00000E+00  9.000E+00
      21     1     1     2   511   501  1.881515007E+02 -3.517607196E+01 -1.704168536E+03  1.714884469E+03  2.157918644E-05  0.00000E+00  9.000E+00
#rwgt            1           1   2.6149144878416571E-002           7      333782           0
</event>
<event>
      5   9999  3.19816E-02  2.51013E+01 -1.00000E+00  1.58619E-01
      21    -1     0     0   502   501  0.000000000E+00  0.000000000E+00  1.050946557E+03  1.050946557E+03  0.000000000E+00  0.00000E+00  9.000E+00
      21    -1     0     0   512   502  0.000000000E+00  0.000000000E+00 -6.609055132E+02  6.609055132E+02  0.000000000E+00  0.00000E+00  9.000E+00
      25     1     1     2     0     0  3.634659975E+02 -3.062435464E+02  8.626412912E+02  9.928079564E+02  1.250000000E+02  0.00000E+00  9.000E+00
      25     1     1     2     0     0 -3.874075311E+02  3.137852308E+02 -4.642144978E+02  6.925791407E+02  1.250000000E+02  0.00000E+00  9.000E+00
      21     1     1     2   512   501  2.394153363E+01 -7.541684377E+00 -8.385749220E+00  2.646497357E+01  3.953724850E-07  0.00000E+00  9.000E+00
#rwgt            1           1   3.0466814803766944E-002           7      333849           0
</event>
<event>
      5   9999  3.19816E-02  8.05730E+01 -1.00000E+00  1.28200E-01
      21    -1     0     0   502   501  0.000000000E+00  0.000000000E+00  8.823946938E+02  8.823946938E+02  0.000000000E+00  0.00000E+00  9.000E+00
      21    -1     0     0   501   511  0.000000000E+00  0.000000000E+00 -2.887393738E+02  2.887393738E+02  0.000000000E+00  0.00000E+00  9.000E+00
      25     1     1     2     0     0 -2.474611715E+02  3.757050340E+02  3.946399432E+02  6.113566788E+02  1.250000000E+02  0.00000E+00  9.000E+00
      25     1     1     2     0     0  2.917214170E+02 -3.083772100E+02  1.641240591E+02  4.719741471E+02  1.250000000E+02  0.00000E+00  9.000E+00
      21     1     1     2   502   511 -4.426024545E+01 -6.732782401E+01  3.489131767E+01  8.780324175E+01  8.259061849E-07  0.00000E+00  9.000E+00
#rwgt            1           1   3.0224514476564289E-002           7      334023           0
</event>
<event>
      5   9999  3.19816E-02  3.87264E+01 -1.00000E+00  1.45717E-01
      21    -1     0     0   502   512  0.000000000E+00  0.000000000E+00  5.766996199E+02  5.766996199E+02  0.000000000E+00  0.00000E+00  9.000E+00
      21    -1     0     0   501   502  0.000000000E+00  0.000000000E+00 -2.104605539E+02  2.104605539E+02  0.000000000E+00  0.00000E+00  9.000E+00
      25     1     1     2     0     0 -1.022915003E+01 -2.593818672E+02  2.019270473E+02  3.518282549E+02  1.250000000E+02  0.00000E+00  9.000E+00
      25     1     1     2     0     0 -5.992471270E+00  2.945471164E+02  6.205907892E+01  3.259911697E+02  1.250000000E+02  0.00000E+00  9.000E+00
      21     1     1     2   501   512  1.622162130E+01 -3.516524920E+01  1.022529397E+02  1.093407492E+02  1.348699152E-06  0.00000E+00  9.000E+00
#rwgt            1           1   2.8490377791545927E-002           7      334081           0
</event>
<event>
      5   9999  3.19816E-02  1.05424E+02 -1.00000E+00  1.22805E-01
      21    -1     0     0   502   501  0.000000000E+00  0.000000000E+00  1.569363179E+03  1.569363179E+03  0.000000000E+00  0.00000E+00  9.000E+00
      21    -1     0     0   511   502  0.000000000E+00  0.000000000E+00 -2.135596405E+02  2.135596405E+02  0.000000000E+00  0.00000E+00  9.000E+00
      25     1     1     2     0     0 -3.740543299E+02 -3.442169096E+01  4.618587708E+02  6.083091473E+02  1.250000000E+02  0.00000E+00  9.000E+00
      25     1     1     2     0     0  4.380576228E+02 -4.935089832E+01  9.503525302E+02  1.055047356E+03  1.250000000E+02  0.00000E+00  9.000E+00
      21     1     1     2   511   501 -6.400329289E+01  8.377258928E+01 -5.640776259E+01  1.195663159E+02  2.780414531E-06  0.00000E+00  9.000E+00
#rwgt            1           1   3.0534824044259765E-002           7      334217           0
</event>
<event>
      5   9999  3.19816E-02  9.30197E+00 -1.00000E+00  1.99461E-01
      21    -1     0     0   502   512  0.000000000E+00  0.000000000E+00  5.955616200E+02  5.955616200E+02  0.000000000E+00  0.00000E+00  9.000E+00
      21    -1     0     0   501   502  0.000000000E+00  0.000000000E+00 -1.409762911E+02  1.409762911E+02  0.000000000E+00  0.00000E+00  9.000E+00
      25     1     1     2     0     0 -6.052129549E+01  1.588201652E+02  4.202083874E+02  4.701986399E+02  1.250000000E+02  0.00000E+00  9.000E+00
      25     1     1     2     0     0  6.103962442E+01 -1.495326452E+02 -2.543342901E+01  2.058098808E+02  1.250000000E+02  0.00000E+00  9.000E+00
      21     1     1     2   501   512 -5.183289331E-01 -9.287520087E+00  5.981037043E+01  6.052939042E+01  0.000000000E+00  0.00000E+00  9.000E+00
#rwgt            1           1   2.8939446667847205E-002           7      334314           0
</event>
<event>
      5   9999  3.19816E-02  1.80247E+02 -1.00000E+00  1.13317E-01
      21    -1     0     0   502   511  0.000000000E+00  0.000000000E+00  1.089304352E+03  1.089304352E+03  0.000000000E+00  0.00000E+00  9.000E+00
      21    -1     0     0   501   502  0.000000000E+00  0.000000000E+00 -1.328704732E+02  1.328704732E+02  0.000000000E+00  0.00000E+00  9.000E+00
      25     1     1     2     0     0  8.587928981E+01 -1.043782695E+02  8.692823789E+01  2.035966456E+02  1.250000000E+02  0.00000E+00  9.000E+00
      25     1     1     2     0     0 -2.517210783E+02  1.749868563E+02  4.236718642E+02  5.376864789E+02  1.250000000E+02  0.00000E+00  9.000E+00
      21     1     1     2   501   511  1.658417885E+02 -7.060858682E+01  4.458337768E+02  4.808917008E+02  7.629394531E-06  0.00000E+00  9.000E+00
#rwgt            2          11   2.6383933633894194E-003           7      334591           0
</event>
<event>
      5   9999  3.19816E-02  2.28824E+02 -1.00000E+00  1.09560E-01
      21    -1     0     0   502   501  0.000000000E+00  0.000000000E+00  4.413182858E+02  4.413182858E+02  0.000000000E+00  0.00000E+00  9.000E+00
      21    -1     0     0   501   512  0.000000000E+00  0.000000000E+00 -2.522314372E+03  2.522314372E+03  0.000000000E+00  0.00000E+00  9.000E+00
      25     1     1     2     0     0  6.351387149E+01 -8.256193230E+02 -5.068729644E+02  9.788904334E+02  1.250000000E+02  0.00000E+00  9.000E+00
      25     1     1     2     0     0  1.550933127E+02  7.580088720E+02 -6.081025185E+02  9.919904529E+02  1.250000000E+02  0.00000E+00  9.000E+00
      21     1     1     2   502   512 -2.186071842E+02  6.761045104E+01 -9.660206030E+02  9.927517713E+02  1.525878906E-05  0.00000E+00  9.000E+00
#rwgt            1           1   2.7895318940232949E-002           7      334611           0
</event>
<event>
      5   9999  3.19816E-02  1.24598E+02 -1.00000E+00  1.19679E-01
      21    -1     0     0   502   511  0.000000000E+00  0.000000000E+00  5.396508319E+02  5.396508319E+02  0.000000000E+00  0.00000E+00  9.000E+00
      21    -1     0     0   501   502  0.000000000E+00  0.000000000E+00 -3.658819352E+02  3.658819352E+02  0.000000000E+00  0.00000E+00  9.000E+00
      25     1     1     2     0     0 -1.883927725E+02  4.609131040E+01  3.043701726E+02  3.819456082E+02  1.250000000E+02  0.00000E+00  9.000E+00
      25     1     1     2     0     0  1.135953522E+02 -1.457402074E+02 -2.609188092E+02  3.432895820E+02  1.250000000E+02  0.00000E+00  9.000E+00
      21     1     1     2   501   511  7.479742029E+01  9.964889703E+01  1.303175333E+02  1.802975769E+02  1.907348633E-06  0.00000E+00  9.000E+00
#rwgt            1           1   3.0258521486530434E-002           7      334680           0
</event>
<event>
      5   9999  3.19816E-02  3.28760E+02 -1.00000E+00  1.04316E-01
      21    -1     0     0   502   501  0.000000000E+00  0.000000000E+00  7.836006071E+02  7.836006071E+02  0.000000000E+00  0.00000E+00  9.000E+00
      -2    -1     0     0     0   502  0.000000000E+00  0.000000000E+00 -2.725326012E+02  2.725326012E+02  0.000000000E+00  0.00000E+00  9.000E+00
      25     1     1     2     0     0  2.038783495E+02  7.838437719E+01  1.372302245E+02  2.866489604E+02  1.250000000E+02  0.00000E+00  9.000E+00
      25     1     1     2     0     0 -1.730524759E+02  2.489273913E+02  2.698104937E+02  4.246583428E+02  1.250000000E+02  0.00000E+00  9.000E+00
      -2     1     1     2     0   501 -3.082587366E+01 -3.273117685E+02  1.040272876E+02  3.448259051E+02  5.560829062E-06  0.00000E+00  9.000E+00
#rwgt            2           9   6.6483880662564080E-005           7      334853           0
</event>
<event>
      5   9999  3.19816E-02  3.55628E+01 -1.00000E+00  1.48080E-01
      21    -1     0     0   502   511  0.000000000E+00  0.000000000E+00  4.957600685E+02  4.957600685E+02  0.000000000E+00  0.00000E+00  9.000E+00
      21    -1     0     0   501   502  0.000000000E+00  0.000000000E+00 -4.413183239E+02  4.413183239E+02  0.000000000E+00  0.00000E+00  9.000E+00
      25     1     1     2     0     0 -1.911893907E+02 -3.661643521E+02 -4.243733131E+01  4.336538285E+02  1.250000000E+02  0.00000E+00  9.000E+00
      25     1     1     2     0     0  1.833602009E+02  4.008546708E+02  8.554343358E+01  4.660988193E+02  1.250000000E+02  0.00000E+00  9.000E+00
      21     1     1     2   501   511  7.829189759E+00 -3.469031866E+01  1.133564240E+01  3.732574460E+01  5.057621821E-07  0.00000E+00  9.000E+00
#rwgt            1           1   2.9779186110605749E-002           7      334872           0
</event>
<event>
      5   9999  3.19816E-02  9.46803E+00 -1.00000E+00  1.98542E-01
      21    -1     0     0   502   501  0.000000000E+00  0.000000000E+00  3.884488444E+02  3.884488444E+02  0.000000000E+00  0.00000E+00  9.000E+00
      21    -1     0     0   501   512  0.000000000E+00  0.000000000E+00 -2.372934056E+02  2.372934056E+02  0.000000000E+00  0.00000E+00  9.000E+00
      25     1     1     2     0     0  9.174967713E+01 -2.464587564E+02  1.993107916E+01  2.918598461E+02  1.250000000E+02  0.00000E+00  9.000E+00
      25     1     1     2     0     0 -1.008409700E+02  2.438145308E+02  1.373017826E+02  3.226316881E+02  1.250000000E+02  0.00000E+00  9.000E+00
      21     1     1     2   502   512  9.091292904E+00  2.644225612E+00 -6.077422937E+00  1.125071577E+01  1.685873940E-07  0.00000E+00  9.000E+00
#rwgt            1           1   2.8614933227328044E-002           7      335022           0
</event>
<event>
      5   9999  3.19816E-02  2.77894E+02 -1.00000E+00  1.06683E-01
      21    -1     0     0   502   501  0.000000000E+00  0.000000000E+00  8.011385452E+01  8.011385452E+01  0.000000000E+00  0.00000E+00  9.000E+00
       1    -1     0     0   501     0  0.000000000E+00  0.000000000E+00 -3.316429298E+03  3.316429298E+03  0.000000000E+00  0.00000E+00  9.000E+00
      25     1     1     2     0     0 -1.553454889E+01  3.317320781E+01 -1.681623768E+02  2.127095881E+02  1.250000000E+02  0.00000E+00  9.000E+00
      25     1     1     2     0     0  2.106568584E+02 -2.310420632E+02 -5.131515953E+02  6.137640481E+02  1.250000000E+02  0.00000E+00  9.000E+00
       1     1     1     2   502     0 -1.951223095E+02  1.978688554E+02 -2.555001472E+03  2.570069516E+03  3.051757812E-05  0.00000E+00  9.000E+00
#rwgt            1           1   2.2436543810240048E-002           7      335229           0
</event>
<event>
      5   9999  3.19816E-02  2.53259E+02 -1.00000E+00  1.08038E-01
      21    -1     0     0   502   501  0.000000000E+00  0.000000000E+00  7.165239478E+02  7.165239478E+02  0.000000000E+00  0.00000E+00  9.000E+00
      21    -1     0     0   501   511  0.000000000E+00  0.000000000E+00 -4.880929961E+02  4.880929961E+02  0.000000000E+00  0.00000E+00  9.000E+00
      25     1     1     2     0     0  8.569078535E+01  8.699037256E+01 -2.840217786E+02  3.334720473E+02  1.250000000E+02  0.00000E+00  9.000E+00
      25     1     1     2     0     0 -1.921573922E+02 -3.167839595E+02  4.748180866E+02  6.151046705E+02  1.250000000E+02  0.00000E+00  9.000E+00
      21     1     1     2   502   511  1.064666068E+02  2.297935869E+02  3.763464374E+01  2.560402261E+02  2.236564522E-06  0.00000E+00  9.000E+00
#rwgt            1           1   3.1975609167988618E-002           7      335268           0
</event>
<event>
      5   9999  3.19816E-02  7.09329E+01 -1.00000E+00  1.30930E-01
      21    -1     0     0   502   512  0.000000000E+00  0.000000000E+00  1.488992510E+03  1.488992510E+03  0.000000000E+00  0.00000E+00  9.000E+00
      21    -1     0     0   501   502  0.000000000E+00  0.000000000E+00 -1.363520051E+02  1.363520051E+02  0.000000000E+00  0.00000E+00  9.000E+00
      25     1     1     2     0     0  1.045251698E+02  2.130717146E+02  8.227949206E+01  2.805708137E+02  1.250000000E+02  0.00000E+00  9.000E+00
      25     1     1     2     0     0 -1.702412890E+02 -1.863720135E+02  5.227835216E+02  5.938385592E+02  1.250000000E+02  0.00000E+00  9.000E+00
      21     1     1     2   501   512  6.571611913E+01 -2.669970116E+01  7.475774908E+02  7.509351417E+02  1.525878906E-05  0.00000E+00  9.000E+00
#rwgt            2          11   1.1108420958455963E-003           7      335517           0
</event>
<event>
      5   9999  3.19816E-02  7.63981E+01 -1.00000E+00  1.29325E-01
      21    -1     0     0   502   511  0.000000000E+00  0.000000000E+00  1.300259335E+02  1.300259335E+02  0.000000000E+00  0.00000E+00  9.000E+00
      21    -1     0     0   501   502  0.000000000E+00  0.000000000E+00 -1.800681577E+03  1.800681577E+03  0.000000000E+00  0.00000E+00  9.000E+00
      25     1     1     2     0     0  3.074464726E+02  1.218410103E+02 -5.979897739E+02  6.946836222E+02  1.250000000E+02  0.00000E+00  9.000E+00
      25     1     1     2     0     0 -2.380944246E+02 -8.979476421E+01 -1.113758276E+03  1.149275664E+03  1.250000000E+02  0.00000E+00  9.000E+00
      21     1     1     2   501   511 -6.935204798E+01 -3.204624608E+01  4.109240671E+01  8.674822382E+01  2.023048729E-06  0.00000E+00  9.000E+00
#rwgt            1           1   2.9517705131629799E-002           7      335567           0
</event>
<event>
      5   9999  3.19816E-02  9.49486E+00 -1.00000E+00  1.98396E-01
      21    -1     0     0   502   501  0.000000000E+00  0.000000000E+00  8.898027995E+01  8.898027995E+01  0.000000000E+00  0.00000E+00  9.000E+00
      21    -1     0     0   512   502  0.000000000E+00  0.000000000E+00 -4.531397151E+02  4.531397151E+02  0.000000000E+00  0.00000E+00  9.000E+00
      25     1     1     2     0     0  1.413810032E+01  1.331505925E+02 -9.378900694E+01  2.057919920E+02  1.250000000E+02  0.00000E+00  9.000E+00
      25     1     1     2     0     0 -1.420790583E+01 -1.426451958E+02 -2.528216198E+02  3.163752328E+02  1.250000000E+02  0.00000E+00  9.000E+00
      21     1     1     2   512   501  6.980551286E-02  9.494603256E+00 -1.754880844E+01  1.995277027E+01  2.384185791E-07  0.00000E+00  9.000E+00
#rwgt            1           1   2.7772858015409067E-002           7      335663           0
</event>
<event>
      5   9999  3.19816E-02  3.61364E+01 -1.00000E+00  1.47630E-01
      21    -1     0     0   502   501  0.000000000E+00  0.000000000E+00  3.172710697E+02  3.172710697E+02  0.000000000E+00  0.00000E+00  9.000E+00
      21    -1     0     0   501   511  0.000000000E+00  0.000000000E+00 -2.326367046E+02  2.326367046E+02  0.000000000E+00  0.00000E+00  9.000E+00
      25     1     1     2     0     0  1.799855930E+02  3.633175014E+01 -9.221914122E+01  2.405081699E+02  1.250000000E+02  0.00000E+00  9.000E+00
      25     1     1     2     0     0 -1.460592535E+02 -4.877546031E+01  1.862323837E+02  2.720658961E+02  1.250000000E+02  0.00000E+00  9.000E+00
      21     1     1     2   502   511 -3.392633953E+01  1.244371017E+01 -9.378877412E+00  3.733370834E+01  1.130918620E-06  0.00000E+00  9.000E+00
#rwgt            1           1   3.1347025988082679E-002           7      335865           0
</event>
<event>
      5   9999  3.19816E-02  9.64635E+02 -1.00000E+00  9.13681E-02
      21    -1     0     0   502   501  0.000000000E+00  0.000000000E+00  2.284934103E+03  2.284934103E+03  0.000000000E+00  0.00000E+00  9.000E+00
      -1    -1     0     0     0   502  0.000000000E+00  0.000000000E+00 -7.095308887E+02  7.095308887E+02  0.000000000E+00  0.00000E+00  9.000E+00
      25     1     1     2     0     0  3.911302951E+02 -1.080010013E+02  1.461232803E+02  4.490257644E+02  1.250000000E+02  0.00000E+00  9.000E+00
      25     1     1     2     0     0  5.213208835E+01  9.647618439E+02  1.214898900E+03  1.557269247E+03  1.250000000E+02  0.00000E+00  9.000E+00
      -1     1     1     2     0   501 -4.432623835E+02 -8.567608426E+02  2.143810336E+02  9.881699801E+02  5.394796609E-06  0.00000E+00  9.000E+00
#rwgt            2          10   3.7113050920686425E-005           7      336105           0
</event>
<event>
      5   9999  3.19816E-02  9.33224E+01 -1.00000E+00  1.25193E-01
      21    -1     0     0   502   501  0.000000000E+00  0.000000000E+00  1.089408376E+02  1.089408376E+02  0.000000000E+00  0.00000E+00  9.000E+00
       3    -1     0     0   501     0  0.000000000E+00  0.000000000E+00 -1.894705424E+03  1.894705424E+03  0.000000000E+00  0.00000E+00  9.000E+00
      25     1     1     2     0     0 -9.737179365E+01  1.521672405E+02 -3.103608219E+02  3.802433104E+02  1.250000000E+02  0.00000E+00  9.000E+00
      25     1     1     2     0     0  1.693194344E+02 -9.273148020E+01 -1.102190116E+02  2.550322113E+02  1.250000000E+02  0.00000E+00  9.000E+00
       3     1     1     2   502     0 -7.194764073E+01 -5.943576027E+01 -1.365184752E+03  1.368370740E+03  0.000000000E+00  0.00000E+00  9.000E+00
#rwgt            1           1   2.7267587650929275E-002           7      336154           0
</event>
<event>
      5   9999  3.19816E-02  1.34450E+02 -1.00000E+00  1.18309E-01
      21    -1     0     0   502   511  0.000000000E+00  0.000000000E+00  1.650535840E+03  1.650535840E+03  0.000000000E+00  0.00000E+00  9.000E+00
      21    -1     0     0   501   502  0.000000000E+00  0.000000000E+00 -8.399497489E+02  8.399497489E+02  0.000000000E+00  0.00000E+00  9.000E+00
      25     1     1     2     0     0 -5.517149143E+02  7.217191999E+02 -3.590593951E+02  9.847926683E+02  1.250000000E+02  0.00000E+00  9.000E+00
      25     1     1     2     0     0  5.403670556E+02 -5.877494419E+02  9.403914947E+02  1.239922225E+03  1.250000000E+02  0.00000E+00  9.000E+00
      21     1     1     2   501   511  1.134785871E+01 -1.339697580E+02  2.292539917E+02  2.657706956E+02  0.000000000E+00  0.00000E+00  9.000E+00
#rwgt            1           1   3.0726990745728495E-002           7      336236           0
</event>
<event>
      5   9999  3.19816E-02  2.83764E+02 -1.00000E+00  1.06383E-01
      21    -1     0     0   502   501  0.000000000E+00  0.000000000E+00  2.979219095E+03  2.979219095E+03  0.000000000E+00  0.00000E+00  9.000E+00
       1    -1     0     0   501     0  0.000000000E+00  0.000000000E+00 -1.305047431E+03  1.305047431E+03  0.000000000E+00  0.00000E+00  9.000E+00
      25     1     1     2     0     0 -4.586221736E+02  1.217358221E+03  1.337993453E+03  1.870333344E+03  1.250000000E+02  0.00000E+00  9.000E+00
      25     1     1     2     0     0  1.818991959E+02 -1.280177322E+03  1.034183597E+03  1.660452350E+03  1.250000000E+02  0.00000E+00  9.000E+00
       1     1     1     2   502     0  2.767229778E+02  6.281910106E+01 -6.980053857E+02  7.534808321E+02  1.321449896E-05  0.00000E+00  9.000E+00
#rwgt            1           1   3.8906480563754973E-002           7      336352           0
</event>
<event>
      5   9999  3.19816E-02  7.51239E+01 -1.00000E+00  1.29686E-01
      21    -1     0     0   502   501  0.000000000E+00  0.000000000E+00  2.522564580E+02  2.522564580E+02  0.000000000E+00  0.00000E+00  9.000E+00
      21    -1     0     0   511   502  0.000000000E+00  0.000000000E+00 -1.663274242E+03  1.663274242E+03  0.000000000E+00  0.00000E+00  9.000E+00
      25     1     1     2     0     0 -2.339097449E+02 -2.458032168E+02 -1.338169204E+03  1.386165505E+03  1.250000000E+02  0.00000E+00  9.000E+00
      25     1     1     2     0     0  3.090045890E+02  2.478928613E+02  1.259323329E+01  4.155939078E+02  1.250000000E+02  0.00000E+00  9.000E+00
      21     1     1     2   511   501 -7.509484412E+01 -2.089644497E+00 -8.544181350E+01  1.137712869E+02  1.348699152E-06  0.00000E+00  9.000E+00
#rwgt            1           1   2.7926937201864396E-002           7      336439           0
</event>
<event>
      5   9999  3.19816E-02  9.51022E+00 -1.00000E+00  1.98313E-01
      21    -1     0     0   512   501  0.000000000E+00  0.000000000E+00  5.055735252E+02  5.055735252E+02  0.000000000E+00  0.00000E+00  9.000E+00
      21    -1     0     0   501   502  0.000000000E+00  0.000000000E+00 -7.787110880E+02  7.787110880E+02  0.000000000E+00  0.00000E+00  9.000E+00
      25     1     1     2     0     0  1.166961475E+02 -3.202220737E+02  3.676136499E+02  5.166478133E+02  1.250000000E+02  0.00000E+00  9.000E+00
      25     1     1     2     0     0 -1.246887622E+02  3.150681946E+02 -6.564718725E+02  7.492633543E+02  1.250000000E+02  0.00000E+00  9.000E+00
      21     1     1     2   512   502  7.992614698E+00  5.153879086E+00  1.572065978E+01  1.837344560E+01  3.769728732E-07  0.00000E+00  9.000E+00
#rwgt            1           1   2.9517543002467263E-002           7      336561           0
</event>
<event>
      5   9999  3.19816E-02  1.60854E+02 -1.00000E+00  1.15204E-01
      21    -1     0     0   502   501  0.000000000E+00  0.000000000E+00  4.915943633E+02  4.915943633E+02  0.000000000E+00  0.00000E+00  9.000E+00
      21    -1     0     0   501   511  0.000000000E+00  0.000000000E+00 -1.303057246E+03  1.303057246E+03  0.000000000E+00  0.00000E+00  9.000E+00
      25     1     1     2     0     0 -1.837810250E+02 -1.558621577E+02  3.965642296E+02  4.805795101E+02  1.250000000E+02  0.00000E+00  9.000E+00
      25     1     1     2     0     0  2.641960602E+02  1.655198174E+01 -4.339623527E+02  5.234709638E+02  1.250000000E+02  0.00000E+00  9.000E+00
      21     1     1     2   502   511 -8.041503529E+01  1.393101760E+02 -7.740647598E+02  7.906011355E+02  1.525878906E-05  0.00000E+00  9.000E+00
#rwgt            2          11   2.5205010121822492E-003           7      336803           0
</event>
<event>
      5   9999  3.19816E-02  1.50929E+01 -1.00000E+00  1.77131E-01
      21    -1     0     0   512   501  0.000000000E+00  0.000000000E+00  2.668802889E+02  2.668802889E+02  0.000000000E+00  0.00000E+00  9.000E+00
      21    -1     0     0   501   502  0.000000000E+00  0.000000000E+00 -4.986286440E+02  4.986286440E+02  0.000000000E+00  0.00000E+00  9.000E+00
      25     1     1     2     0     0  1.745260608E+02 -1.817137496E+02 -3.489441867E+02  4.481810774E+02  1.250000000E+02  0.00000E+00  9.000E+00
      25     1     1     2     0     0 -1.811019616E+02  1.681287657E+02  1.202802221E+02  3.019230600E+02  1.250000000E+02  0.00000E+00  9.000E+00
      21     1     1     2   512   502  6.575900826E+00  1.358498391E+01 -3.084390374E+00  1.540479547E+01  2.308477966E-07  0.00000E+00  9.000E+00
#rwgt            1           1   3.0511614202566258E-002           7      336823           0
</event>
<event>
      5   9999  3.19816E-02  1.73319E+01 -1.00000E+00  1.71669E-01
      21    -1     0     0   502   501  0.000000000E+00  0.000000000E+00  4.207001871E+02  4.207001871E+02  0.000000000E+00  0.00000E+00  9.000E+00
      21    -1     0     0   501   511  0.000000000E+00  0.000000000E+00 -5.348708731E+02  5.348708731E+02  0.000000000E+00  0.00000E+00  9.000E+00
      25     1     1     2     0     0 -2.436824072E+02 -1.813284091E+02 -3.408821742E+02  4.733780352E+02  1.250000000E+02  0.00000E+00  9.000E+00
      25     1     1     2     0     0  2.458453255E+02  1.641319533E+02  2.801498355E+02  4.260142633E+02  1.250000000E+02  0.00000E+00  9.000E+00
      21     1     1     2   502   511 -2.162918290E+00  1.719645583E+01 -5.343834737E+01  5.617876181E+01  9.536743164E-07  0.00000E+00  9.000E+00
#rwgt            1           1   3.0938252733266156E-002           7      337023           0
</event>
<event>
      5   9999  3.19816E-02  5.53213E+01 -1.00000E+00  1.36615E-01
      21    -1     0     0   512   501  0.000000000E+00  0.000000000E+00  1.031833474E+02  1.031833474E+02  0.000000000E+00  0.00000E+00  9.000E+00
      21    -1     0     0   501   502  0.000000000E+00  0.000000000E+00 -1.806284453E+03  1.806284453E+03  0.000000000E+00  0.00000E+00  9.000E+00
      25     1     1     2     0     0 -1.873360206E+02 -5.973455947E+01 -4.200539908E+02  4.803471218E+02  1.250000000E+02  0.00000E+00  9.000E+00
      25     1     1     2     0     0  1.325199058E+02  6.719384550E+01 -1.337485586E+03  1.351506283E+03  1.250000000E+02  0.00000E+00  9.000E+00
      21     1     1     2   512   502  5.481611485E+01 -7.459286035E+00  5.443847111E+01  7.761439643E+01  2.236564522E-06  0.00000E+00  9.000E+00
#rwgt            1           1   2.2262211192450896E-002           7      337163           0
</event>
<event>
      5   9999  3.19816E-02  2.51686E+01 -1.00000E+00  1.58532E-01
       2    -1     0     0   502     0  0.000000000E+00  0.000000000E+00  5.529426149E+02  5.529426149E+02  0.000000000E+00  0.00000E+00  9.000E+00
      21    -1     0     0   501   502  0.000000000E+00  0.000000000E+00 -9.820862285E+01  9.820862285E+01  0.000000000E+00  0.00000E+00  9.000E+00
      25     1     1     2     0     0  8.277635749E+01 -9.397329137E+01  3.329429349E+02  3.770396567E+02  1.250000000E+02  0.00000E+00  9.000E+00
      25     1     1     2     0     0 -7.094444043E+01  7.175918930E+01  1.158082053E+01  1.610639944E+02  1.250000000E+02  0.00000E+00  9.000E+00
       2     1     1     2   501     0 -1.183191706E+01  2.221410207E+01  1.102102367E+02  1.130475867E+02  0.000000000E+00  0.00000E+00  9.000E+00
#rwgt            1           1   2.5683125875405430E-002           7      337283           0
</event>
<event>
      5   9999  3.19816E-02  5.62437E+01 -1.00000E+00  1.36221E-01
      21    -1     0     0   502   501  0.000000000E+00  0.000000000E+00  1.195739561E+02  1.195739561E+02  0.000000000E+00  0.00000E+00  9.000E+00
      21    -1     0     0   511   502  0.000000000E+00  0.000000000E+00 -2.608066671E+02  2.608066671E+02  0.000000000E+00  0.00000E+00  9.000E+00
      25     1     1     2     0     0  7.883136072E+00  3.122243589E+01 -1.988889689E+00  1.290966306E+02  1.250000000E+02  0.00000E+00  9.000E+00
      25     1     1     2     0     0 -3.127608278E+01 -8.237048489E+01 -1.021717341E+02  1.839215957E+02  1.250000000E+02  0.00000E+00  9.000E+00
      21     1     1     2   511   501  2.339294671E+01  5.114804900E+01 -3.707208717E+01  6.736239693E+01  1.168007728E-06  0.00000E+00  9.000E+00
#rwgt            1           1   3.0415487444330411E-002           7      337422           0
</event>
<event>
      5   9999  3.95630E-02  8.38484E+01 -1.00000E+00  1.27370E-01
      21    -1     0     0   502   501  0.000000000E+00  0.000000000E+00  1.330211053E+03  1.330211053E+03  0.000000000E+00  0.00000E+00  9.000E+00
       4    -1     0     0   501     0  0.000000000E+00  0.000000000E+00 -1.505502849E+02  1.505502849E+02  0.000000000E+00  0.00000E+00  9.000E+00
      25     1     1     2     0     0  1.970622020E+01  6.217510697E+01  3.071097740E+02  3.379282355E+02  1.250000000E+02  0.00000E+00  9.000E+00
      25     1     1     2     0     0 -6.217404057E+01  1.012316768E+01  9.892671074E+02  9.991208634E+02  1.250000000E+02  0.00000E+00  9.000E+00
       4     1     1     2   502     0  4.246782037E+01 -7.229827464E+01 -1.167161138E+02  1.437122386E+02  3.814697266E-06  0.00000E+00  9.000E+00
#rwgt            1           1  0.11195021978881979                7      337483           0
</event>
<event>
      5   9999  3.19816E-02  5.64062E+01 -1.00000E+00  1.36153E-01
      21    -1     0     0   502   501  0.000000000E+00  0.000000000E+00  2.617567089E+02  2.617567089E+02  0.000000000E+00  0.00000E+00  9.000E+00
      21    -1     0     0   501   511  0.000000000E+00  0.000000000E+00 -6.233521987E+02  6.233521987E+02  0.000000000E+00  0.00000E+00  9.000E+00
      25     1     1     2     0     0  2.996099206E+02  1.367582097E+02  8.818437717E+00  3.523800183E+02  1.250000000E+02  0.00000E+00  9.000E+00
      25     1     1     2     0     0 -2.904604879E+02 -8.109904040E+01 -3.139143437E+02  4.528924426E+02  1.250000000E+02  0.00000E+00  9.000E+00
      21     1     1     2   502   511 -9.149432635E+00 -5.565916933E+01 -5.649958382E+01  7.983644669E+01  9.536743164E-07  0.00000E+00  9.000E+00
#rwgt            1           1   2.5283724930284811E-002           7      337515           0
</event>
<event>
      5   9999  3.19816E-02  1.79490E+01 -1.00000E+00  1.70342E-01
      21    -1     0     0   512   501  0.000000000E+00  0.000000000E+00  1.650114325E+02  1.650114325E+02  0.000000000E+00  0.00000E+00  9.000E+00
      21    -1     0     0   501   502  0.000000000E+00  0.000000000E+00 -5.147409759E+02  5.147409759E+02  0.000000000E+00  0.00000E+00  9.000E+00
      25     1     1     2     0     0  1.164607098E+02 -1.190076946E+02 -4.092869250E+02  4.592022597E+02  1.250000000E+02  0.00000E+00  9.000E+00
      25     1     1     2     0     0 -1.036569503E+02  1.064286890E+02  5.744911395E+01  2.024777269E+02  1.250000000E+02  0.00000E+00  9.000E+00
      21     1     1     2   512   502 -1.280375948E+01  1.257900558E+01  2.108267707E+00  1.807242184E+01  1.519626234E-07  0.00000E+00  9.000E+00
#rwgt            1           1   2.7956980817441947E-002           7      337631           0
</event>
<event>
      5   9999  3.19816E-02  1.63109E+02 -1.00000E+00  1.14970E-01
      21    -1     0     0   502   511  0.000000000E+00  0.000000000E+00  1.187718675E+03  1.187718675E+03  0.000000000E+00  0.00000E+00  9.000E+00
      21    -1     0     0   501   502  0.000000000E+00  0.000000000E+00 -3.034745765E+02  3.034745765E+02  0.000000000E+00  0.00000E+00  9.000E+00
      25     1     1     2     0     0 -5.053790618E+02  2.302080700E+02  5.350838794E+02  7.812448461E+02  1.250000000E+02  0.00000E+00  9.000E+00
      25     1     1     2     0     0  3.579407640E+02 -1.604470903E+02  1.202928545E+02  4.289058523E+02  1.250000000E+02  0.00000E+00  9.000E+00
      21     1     1     2   501   511  1.474382979E+02 -6.976097972E+01  2.288673643E+02  2.810425527E+02  3.814697266E-06  0.00000E+00  9.000E+00
#rwgt            1           1   2.8532069903131698E-002           7      337795           0
</event>
<event>
      5   9999  3.19816E-02  3.81030E+01 -1.00000E+00  1.46161E-01
      21    -1     0     0   502   512  0.000000000E+00  0.000000000E+00  1.929130449E+02  1.929130449E+02  0.000000000E+00  0.00000E+00  9.000E+00
      21    -1     0     0   501   502  0.000000000E+00  0.000000000E+00 -4.543607440E+02  4.543607440E+02  0.000000000E+00  0.00000E+00  9.000E+00
      25     1     1     2     0     0 -1.554605747E+02 -1.208573355E+02 -1.571212842E+02  2.812233699E+02  1.250000000E+02  0.00000E+00  9.000E+00
      25     1     1     2     0     0  1.833906417E+02  1.467754924E+02 -1.508861444E+02  3.058869092E+02  1.250000000E+02  0.00000E+00  9.000E+00
      21     1     1     2   501   512 -2.793006702E+01 -2.591815697E+01  4.655972945E+01  6.016350980E+01  6.743495762E-07  0.00000E+00  9.000E+00
#rwgt            1           1   2.9020336207022206E-002           7      337850           0
</event>
<event>
      5   9999  3.19816E-02  6.86907E+01 -1.00000E+00  1.31637E-01
      21    -1     0     0   502   511  0.000000000E+00  0.000000000E+00  4.089401178E+02  4.089401178E+02  0.000000000E+00  0.00000E+00  9.000E+00
      21    -1     0     0   501   502  0.000000000E+00  0.000000000E+00 -1.231950172E+03  1.231950172E+03  0.000000000E+00  0.00000E+00  9.000E+00
      25     1     1     2     0     0  4.947361673E+02  2.443933184E+01 -9.467749800E+02  1.075810866E+03  1.250000000E+02  0.00000E+00  9.000E+00
      25     1     1     2     0     0 -4.567570308E+02  3.279703088E+01  7.438062882E+01  4.804790405E+02  1.250000000E+02  0.00000E+00  9.000E+00
      21     1     1     2   501   511 -3.797913650E+01 -5.723636272E+01  4.938429734E+01  8.460038327E+01  9.536743164E-07  0.00000E+00  9.000E+00
#rwgt            1           1   3.7342993753118989E-002           7      337934           0
</event>
</LesHouchesEvents>
 #Random number generator exit values:            7        338063             0
